/*--------------------------------*- C++ -*----------------------------------*\
| =========                 |                                                 |
| \\      /  F ield         | OpenFOAM: The Open Source CFD Toolbox           |
|  \\    /   O peration     | Version:  dev                                   |
|   \\  /    A nd           | Web:      www.OpenFOAM.org                      |
|    \\/     M anipulation  |                                                 |
\*---------------------------------------------------------------------------*/
FoamFile
{
    version     2.0;
    format      ascii;
    class       volScalarField;
    location    "0.025";
    object      c-C6H7;
}
// * * * * * * * * * * * * * * * * * * * * * * * * * * * * * * * * * * * * * //

dimensions      [0 0 0 0 0 0 0];

internalField   nonuniform List<scalar> 
250
(
9.86478e-09
9.87427e-09
9.87112e-09
9.87009e-09
9.86861e-09
9.87146e-09
9.87344e-09
9.89266e-09
1.01256e-08
1.28805e-08
2.86525e-09
5.82338e-09
5.82726e-09
5.82597e-09
5.82601e-09
5.82654e-09
5.82768e-09
5.83096e-09
5.84938e-09
6.07917e-09
9.37335e-09
6.64344e-09
2.80191e-09
2.80335e-09
2.80342e-09
2.80291e-09
2.80406e-09
2.80385e-09
2.80764e-09
2.82106e-09
2.98477e-09
5.62908e-09
2.78326e-09
1.3347e-09
1.33521e-09
1.33553e-09
1.33502e-09
1.33609e-09
1.33561e-09
1.33957e-09
1.34961e-09
1.45857e-09
3.3949e-09
1.00195e-09
6.83563e-10
6.83745e-10
6.84024e-10
6.83659e-10
6.84441e-10
6.84099e-10
6.90259e-10
6.97478e-10
7.72797e-10
2.15915e-09
6.50127e-10
3.88627e-10
3.88688e-10
3.88887e-10
3.88651e-10
3.89188e-10
3.88994e-10
3.86196e-10
3.92268e-10
4.44159e-10
1.45402e-09
7.88353e-10
2.46585e-10
2.46602e-10
2.46735e-10
2.46583e-10
2.4694e-10
2.46854e-10
2.45924e-10
2.49698e-10
2.89302e-10
9.90312e-10
1.00671e-09
1.66733e-10
1.66734e-10
1.66865e-10
1.6677e-10
1.67134e-10
1.67165e-10
1.67379e-10
1.74942e-10
2.07025e-10
7.21046e-10
1.0347e-09
1.2448e-10
1.24478e-10
1.24581e-10
1.24516e-10
1.24806e-10
1.24874e-10
1.25301e-10
1.30925e-10
1.54402e-10
5.48433e-10
8.19031e-10
9.87677e-11
9.87682e-11
9.88531e-11
9.8804e-11
9.90445e-11
9.91287e-11
9.95331e-11
1.01874e-10
1.21028e-10
4.13236e-10
5.0756e-10
8.10755e-11
8.11835e-11
8.11429e-11
8.14505e-11
8.15833e-11
8.22532e-11
8.53348e-11
1.01431e-10
3.1685e-10
2.98384e-10
6.8429e-11
6.85323e-11
6.84996e-11
6.87996e-11
6.89335e-11
6.96105e-11
7.26111e-11
8.62077e-11
2.45581e-10
1.99742e-10
5.93934e-11
5.94975e-11
5.94684e-11
5.97748e-11
5.99065e-11
6.06164e-11
6.35015e-11
7.50725e-11
2.00349e-10
1.51678e-10
5.26424e-11
5.27505e-11
5.27233e-11
5.30439e-11
5.31725e-11
5.39266e-11
5.66923e-11
6.67081e-11
1.65752e-10
1.24153e-10
4.73959e-11
4.751e-11
4.74846e-11
4.7823e-11
4.79498e-11
4.87493e-11
5.13979e-11
6.02239e-11
1.39035e-10
1.06846e-10
4.31804e-11
4.33012e-11
4.3279e-11
4.36361e-11
4.37636e-11
4.46045e-11
4.71402e-11
5.50598e-11
1.18559e-10
9.58434e-11
3.97011e-11
3.98288e-11
3.98119e-11
4.01871e-11
4.03186e-11
4.11945e-11
4.36219e-11
5.08474e-11
1.00585e-10
8.90951e-11
3.6771e-11
3.69052e-11
3.68964e-11
3.72879e-11
3.74271e-11
3.83308e-11
4.06551e-11
4.73554e-11
8.81165e-11
8.52611e-11
3.42686e-11
3.44089e-11
3.44113e-11
3.48169e-11
3.49673e-11
3.58914e-11
3.81185e-11
4.4416e-11
7.84994e-11
8.33217e-11
3.21131e-11
3.22587e-11
3.22759e-11
3.26932e-11
3.28577e-11
3.37958e-11
3.59319e-11
4.19135e-11
7.07594e-11
8.25303e-11
3.02488e-11
3.0399e-11
3.04345e-11
3.08615e-11
3.10416e-11
3.19885e-11
3.40402e-11
3.97669e-11
6.50046e-11
8.24167e-11
2.86351e-11
2.87893e-11
2.8847e-11
2.92823e-11
2.94775e-11
3.04299e-11
3.24031e-11
3.79163e-11
6.05184e-11
8.27275e-11
2.72406e-11
2.73985e-11
2.74824e-11
2.79254e-11
2.81328e-11
2.90902e-11
3.09897e-11
3.63171e-11
5.70576e-11
8.33454e-11
2.60397e-11
2.62013e-11
2.63157e-11
2.67669e-11
2.71267e-11
2.80911e-11
2.99482e-11
3.5109e-11
5.41883e-11
8.41946e-11
)
;

boundaryField
{
    fuel
    {
        type            fixedValue;
        value           uniform 0;
    }
    wall
    {
        type            zeroGradient;
    }
    outlet
    {
        type            zeroGradient;
    }
    frontAndBack
    {
        type            empty;
    }
    procBoundary3to0
    {
        type            processor;
        value           nonuniform List<scalar> 10(2.5138e-11 2.53046e-11 2.54482e-11 2.59096e-11 2.631e-11 2.72827e-11 2.91079e-11 3.41123e-11 5.20938e-11 8.52025e-11);
    }
    procBoundary3to2
    {
        type            processor;
        value           nonuniform List<scalar> 
25
(
9.86851e-09
5.82597e-09
2.80333e-09
1.33544e-09
6.8396e-10
3.88848e-10
2.46712e-10
1.66854e-10
1.24577e-10
9.88544e-11
8.10788e-11
8.10788e-11
6.84279e-11
5.93893e-11
5.26362e-11
4.73885e-11
4.31723e-11
3.96927e-11
3.67626e-11
3.42605e-11
3.21054e-11
3.02417e-11
2.86287e-11
2.7235e-11
2.60349e-11
)
;
    }
}


// ************************************************************************* //
