/*--------------------------------*- C++ -*----------------------------------*\
| =========                 |                                                 |
| \\      /  F ield         | OpenFOAM: The Open Source CFD Toolbox           |
|  \\    /   O peration     | Version:  dev                                   |
|   \\  /    A nd           | Web:      www.OpenFOAM.org                      |
|    \\/     M anipulation  |                                                 |
\*---------------------------------------------------------------------------*/
FoamFile
{
    version     2.0;
    format      ascii;
    class       volScalarField;
    location    "0.025";
    object      C5H4OH;
}
// * * * * * * * * * * * * * * * * * * * * * * * * * * * * * * * * * * * * * //

dimensions      [0 0 0 0 0 0 0];

internalField   nonuniform List<scalar> 
250
(
8.83208e-09
8.84148e-09
8.83739e-09
8.8376e-09
8.83757e-09
8.84096e-09
8.8441e-09
8.87459e-09
9.2348e-09
1.47901e-08
1.0129e-08
4.87012e-09
4.87362e-09
4.87246e-09
4.87232e-09
4.87337e-09
4.87456e-09
4.87861e-09
4.90013e-09
5.15832e-09
9.25986e-09
1.08563e-08
2.39513e-09
2.39633e-09
2.39643e-09
2.39587e-09
2.39718e-09
2.397e-09
2.40135e-09
2.41549e-09
2.57868e-09
5.30222e-09
8.53908e-09
1.23168e-09
1.23207e-09
1.23238e-09
1.23188e-09
1.23301e-09
1.23257e-09
1.23689e-09
1.24733e-09
1.35185e-09
3.16442e-09
6.08434e-09
7.03441e-10
7.03562e-10
7.03827e-10
7.03475e-10
7.04317e-10
7.03987e-10
7.09975e-10
7.17955e-10
7.90393e-10
2.02255e-09
4.09095e-09
4.49826e-10
4.49849e-10
4.50051e-10
4.49809e-10
4.50419e-10
4.50223e-10
4.48122e-10
4.5529e-10
5.06543e-10
1.37451e-09
2.64829e-09
3.1711e-10
3.171e-10
3.17249e-10
3.17077e-10
3.17514e-10
3.17428e-10
3.16793e-10
3.22233e-10
3.62522e-10
9.47408e-10
1.72744e-09
2.34295e-10
2.34278e-10
2.34435e-10
2.34311e-10
2.3477e-10
2.34814e-10
2.35291e-10
2.45348e-10
2.7898e-10
6.99309e-10
1.23501e-09
1.85351e-10
1.85336e-10
1.85468e-10
1.85368e-10
1.85754e-10
1.85848e-10
1.86491e-10
1.94688e-10
2.19671e-10
5.40814e-10
1.04855e-09
1.51839e-10
1.51832e-10
1.51947e-10
1.51855e-10
1.52191e-10
1.52309e-10
1.52868e-10
1.568e-10
1.77767e-10
4.17071e-10
1.00223e-09
1.25751e-10
1.25909e-10
1.25818e-10
1.26272e-10
1.26467e-10
1.27413e-10
1.32585e-10
1.50619e-10
3.28505e-10
8.18958e-10
1.04811e-10
1.04965e-10
1.04877e-10
1.05327e-10
1.05524e-10
1.06462e-10
1.11618e-10
1.27301e-10
2.62298e-10
5.52782e-10
8.8342e-11
8.84978e-11
8.84079e-11
8.88654e-11
8.90527e-11
9.00149e-11
9.50238e-11
1.08667e-10
2.19549e-10
3.70887e-10
7.51351e-11
7.52947e-11
7.52015e-11
7.56725e-11
7.58443e-11
7.68437e-11
8.16293e-11
9.36468e-11
1.86045e-10
2.5e-10
6.44109e-11
6.45751e-11
6.44796e-11
6.49653e-11
6.5119e-11
6.61556e-11
7.06652e-11
8.13937e-11
1.59349e-10
1.71869e-10
5.56305e-11
5.57993e-11
5.57038e-11
5.62022e-11
5.63386e-11
5.74053e-11
6.1607e-11
7.1318e-11
1.38087e-10
1.2944e-10
4.84005e-11
4.85731e-11
4.84808e-11
4.89884e-11
4.91103e-11
5.01967e-11
5.40768e-11
6.29798e-11
1.18534e-10
1.08824e-10
4.24221e-11
4.25973e-11
4.25123e-11
4.30246e-11
4.3136e-11
4.42307e-11
4.7791e-11
5.60561e-11
1.0427e-10
9.89759e-11
3.74629e-11
3.76394e-11
3.75654e-11
3.8078e-11
3.81831e-11
3.92751e-11
4.25291e-11
5.02803e-11
9.26685e-11
9.44367e-11
3.33378e-11
3.35145e-11
3.34554e-11
3.39643e-11
3.40659e-11
3.51459e-11
3.81147e-11
4.54386e-11
8.28062e-11
9.26819e-11
2.98976e-11
3.00734e-11
3.00329e-11
3.05349e-11
3.06332e-11
3.16939e-11
3.44022e-11
4.13581e-11
7.50517e-11
9.23867e-11
2.70192e-11
2.71934e-11
2.71748e-11
2.76678e-11
2.77582e-11
2.87953e-11
3.12677e-11
3.7893e-11
6.86532e-11
9.27506e-11
2.45987e-11
2.4771e-11
2.47773e-11
2.52605e-11
2.53318e-11
2.63447e-11
2.86011e-11
3.49189e-11
6.34037e-11
9.32555e-11
2.25462e-11
2.27167e-11
2.27508e-11
2.32247e-11
2.35125e-11
2.45074e-11
2.66217e-11
3.26462e-11
5.87308e-11
9.3541e-11
)
;

boundaryField
{
    fuel
    {
        type            fixedValue;
        value           uniform 0;
    }
    wall
    {
        type            zeroGradient;
    }
    outlet
    {
        type            zeroGradient;
    }
    frontAndBack
    {
        type            empty;
    }
    procBoundary3to0
    {
        type            processor;
        value           nonuniform List<scalar> 10(2.09951e-11 2.11663e-11 2.12242e-11 2.16939e-11 2.20005e-11 2.29782e-11 2.49741e-11 3.07094e-11 5.50218e-11 9.33501e-11);
    }
    procBoundary3to2
    {
        type            processor;
        value           nonuniform List<scalar> 
25
(
8.83725e-09
4.87285e-09
2.39639e-09
1.23231e-09
7.03784e-10
4.50028e-10
3.17238e-10
2.34433e-10
1.85473e-10
1.51957e-10
1.25758e-10
1.25758e-10
1.04809e-10
8.83345e-11
7.51237e-11
6.43971e-11
5.56156e-11
4.83854e-11
4.24074e-11
3.7449e-11
3.3325e-11
2.9886e-11
2.70089e-11
2.45897e-11
2.25387e-11
)
;
    }
}


// ************************************************************************* //
