/*--------------------------------*- C++ -*----------------------------------*\
| =========                 |                                                 |
| \\      /  F ield         | OpenFOAM: The Open Source CFD Toolbox           |
|  \\    /   O peration     | Version:  dev                                   |
|   \\  /    A nd           | Web:      www.OpenFOAM.org                      |
|    \\/     M anipulation  |                                                 |
\*---------------------------------------------------------------------------*/
FoamFile
{
    version     2.0;
    format      ascii;
    class       volScalarField;
    location    "0.025";
    object      CH2(S);
}
// * * * * * * * * * * * * * * * * * * * * * * * * * * * * * * * * * * * * * //

dimensions      [0 0 0 0 0 0 0];

internalField   nonuniform List<scalar> 
25
(
2.40548e-11
1.60519e-11
1.03529e-11
6.4026e-12
3.86567e-12
2.25838e-12
1.28084e-12
7.07134e-13
3.81295e-13
2.01619e-13
1.04997e-13
5.40658e-14
2.76145e-14
1.40164e-14
7.07207e-15
3.54241e-15
1.75653e-15
8.5809e-16
4.09341e-16
1.87988e-16
8.32099e-17
3.51009e-17
1.39686e-17
5.12046e-18
1.47094e-18
)
;

boundaryField
{
    wall
    {
        type            zeroGradient;
    }
    fuel
    {
        type            fixedValue;
        value           nonuniform 0();
    }
    outlet
    {
        type            inletOutlet;
        inletValue      uniform 0;
        value           uniform 1.47094e-18;
    }
    procBoundary3to2
    {
        type            processor;
        value           uniform 3.49324e-11;
    }
}


// ************************************************************************* //
