/*--------------------------------*- C++ -*----------------------------------*\
| =========                 |                                                 |
| \\      /  F ield         | OpenFOAM: The Open Source CFD Toolbox           |
|  \\    /   O peration     | Version:  dev                                   |
|   \\  /    A nd           | Web:      www.OpenFOAM.org                      |
|    \\/     M anipulation  |                                                 |
\*---------------------------------------------------------------------------*/
FoamFile
{
    version     2.0;
    format      ascii;
    class       volScalarField;
    location    "0.025";
    object      CH2CO;
}
// * * * * * * * * * * * * * * * * * * * * * * * * * * * * * * * * * * * * * //

dimensions      [0 0 0 0 0 0 0];

internalField   nonuniform List<scalar> 
25
(
7.8525e-05
7.99177e-05
8.08252e-05
8.13078e-05
8.13979e-05
8.11488e-05
8.05941e-05
7.97597e-05
7.86638e-05
7.73179e-05
7.57275e-05
7.38924e-05
7.18066e-05
6.94581e-05
6.68296e-05
6.38986e-05
6.06363e-05
5.6999e-05
5.29043e-05
4.82319e-05
4.29631e-05
3.6889e-05
2.9799e-05
2.15314e-05
1.24215e-05
)
;

boundaryField
{
    wall
    {
        type            zeroGradient;
    }
    fuel
    {
        type            fixedValue;
        value           nonuniform 0();
    }
    outlet
    {
        type            inletOutlet;
        inletValue      uniform 0;
        value           uniform 1.24215e-05;
    }
    procBoundary3to2
    {
        type            processor;
        value           uniform 7.6606e-05;
    }
}


// ************************************************************************* //
