/*--------------------------------*- C++ -*----------------------------------*\
| =========                 |                                                 |
| \\      /  F ield         | OpenFOAM: The Open Source CFD Toolbox           |
|  \\    /   O peration     | Version:  dev                                   |
|   \\  /    A nd           | Web:      www.OpenFOAM.org                      |
|    \\/     M anipulation  |                                                 |
\*---------------------------------------------------------------------------*/
FoamFile
{
    version     2.0;
    format      ascii;
    class       volScalarField;
    location    "0.025";
    object      dQ;
}
// * * * * * * * * * * * * * * * * * * * * * * * * * * * * * * * * * * * * * //

dimensions      [1 2 -3 0 0 0 0];

internalField   nonuniform List<scalar> 
250
(
33.6929
33.6928
33.6907
33.689
33.6918
33.6932
33.6907
33.6851
33.6564
33.5972
0.0257811
7.67809
7.67817
7.67779
7.67791
7.67797
7.67907
7.67731
7.69741
7.70147
7.9737
0.0300738
2.08956
2.0896
2.08962
2.08966
2.08959
2.09014
2.08906
2.09183
2.0956
2.33807
0.0230904
0.705023
0.705038
0.70508
0.705072
0.705043
0.70527
0.704647
0.705814
0.709454
0.897816
0.0173275
0.281999
0.282014
0.282028
0.281991
0.281962
0.282026
0.281547
0.281344
0.280062
0.431851
0.0145159
0.118912
0.118897
0.118945
0.118928
0.118948
0.119017
0.118784
0.120467
0.124336
0.246875
0.0157757
0.054885
0.0548808
0.0548952
0.0548654
0.0548509
0.05484
0.0543768
0.0554061
0.0588204
0.159406
0.0282446
0.0240698
0.0240604
0.0241007
0.0241082
0.0241665
0.0242503
0.024644
0.0255429
0.0278301
0.111404
0.10275
0.00989055
0.00988531
0.00991006
0.00991457
0.0099528
0.0100033
0.0101642
0.0103556
0.0117425
0.0813499
0.401901
0.00189799
0.0018953
0.00190824
0.00191447
0.00193756
0.00196729
0.00204959
0.0023946
0.00460694
0.0606926
0.76537
-0.00170916
-0.00170231
-0.00169542
-0.00168137
-0.00166419
-0.00162706
-0.00163744
0.00054923
0.0457637
0.919436
-0.00368362
-0.0036748
-0.00365691
-0.00362923
-0.00359157
-0.00350931
-0.0034218
-0.0016004
0.0347441
0.743642
-0.0046735
-0.0046679
-0.00464771
-0.00462398
-0.00459075
-0.00452426
-0.00438507
-0.00272848
0.0265376
0.500724
-0.00509443
-0.00509065
-0.00506733
-0.00504451
-0.00501199
-0.00495047
-0.00480526
-0.00318755
0.0203916
0.3229
-0.00520492
-0.00520222
-0.0051752
-0.00515157
-0.00511732
-0.00505619
-0.0049129
-0.00342851
0.0157448
0.212339
-0.00513996
-0.00513796
-0.0051067
-0.00508135
-0.00504374
-0.00498132
-0.00484427
-0.00349729
0.0120204
0.145415
-0.00497061
-0.00496915
-0.00493299
-0.00490562
-0.00486441
-0.00479916
-0.00467158
-0.00345393
0.0092783
0.103617
-0.00473426
-0.00473334
-0.0046916
-0.00466237
-0.00461836
-0.00454987
-0.00443425
-0.00333865
0.00698107
0.0759842
-0.00445043
-0.00445015
-0.00440256
-0.00437198
-0.00432631
-0.00425934
-0.0041565
-0.00317192
0.00513616
0.0566909
-0.00412929
-0.00412988
-0.0040777
-0.0040463
-0.00400298
-0.00395043
-0.00386023
-0.00296427
0.00370246
0.0427192
-0.00377698
-0.00377876
-0.00372716
-0.0036951
-0.00366518
-0.00358177
-0.00349917
-0.0027223
0.00270081
0.0323974
-0.00340003
-0.00340338
-0.00336643
-0.00333338
-0.00326601
-0.00320063
-0.00314005
-0.00246202
0.00186222
0.0246642
-0.00301195
-0.00301711
-0.00294704
-0.00291074
-0.00285412
-0.00278013
-0.00272912
-0.0021354
0.00130633
0.0187933
-0.002561
-0.00256719
-0.00250085
-0.00245725
-0.00239533
-0.00232367
-0.00228375
-0.0017714
0.0009044
0.0142736
)
;

boundaryField
{
    fuel
    {
        type            calculated;
        value           uniform 0;
    }
    wall
    {
        type            calculated;
        value           nonuniform 0();
    }
    outlet
    {
        type            calculated;
        value           uniform 0;
    }
    frontAndBack
    {
        type            empty;
    }
    procBoundary3to0
    {
        type            processor;
        value           uniform 0;
    }
    procBoundary3to2
    {
        type            processor;
        value           uniform 0;
    }
}


// ************************************************************************* //
