/*--------------------------------*- C++ -*----------------------------------*\
| =========                 |                                                 |
| \\      /  F ield         | OpenFOAM: The Open Source CFD Toolbox           |
|  \\    /   O peration     | Version:  dev                                   |
|   \\  /    A nd           | Web:      www.OpenFOAM.org                      |
|    \\/     M anipulation  |                                                 |
\*---------------------------------------------------------------------------*/
FoamFile
{
    version     2.0;
    format      ascii;
    class       volScalarField;
    location    "0.025";
    object      H2C4O;
}
// * * * * * * * * * * * * * * * * * * * * * * * * * * * * * * * * * * * * * //

dimensions      [0 0 0 0 0 0 0];

internalField   nonuniform List<scalar> 
250
(
1.0772e-05
1.07724e-05
1.07722e-05
1.0772e-05
1.07746e-05
1.07743e-05
1.07786e-05
1.07948e-05
1.0908e-05
1.16436e-05
2.91553e-06
8.67153e-06
8.6719e-06
8.67216e-06
8.67225e-06
8.67447e-06
8.67605e-06
8.67923e-06
8.7032e-06
8.84194e-06
9.71271e-06
5.3505e-06
6.81912e-06
6.81936e-06
6.82002e-06
6.82033e-06
6.82244e-06
6.82473e-06
6.82749e-06
6.85635e-06
7.01387e-06
7.93031e-06
6.06468e-06
5.651e-06
5.65109e-06
5.65205e-06
5.65247e-06
5.65474e-06
5.65734e-06
5.66e-06
5.69382e-06
5.87045e-06
6.80802e-06
6.10475e-06
4.90678e-06
4.90673e-06
4.90796e-06
4.90836e-06
4.91089e-06
4.91362e-06
4.91602e-06
4.95453e-06
5.13726e-06
6.08336e-06
5.9951e-06
4.35184e-06
4.35151e-06
4.3533e-06
4.35375e-06
4.35692e-06
4.36018e-06
4.36302e-06
4.41954e-06
4.63738e-06
5.56629e-06
5.95109e-06
3.9564e-06
3.95597e-06
3.95803e-06
3.95831e-06
3.96183e-06
3.96514e-06
3.96626e-06
4.03078e-06
4.26202e-06
5.15939e-06
6.03776e-06
3.6162e-06
3.6155e-06
3.61853e-06
3.61925e-06
3.62456e-06
3.62998e-06
3.64394e-06
3.71815e-06
3.94581e-06
4.81566e-06
6.11231e-06
3.34336e-06
3.34255e-06
3.34594e-06
3.34658e-06
3.35245e-06
3.35821e-06
3.37043e-06
3.43791e-06
3.65076e-06
4.51116e-06
5.24977e-06
3.07056e-06
3.06961e-06
3.07332e-06
3.07395e-06
3.08035e-06
3.08641e-06
3.09839e-06
3.17585e-06
3.42307e-06
4.23441e-06
2.98989e-06
2.857e-06
2.86101e-06
2.86155e-06
2.86832e-06
2.87454e-06
2.88578e-06
2.94066e-06
3.19751e-06
3.98133e-06
1.47042e-06
2.65061e-06
2.65569e-06
2.6573e-06
2.66676e-06
2.67641e-06
2.69489e-06
2.75614e-06
2.98693e-06
3.74906e-06
9.66383e-07
2.45669e-06
2.46216e-06
2.46405e-06
2.47426e-06
2.48474e-06
2.5039e-06
2.57256e-06
2.79204e-06
3.53444e-06
9.08546e-07
2.2806e-06
2.28646e-06
2.28869e-06
2.29962e-06
2.311e-06
2.33078e-06
2.40207e-06
2.63489e-06
3.33484e-06
1.00838e-06
2.12039e-06
2.12661e-06
2.12927e-06
2.14089e-06
2.15314e-06
2.17364e-06
2.24665e-06
2.47466e-06
3.14741e-06
1.16126e-06
1.97442e-06
1.981e-06
1.98413e-06
1.99643e-06
2.00948e-06
2.03077e-06
2.10469e-06
2.32291e-06
2.96364e-06
1.32469e-06
1.8413e-06
1.84822e-06
1.85186e-06
1.86482e-06
1.8787e-06
1.90056e-06
1.97478e-06
2.18221e-06
2.79834e-06
1.47689e-06
1.71977e-06
1.72704e-06
1.73119e-06
1.74479e-06
1.7595e-06
1.78164e-06
1.85568e-06
2.05181e-06
2.62929e-06
1.60466e-06
1.60875e-06
1.61636e-06
1.62093e-06
1.6352e-06
1.65057e-06
1.67283e-06
1.74619e-06
1.93124e-06
2.46369e-06
1.70141e-06
1.50721e-06
1.51517e-06
1.51995e-06
1.53498e-06
1.55077e-06
1.57278e-06
1.64511e-06
1.82008e-06
2.30915e-06
1.76589e-06
1.41419e-06
1.42253e-06
1.42714e-06
1.44305e-06
1.4589e-06
1.49144e-06
1.56322e-06
1.71792e-06
2.17523e-06
1.80046e-06
1.32873e-06
1.33748e-06
1.34135e-06
1.3583e-06
1.38393e-06
1.41542e-06
1.48349e-06
1.6235e-06
2.0403e-06
1.80897e-06
1.24981e-06
1.25906e-06
1.27092e-06
1.28884e-06
1.31295e-06
1.34904e-06
1.41567e-06
1.54641e-06
1.92976e-06
1.79678e-06
1.1849e-06
1.1947e-06
1.20605e-06
1.22581e-06
1.25116e-06
1.28901e-06
1.35435e-06
1.47637e-06
1.81983e-06
1.76858e-06
)
;

boundaryField
{
    fuel
    {
        type            fixedValue;
        value           uniform 0;
    }
    wall
    {
        type            zeroGradient;
    }
    outlet
    {
        type            zeroGradient;
    }
    frontAndBack
    {
        type            empty;
    }
    procBoundary3to0
    {
        type            processor;
        value           nonuniform List<scalar> 10(1.12566e-06 1.13609e-06 1.14765e-06 1.16857e-06 1.19526e-06 1.23458e-06 1.29887e-06 1.41278e-06 1.72718e-06 1.72929e-06);
    }
    procBoundary3to2
    {
        type            processor;
        value           nonuniform List<scalar> 
25
(
1.07731e-05
8.67268e-06
6.8204e-06
5.65243e-06
4.90836e-06
4.3537e-06
3.95847e-06
3.61906e-06
3.34655e-06
3.07401e-06
2.85798e-06
2.85798e-06
2.65172e-06
2.45784e-06
2.28178e-06
2.1216e-06
1.97566e-06
1.84256e-06
1.72105e-06
1.61005e-06
1.50852e-06
1.41552e-06
1.33007e-06
1.25118e-06
1.18631e-06
)
;
    }
}


// ************************************************************************* //
