/*--------------------------------*- C++ -*----------------------------------*\
| =========                 |                                                 |
| \\      /  F ield         | OpenFOAM: The Open Source CFD Toolbox           |
|  \\    /   O peration     | Version:  dev                                   |
|   \\  /    A nd           | Web:      www.OpenFOAM.org                      |
|    \\/     M anipulation  |                                                 |
\*---------------------------------------------------------------------------*/
FoamFile
{
    version     2.0;
    format      ascii;
    class       volScalarField;
    location    "0.025";
    object      HCCOH;
}
// * * * * * * * * * * * * * * * * * * * * * * * * * * * * * * * * * * * * * //

dimensions      [0 0 0 0 0 0 0];

internalField   nonuniform List<scalar> 
250
(
2.17923e-05
2.18081e-05
2.18098e-05
2.17903e-05
2.17934e-05
2.17904e-05
2.1794e-05
2.17924e-05
2.17292e-05
2.02467e-05
3.07114e-07
2.04385e-05
2.04409e-05
2.04427e-05
2.04359e-05
2.04407e-05
2.04365e-05
2.04478e-05
2.0452e-05
2.04261e-05
1.90769e-05
6.31429e-07
1.83631e-05
1.8363e-05
1.83651e-05
1.83607e-05
1.83667e-05
1.83617e-05
1.83802e-05
1.83919e-05
1.83666e-05
1.64483e-05
7.85272e-07
1.68804e-05
1.68797e-05
1.6882e-05
1.68782e-05
1.68852e-05
1.68801e-05
1.69058e-05
1.69274e-05
1.68832e-05
1.42746e-05
8.08167e-07
1.57847e-05
1.5784e-05
1.57865e-05
1.57828e-05
1.57906e-05
1.57857e-05
1.58225e-05
1.5854e-05
1.5788e-05
1.26501e-05
7.58096e-07
1.49031e-05
1.49025e-05
1.49053e-05
1.49014e-05
1.49101e-05
1.49054e-05
1.49124e-05
1.49577e-05
1.48652e-05
1.14985e-05
6.78728e-07
1.41511e-05
1.41506e-05
1.41537e-05
1.41495e-05
1.41593e-05
1.41547e-05
1.41686e-05
1.42252e-05
1.41246e-05
1.06389e-05
5.95038e-07
1.34216e-05
1.34214e-05
1.34254e-05
1.34206e-05
1.34335e-05
1.34293e-05
1.34569e-05
1.35828e-05
1.34865e-05
1.01171e-05
5.22516e-07
1.28093e-05
1.28093e-05
1.28139e-05
1.28083e-05
1.28232e-05
1.28188e-05
1.28525e-05
1.29785e-05
1.28485e-05
9.7661e-06
4.81224e-07
1.22512e-05
1.22515e-05
1.22567e-05
1.225e-05
1.22671e-05
1.22621e-05
1.22993e-05
1.23698e-05
1.22566e-05
9.46628e-06
4.77101e-07
1.16978e-05
1.17052e-05
1.1697e-05
1.17203e-05
1.1716e-05
1.17679e-05
1.18789e-05
1.1784e-05
9.24386e-06
5.17347e-07
1.11503e-05
1.11588e-05
1.11492e-05
1.11761e-05
1.11709e-05
1.12296e-05
1.13573e-05
1.12964e-05
9.07836e-06
6.36509e-07
1.06338e-05
1.06437e-05
1.06326e-05
1.06633e-05
1.06568e-05
1.07227e-05
1.08634e-05
1.08369e-05
8.98097e-06
8.92377e-07
1.01457e-05
1.0157e-05
1.01443e-05
1.0179e-05
1.0171e-05
1.02443e-05
1.03945e-05
1.04049e-05
8.90542e-06
1.32313e-06
9.68371e-06
9.69649e-06
9.68223e-06
9.72086e-06
9.71131e-06
9.79157e-06
9.94825e-06
9.99608e-06
8.83789e-06
1.9222e-06
9.24588e-06
9.26015e-06
9.24449e-06
9.28692e-06
9.27572e-06
9.36239e-06
9.52256e-06
9.60658e-06
8.76887e-06
2.64733e-06
8.83032e-06
8.84605e-06
8.82918e-06
8.87517e-06
8.86232e-06
8.95463e-06
9.11577e-06
9.23317e-06
8.67099e-06
3.44074e-06
8.43506e-06
8.45223e-06
8.43437e-06
8.48362e-06
8.4691e-06
8.56617e-06
8.72625e-06
8.87313e-06
8.56727e-06
4.23091e-06
8.05804e-06
8.07658e-06
8.05799e-06
8.11013e-06
8.09388e-06
8.19477e-06
8.3522e-06
8.52388e-06
8.44121e-06
4.96306e-06
7.69696e-06
7.71682e-06
7.69776e-06
7.75243e-06
7.73422e-06
7.83801e-06
7.99158e-06
8.18296e-06
8.28281e-06
5.59503e-06
7.34929e-06
7.37044e-06
7.35117e-06
7.408e-06
7.38734e-06
7.49323e-06
7.64195e-06
7.84791e-06
8.10336e-06
6.10025e-06
7.01223e-06
7.03464e-06
7.01542e-06
7.07406e-06
7.05007e-06
7.15738e-06
7.30033e-06
7.51605e-06
7.8969e-06
6.46716e-06
6.68258e-06
6.70628e-06
6.68735e-06
6.74749e-06
6.7183e-06
6.82664e-06
6.96261e-06
7.18404e-06
7.66687e-06
6.69647e-06
6.3564e-06
6.38144e-06
6.363e-06
6.42441e-06
6.42415e-06
6.53328e-06
6.66631e-06
6.88546e-06
7.3966e-06
6.79724e-06
)
;

boundaryField
{
    fuel
    {
        type            fixedValue;
        value           uniform 0;
    }
    wall
    {
        type            zeroGradient;
    }
    outlet
    {
        type            zeroGradient;
    }
    frontAndBack
    {
        type            empty;
    }
    procBoundary3to0
    {
        type            processor;
        value           nonuniform List<scalar> 10(6.06441e-06 6.09105e-06 6.07255e-06 6.13536e-06 6.13416e-06 6.24342e-06 6.37355e-06 6.58683e-06 7.1225e-06 6.78338e-06);
    }
    procBoundary3to2
    {
        type            processor;
        value           nonuniform List<scalar> 
25
(
2.17929e-05
2.0439e-05
1.8364e-05
1.68815e-05
1.57862e-05
1.49051e-05
1.41537e-05
1.34256e-05
1.28144e-05
1.22574e-05
1.16975e-05
1.16975e-05
1.11497e-05
1.0633e-05
1.01447e-05
9.68257e-06
9.24464e-06
8.829e-06
8.43369e-06
8.05663e-06
7.69553e-06
7.34786e-06
7.0108e-06
6.68118e-06
6.35505e-06
)
;
    }
}


// ************************************************************************* //
