/*--------------------------------*- C++ -*----------------------------------*\
| =========                 |                                                 |
| \\      /  F ield         | OpenFOAM: The Open Source CFD Toolbox           |
|  \\    /   O peration     | Version:  dev                                   |
|   \\  /    A nd           | Web:      www.OpenFOAM.org                      |
|    \\/     M anipulation  |                                                 |
\*---------------------------------------------------------------------------*/
FoamFile
{
    version     2.0;
    format      ascii;
    class       volScalarField;
    location    "0.025";
    object      HCCO;
}
// * * * * * * * * * * * * * * * * * * * * * * * * * * * * * * * * * * * * * //

dimensions      [0 0 0 0 0 0 0];

internalField   nonuniform List<scalar> 
250
(
6.74325e-05
6.74321e-05
6.74124e-05
6.74181e-05
6.74337e-05
6.74608e-05
6.74737e-05
6.75399e-05
6.82685e-05
7.39223e-05
4.50022e-08
3.88657e-05
3.88664e-05
3.88624e-05
3.88651e-05
3.88706e-05
3.88815e-05
3.88855e-05
3.88888e-05
3.92817e-05
4.25498e-05
4.07484e-08
2.10101e-05
2.10106e-05
2.10105e-05
2.10113e-05
2.10133e-05
2.10194e-05
2.10167e-05
2.10498e-05
2.12404e-05
2.32904e-05
2.69054e-08
1.1468e-05
1.14682e-05
1.1469e-05
1.14689e-05
1.14697e-05
1.1473e-05
1.14678e-05
1.14923e-05
1.15966e-05
1.33224e-05
1.80037e-08
6.67636e-06
6.67658e-06
6.6772e-06
6.67629e-06
6.67646e-06
6.67761e-06
6.67056e-06
6.6761e-06
6.66937e-06
8.40315e-06
1.3769e-08
4.13922e-06
4.13889e-06
4.14011e-06
4.13918e-06
4.1398e-06
4.14076e-06
4.13541e-06
4.16911e-06
4.21274e-06
5.89471e-06
1.37185e-08
2.91932e-06
2.91913e-06
2.91982e-06
2.9183e-06
2.91811e-06
2.91725e-06
2.90576e-06
2.92889e-06
2.95015e-06
4.49282e-06
3.49288e-08
2.23826e-06
2.23788e-06
2.23923e-06
2.2382e-06
2.23948e-06
2.24043e-06
2.24782e-06
2.26887e-06
2.2518e-06
3.60449e-06
2.35557e-07
1.87663e-06
1.87629e-06
1.87737e-06
1.87597e-06
1.87672e-06
1.87669e-06
1.8783e-06
1.88115e-06
1.828e-06
2.97142e-06
1.45842e-06
1.63293e-06
1.63257e-06
1.63341e-06
1.63171e-06
1.63196e-06
1.63115e-06
1.63022e-06
1.63677e-06
1.59997e-06
2.48304e-06
4.56807e-06
1.49153e-06
1.49226e-06
1.49021e-06
1.49005e-06
1.48858e-06
1.48575e-06
1.47681e-06
1.4356e-06
2.08949e-06
8.49849e-06
1.38261e-06
1.38362e-06
1.38176e-06
1.38233e-06
1.38186e-06
1.38145e-06
1.37544e-06
1.3152e-06
1.76618e-06
1.00789e-05
1.29428e-06
1.29526e-06
1.29314e-06
1.29344e-06
1.29264e-06
1.29137e-06
1.28831e-06
1.22084e-06
1.50152e-06
9.27703e-06
1.21992e-06
1.22089e-06
1.2185e-06
1.21857e-06
1.21747e-06
1.21557e-06
1.21346e-06
1.15193e-06
1.28831e-06
7.54503e-06
1.15387e-06
1.15486e-06
1.15219e-06
1.15203e-06
1.15064e-06
1.14817e-06
1.14702e-06
1.08607e-06
1.11903e-06
5.78841e-06
1.09307e-06
1.09408e-06
1.09111e-06
1.09069e-06
1.08901e-06
1.08597e-06
1.08578e-06
1.02563e-06
9.81157e-07
4.31817e-06
1.03573e-06
1.03677e-06
1.03347e-06
1.03277e-06
1.03073e-06
1.02709e-06
1.02787e-06
9.69905e-07
8.77933e-07
3.17742e-06
9.80732e-07
9.81806e-07
9.78112e-07
9.77117e-07
9.74645e-07
9.70297e-07
9.72063e-07
9.17434e-07
7.91382e-07
2.32527e-06
9.27283e-07
9.28406e-07
9.24206e-07
9.22927e-07
9.19916e-07
9.14659e-07
9.17418e-07
8.67212e-07
7.21608e-07
1.70463e-06
8.74771e-07
8.75962e-07
8.7107e-07
8.69554e-07
8.65846e-07
8.5932e-07
8.63082e-07
8.18451e-07
6.66805e-07
1.26202e-06
8.2266e-07
8.23944e-07
8.18075e-07
8.16411e-07
8.11736e-07
8.10179e-07
8.15192e-07
7.7046e-07
6.25389e-07
9.52241e-07
7.70438e-07
7.71851e-07
7.64579e-07
7.62877e-07
7.63394e-07
7.59618e-07
7.64039e-07
7.22208e-07
5.87937e-07
7.38626e-07
7.17539e-07
7.19137e-07
7.16355e-07
7.1468e-07
7.12992e-07
7.10625e-07
7.15954e-07
6.7878e-07
5.58407e-07
5.92552e-07
6.69605e-07
6.71445e-07
6.67358e-07
6.66287e-07
6.64324e-07
6.61515e-07
6.67637e-07
6.34844e-07
5.28555e-07
4.91999e-07
)
;

boundaryField
{
    fuel
    {
        type            fixedValue;
        value           uniform 0;
    }
    wall
    {
        type            zeroGradient;
    }
    outlet
    {
        type            zeroGradient;
    }
    frontAndBack
    {
        type            empty;
    }
    procBoundary3to0
    {
        type            processor;
        value           nonuniform List<scalar> 10(6.21299e-07 6.23455e-07 6.18632e-07 6.17563e-07 6.15336e-07 6.12137e-07 6.18891e-07 5.90135e-07 5.01387e-07 4.22906e-07);
    }
    procBoundary3to2
    {
        type            processor;
        value           nonuniform List<scalar> 
25
(
6.74239e-05
3.8866e-05
2.10117e-05
1.14695e-05
6.67751e-06
4.14019e-06
2.91984e-06
2.23927e-06
1.87739e-06
1.6334e-06
1.49191e-06
1.49191e-06
1.38296e-06
1.29462e-06
1.22025e-06
1.15421e-06
1.09342e-06
1.03609e-06
9.81106e-07
9.27673e-07
8.75178e-07
8.23088e-07
7.70889e-07
7.18016e-07
6.70115e-07
)
;
    }
}


// ************************************************************************* //
