/*--------------------------------*- C++ -*----------------------------------*\
| =========                 |                                                 |
| \\      /  F ield         | OpenFOAM: The Open Source CFD Toolbox           |
|  \\    /   O peration     | Version:  dev                                   |
|   \\  /    A nd           | Web:      www.OpenFOAM.org                      |
|    \\/     M anipulation  |                                                 |
\*---------------------------------------------------------------------------*/
FoamFile
{
    version     2.0;
    format      ascii;
    class       volScalarField;
    location    "0.025";
    object      HCO;
}
// * * * * * * * * * * * * * * * * * * * * * * * * * * * * * * * * * * * * * //

dimensions      [0 0 0 0 0 0 0];

internalField   nonuniform List<scalar> 
250
(
8.08069e-06
8.08096e-06
8.0828e-06
8.08422e-06
8.0835e-06
8.08096e-06
8.08311e-06
8.09328e-06
8.13622e-06
8.46165e-06
6.00028e-09
4.23146e-06
4.23152e-06
4.23189e-06
4.23226e-06
4.232e-06
4.23176e-06
4.23148e-06
4.25117e-06
4.25851e-06
4.3543e-06
5.61248e-09
1.95828e-06
1.95831e-06
1.95843e-06
1.95845e-06
1.95826e-06
1.95837e-06
1.95738e-06
1.96231e-06
1.9557e-06
1.99342e-06
3.97737e-09
9.21314e-07
9.21327e-07
9.21391e-07
9.21309e-07
9.21174e-07
9.21227e-07
9.20283e-07
9.21093e-07
9.1313e-07
9.47e-07
3.14548e-09
4.85694e-07
4.85711e-07
4.85731e-07
4.85599e-07
4.85483e-07
4.85416e-07
4.84549e-07
4.83404e-07
4.713e-07
5.09294e-07
3.2309e-09
2.91808e-07
2.91788e-07
2.91842e-07
2.91724e-07
2.91671e-07
2.91615e-07
2.91004e-07
2.9195e-07
2.86272e-07
3.19153e-07
5.21338e-09
2.09856e-07
2.09848e-07
2.09862e-07
2.09714e-07
2.09618e-07
2.09453e-07
2.08507e-07
2.08778e-07
2.0289e-07
2.27015e-07
2.11652e-08
1.67787e-07
1.67769e-07
1.6782e-07
1.67705e-07
1.67698e-07
1.67643e-07
1.67859e-07
1.68031e-07
1.60525e-07
1.76008e-07
1.42045e-07
1.46445e-07
1.4643e-07
1.46462e-07
1.46322e-07
1.4628e-07
1.46162e-07
1.4603e-07
1.45152e-07
1.35953e-07
1.44452e-07
7.52819e-07
1.32453e-07
1.32439e-07
1.32454e-07
1.32291e-07
1.3221e-07
1.32036e-07
1.31741e-07
1.3107e-07
1.22999e-07
1.23085e-07
1.72911e-06
1.24529e-07
1.24533e-07
1.24343e-07
1.24226e-07
1.24001e-07
1.23575e-07
1.22017e-07
1.13788e-07
1.06742e-07
2.1e-06
1.18589e-07
1.18602e-07
1.1841e-07
1.18315e-07
1.18124e-07
1.178e-07
1.1638e-07
1.07148e-07
9.31777e-08
1.57709e-06
1.13902e-07
1.13906e-07
1.13684e-07
1.13555e-07
1.13321e-07
1.12913e-07
1.11622e-07
1.02038e-07
8.23411e-08
9.37593e-07
1.10022e-07
1.1002e-07
1.09765e-07
1.09601e-07
1.09323e-07
1.08843e-07
1.07575e-07
9.83615e-08
7.41777e-08
5.15443e-07
1.06583e-07
1.06574e-07
1.06284e-07
1.06081e-07
1.05758e-07
1.05207e-07
1.03972e-07
9.48815e-08
6.82421e-08
2.87352e-07
1.03373e-07
1.03359e-07
1.03028e-07
1.02785e-07
1.02414e-07
1.01786e-07
1.00597e-07
9.1689e-08
6.38523e-08
1.71962e-07
1.00265e-07
1.00245e-07
9.98694e-08
9.9582e-08
9.91561e-08
9.84494e-08
9.73177e-08
8.87134e-08
6.08757e-08
1.13329e-07
9.71747e-08
9.71496e-08
9.67216e-08
9.63876e-08
9.58973e-08
9.51064e-08
9.40431e-08
8.58506e-08
5.86332e-08
8.19075e-08
9.404e-08
9.40112e-08
9.35199e-08
9.31389e-08
9.25755e-08
9.1682e-08
9.07007e-08
8.30208e-08
5.70102e-08
6.36553e-08
9.08107e-08
9.07797e-08
9.02091e-08
8.97833e-08
8.9134e-08
8.81074e-08
8.72214e-08
8.01569e-08
5.58423e-08
5.22116e-08
8.74407e-08
8.74098e-08
8.67362e-08
8.62713e-08
8.55149e-08
8.47755e-08
8.40092e-08
7.71964e-08
5.49803e-08
4.4692e-08
8.3884e-08
8.38565e-08
8.30456e-08
8.25495e-08
8.21217e-08
8.11714e-08
8.04056e-08
7.40547e-08
5.41427e-08
3.96946e-08
8.00894e-08
8.00701e-08
7.95521e-08
7.90339e-08
7.84062e-08
7.75054e-08
7.68559e-08
7.10712e-08
5.33569e-08
3.64383e-08
7.64803e-08
7.64751e-08
7.58261e-08
7.53289e-08
7.46445e-08
7.3662e-08
7.31221e-08
6.78863e-08
5.23549e-08
3.44056e-08
)
;

boundaryField
{
    fuel
    {
        type            fixedValue;
        value           uniform 0;
    }
    wall
    {
        type            zeroGradient;
    }
    outlet
    {
        type            zeroGradient;
    }
    frontAndBack
    {
        type            empty;
    }
    procBoundary3to0
    {
        type            processor;
        value           nonuniform List<scalar> 10(7.26678e-08 7.26843e-08 7.1947e-08 7.14251e-08 7.06856e-08 6.96353e-08 6.91933e-08 6.44782e-08 5.11995e-08 3.32326e-08);
    }
    procBoundary3to2
    {
        type            processor;
        value           nonuniform List<scalar> 
25
(
8.08296e-06
4.23204e-06
1.95847e-06
9.21403e-07
4.85736e-07
2.91835e-07
2.09854e-07
1.67813e-07
1.46453e-07
1.32443e-07
1.24543e-07
1.24543e-07
1.18602e-07
1.13914e-07
1.10034e-07
1.06595e-07
1.03386e-07
1.00278e-07
9.7188e-08
9.40543e-08
9.08263e-08
8.7458e-08
8.39034e-08
8.01111e-08
7.65049e-08
)
;
    }
}


// ************************************************************************* //
