/*--------------------------------*- C++ -*----------------------------------*\
| =========                 |                                                 |
| \\      /  F ield         | OpenFOAM: The Open Source CFD Toolbox           |
|  \\    /   O peration     | Version:  dev                                   |
|   \\  /    A nd           | Web:      www.OpenFOAM.org                      |
|    \\/     M anipulation  |                                                 |
\*---------------------------------------------------------------------------*/
FoamFile
{
    version     2.0;
    format      ascii;
    class       volScalarField;
    location    "0.025";
    object      HCO;
}
// * * * * * * * * * * * * * * * * * * * * * * * * * * * * * * * * * * * * * //

dimensions      [0 0 0 0 0 0 0];

internalField   nonuniform List<scalar> 
1989
(
1.19477e-08
1.19799e-08
1.20115e-08
1.20394e-08
1.2065e-08
1.20869e-08
1.21044e-08
1.21198e-08
1.21316e-08
1.21413e-08
1.21484e-08
1.21533e-08
1.21566e-08
1.21581e-08
1.21579e-08
1.21561e-08
1.21524e-08
1.21474e-08
1.21401e-08
1.21304e-08
1.21186e-08
1.21034e-08
1.2086e-08
1.20645e-08
1.20392e-08
1.2012e-08
1.19809e-08
1.19496e-08
1.19108e-08
1.18783e-08
1.18531e-08
1.18358e-08
1.18355e-08
1.18475e-08
1.18917e-08
1.19751e-08
1.20783e-08
1.22333e-08
1.23987e-08
1.1791e-08
1.16324e-08
1.1487e-08
1.13912e-08
1.13121e-08
1.12735e-08
1.1262e-08
1.12632e-08
1.12808e-08
1.13059e-08
1.13377e-08
1.13747e-08
1.14055e-08
1.14357e-08
1.14622e-08
1.14866e-08
1.15074e-08
1.15241e-08
1.15388e-08
1.15501e-08
1.15593e-08
1.15662e-08
1.15708e-08
1.1574e-08
1.15754e-08
1.15752e-08
1.15736e-08
1.157e-08
1.15652e-08
1.15582e-08
1.1549e-08
1.15377e-08
1.15232e-08
1.15066e-08
1.14862e-08
1.14621e-08
1.14362e-08
1.14065e-08
1.13765e-08
1.13398e-08
1.13086e-08
1.12844e-08
1.12675e-08
1.12667e-08
1.12771e-08
1.13187e-08
1.13977e-08
1.14947e-08
1.16404e-08
1.17995e-08
1.12264e-08
1.1075e-08
1.09377e-08
1.08468e-08
1.07676e-08
1.07318e-08
1.07267e-08
1.07283e-08
1.07457e-08
1.07697e-08
1.08001e-08
1.08353e-08
1.08647e-08
1.08935e-08
1.09188e-08
1.0942e-08
1.09617e-08
1.09777e-08
1.09917e-08
1.10025e-08
1.10113e-08
1.10178e-08
1.10223e-08
1.10254e-08
1.10267e-08
1.10265e-08
1.10249e-08
1.10215e-08
1.1017e-08
1.10103e-08
1.10015e-08
1.09907e-08
1.09769e-08
1.0961e-08
1.09417e-08
1.09187e-08
1.0894e-08
1.08657e-08
1.08369e-08
1.08022e-08
1.07723e-08
1.07491e-08
1.07324e-08
1.07313e-08
1.074e-08
1.07736e-08
1.08537e-08
1.09451e-08
1.10823e-08
1.12344e-08
1.06946e-08
1.05513e-08
1.04212e-08
1.03353e-08
1.02606e-08
1.02277e-08
1.02234e-08
1.02255e-08
1.02426e-08
1.02656e-08
1.02947e-08
1.03282e-08
1.03563e-08
1.03839e-08
1.04078e-08
1.043e-08
1.04487e-08
1.0464e-08
1.04773e-08
1.04876e-08
1.04961e-08
1.05023e-08
1.05065e-08
1.05095e-08
1.05108e-08
1.05106e-08
1.05091e-08
1.05058e-08
1.05015e-08
1.04951e-08
1.04867e-08
1.04764e-08
1.04633e-08
1.0448e-08
1.04297e-08
1.04078e-08
1.03844e-08
1.03573e-08
1.03297e-08
1.02969e-08
1.02681e-08
1.02458e-08
1.02294e-08
1.02278e-08
1.02351e-08
1.02664e-08
1.03423e-08
1.04283e-08
1.0558e-08
1.07021e-08
1.01956e-08
1.00549e-08
9.93004e-09
9.84851e-09
9.77758e-09
9.74706e-09
9.74339e-09
9.74593e-09
9.76283e-09
9.78517e-09
9.81321e-09
9.84547e-09
9.87253e-09
9.89916e-09
9.92221e-09
9.94352e-09
9.96139e-09
9.9763e-09
9.989e-09
9.99904e-09
1.00073e-08
1.00134e-08
1.00175e-08
1.00205e-08
1.00217e-08
1.00216e-08
1.00201e-08
1.00169e-08
1.00126e-08
1.00064e-08
9.99819e-09
9.98815e-09
9.97562e-09
9.96081e-09
9.94326e-09
9.92219e-09
9.89967e-09
9.87348e-09
9.84676e-09
9.81539e-09
9.78762e-09
9.76589e-09
9.74961e-09
9.74762e-09
9.75354e-09
9.78314e-09
9.85532e-09
9.93687e-09
1.00614e-08
1.02027e-08
9.71575e-09
9.58118e-09
9.46373e-09
9.38778e-09
9.33109e-09
9.30312e-09
9.30019e-09
9.30312e-09
9.31977e-09
9.34128e-09
9.36815e-09
9.39896e-09
9.42489e-09
9.45048e-09
9.47247e-09
9.49281e-09
9.50979e-09
9.52411e-09
9.53616e-09
9.54578e-09
9.55372e-09
9.55962e-09
9.5636e-09
9.56649e-09
9.56769e-09
9.56755e-09
9.56611e-09
9.56299e-09
9.55886e-09
9.55287e-09
9.54501e-09
9.5354e-09
9.52349e-09
9.50927e-09
9.49259e-09
9.47248e-09
9.451e-09
9.42582e-09
9.40014e-09
9.37033e-09
9.34366e-09
9.32269e-09
9.30663e-09
9.30425e-09
9.30887e-09
9.33638e-09
9.39429e-09
9.47025e-09
9.58748e-09
9.72236e-09
9.26448e-09
9.1484e-09
9.03707e-09
8.96645e-09
8.91139e-09
8.88342e-09
8.88017e-09
8.88281e-09
8.89889e-09
8.91955e-09
8.94538e-09
8.975e-09
8.99993e-09
9.02487e-09
9.04606e-09
9.06568e-09
9.08209e-09
9.0959e-09
9.10759e-09
9.11688e-09
9.12453e-09
9.13049e-09
9.13435e-09
9.13727e-09
9.13843e-09
9.1383e-09
9.1369e-09
9.13375e-09
9.12964e-09
9.12372e-09
9.11613e-09
9.10685e-09
9.09531e-09
9.0816e-09
9.06549e-09
9.04609e-09
9.02539e-09
9.00087e-09
8.97613e-09
8.94744e-09
8.9218e-09
8.90169e-09
8.8862e-09
8.88411e-09
8.8887e-09
8.91656e-09
8.97261e-09
9.04329e-09
9.15441e-09
9.27073e-09
8.85291e-09
8.73943e-09
8.63063e-09
8.56374e-09
8.51083e-09
8.48499e-09
8.48239e-09
8.48545e-09
8.50123e-09
8.52118e-09
8.5458e-09
8.5744e-09
8.59815e-09
8.62234e-09
8.64261e-09
8.66134e-09
8.67697e-09
8.69023e-09
8.70138e-09
8.7103e-09
8.71764e-09
8.72399e-09
8.7277e-09
8.73068e-09
8.7318e-09
8.73168e-09
8.73033e-09
8.72714e-09
8.72294e-09
8.71688e-09
8.70962e-09
8.70071e-09
8.68969e-09
8.67654e-09
8.66118e-09
8.64268e-09
8.62286e-09
8.59907e-09
8.57527e-09
8.54801e-09
8.52338e-09
8.50392e-09
8.48869e-09
8.48617e-09
8.48977e-09
8.51572e-09
8.56959e-09
8.63667e-09
8.74545e-09
8.85879e-09
8.45966e-09
8.35121e-09
8.24847e-09
8.18678e-09
8.13676e-09
8.11279e-09
8.11089e-09
8.11436e-09
8.12987e-09
8.14919e-09
8.17265e-09
8.20029e-09
8.2229e-09
8.24651e-09
8.26593e-09
8.28379e-09
8.29871e-09
8.31143e-09
8.32209e-09
8.33066e-09
8.3377e-09
8.34513e-09
8.34871e-09
8.35157e-09
8.35266e-09
8.35254e-09
8.35125e-09
8.34819e-09
8.34392e-09
8.33699e-09
8.33004e-09
8.32148e-09
8.31095e-09
8.29833e-09
8.28367e-09
8.26603e-09
8.24703e-09
8.2238e-09
8.20093e-09
8.175e-09
8.15133e-09
8.13247e-09
8.11745e-09
8.1145e-09
8.11718e-09
8.14138e-09
8.19222e-09
8.25421e-09
8.35691e-09
8.4654e-09
8.09259e-09
7.98808e-09
7.89139e-09
7.83503e-09
7.79488e-09
7.7724e-09
7.77124e-09
7.77503e-09
7.79041e-09
7.80916e-09
7.83167e-09
7.85828e-09
7.8799e-09
7.90315e-09
7.92181e-09
7.93892e-09
7.9532e-09
7.96544e-09
7.97566e-09
7.98393e-09
7.99067e-09
7.9933e-09
7.99675e-09
7.99878e-09
7.99984e-09
7.99973e-09
7.99849e-09
7.99627e-09
7.99355e-09
7.99002e-09
7.98337e-09
7.97511e-09
7.96501e-09
7.95286e-09
7.93883e-09
7.92194e-09
7.90368e-09
7.88079e-09
7.85881e-09
7.83404e-09
7.81125e-09
7.79294e-09
7.778e-09
7.7747e-09
7.77648e-09
7.79926e-09
7.84007e-09
7.89683e-09
7.99349e-09
8.09812e-09
7.75723e-09
7.65647e-09
7.5655e-09
7.51343e-09
7.47623e-09
7.45505e-09
7.45462e-09
7.45871e-09
7.47411e-09
7.49231e-09
7.51399e-09
7.53948e-09
7.56022e-09
7.58308e-09
7.60107e-09
7.61747e-09
7.63118e-09
7.64298e-09
7.65282e-09
7.66082e-09
7.6673e-09
7.67098e-09
7.67433e-09
7.67617e-09
7.67719e-09
7.67709e-09
7.67589e-09
7.67387e-09
7.6711e-09
7.66669e-09
7.6603e-09
7.65231e-09
7.64261e-09
7.63088e-09
7.61742e-09
7.60122e-09
7.58361e-09
7.5611e-09
7.54002e-09
7.51628e-09
7.49434e-09
7.47657e-09
7.46157e-09
7.45794e-09
7.45889e-09
7.48038e-09
7.51811e-09
7.57066e-09
7.66163e-09
7.76254e-09
7.44468e-09
7.34694e-09
7.26227e-09
7.21356e-09
7.17894e-09
7.15897e-09
7.15923e-09
7.16362e-09
7.1792e-09
7.19679e-09
7.21761e-09
7.24226e-09
7.26203e-09
7.27938e-09
7.29685e-09
7.31275e-09
7.32606e-09
7.33754e-09
7.34713e-09
7.35491e-09
7.36125e-09
7.36545e-09
7.36872e-09
7.37064e-09
7.37164e-09
7.37155e-09
7.37037e-09
7.36828e-09
7.3653e-09
7.36066e-09
7.35442e-09
7.34665e-09
7.3372e-09
7.32579e-09
7.31272e-09
7.29703e-09
7.2799e-09
7.2629e-09
7.24275e-09
7.21988e-09
7.19875e-09
7.18156e-09
7.16636e-09
7.16242e-09
7.1626e-09
7.18288e-09
7.21792e-09
7.26718e-09
7.35179e-09
7.44987e-09
7.15282e-09
7.05848e-09
6.97913e-09
6.93247e-09
6.89944e-09
6.88237e-09
6.88331e-09
6.88797e-09
6.90211e-09
6.91926e-09
6.93974e-09
6.96399e-09
6.98331e-09
7.00024e-09
7.01723e-09
7.03256e-09
7.04543e-09
7.05656e-09
7.06588e-09
7.07343e-09
7.07958e-09
7.08396e-09
7.08717e-09
7.08918e-09
7.09016e-09
7.09007e-09
7.08893e-09
7.08675e-09
7.08367e-09
7.07903e-09
7.07298e-09
7.06543e-09
7.05626e-09
7.0452e-09
7.03255e-09
7.01741e-09
7.00078e-09
6.98419e-09
6.96457e-09
6.9419e-09
6.92118e-09
6.90433e-09
6.89061e-09
6.88638e-09
6.88584e-09
6.90325e-09
6.93661e-09
6.9838e-09
7.06312e-09
7.15783e-09
6.87972e-09
6.7893e-09
6.71416e-09
6.67024e-09
6.63933e-09
6.62342e-09
6.625e-09
6.62995e-09
6.64427e-09
6.66089e-09
6.68076e-09
6.70424e-09
6.72288e-09
6.73934e-09
6.75596e-09
6.77075e-09
6.78324e-09
6.79408e-09
6.80313e-09
6.81051e-09
6.81648e-09
6.8209e-09
6.82404e-09
6.82612e-09
6.82708e-09
6.827e-09
6.82588e-09
6.82364e-09
6.82054e-09
6.81597e-09
6.81009e-09
6.80272e-09
6.79382e-09
6.78304e-09
6.77076e-09
6.75614e-09
6.7399e-09
6.72375e-09
6.70491e-09
6.68279e-09
6.66274e-09
6.64639e-09
6.63249e-09
6.62797e-09
6.62675e-09
6.64297e-09
6.67415e-09
6.71862e-09
6.7938e-09
6.88453e-09
6.62452e-09
6.53632e-09
6.46538e-09
6.424e-09
6.39502e-09
6.38013e-09
6.38231e-09
6.38756e-09
6.40201e-09
6.41829e-09
6.43771e-09
6.46034e-09
6.47845e-09
6.49467e-09
6.51082e-09
6.52523e-09
6.53741e-09
6.54799e-09
6.55681e-09
6.56404e-09
6.56987e-09
6.57426e-09
6.57735e-09
6.57944e-09
6.5804e-09
6.58031e-09
6.57922e-09
6.57697e-09
6.57389e-09
6.56939e-09
6.56366e-09
6.55643e-09
6.54776e-09
6.53724e-09
6.52526e-09
6.511e-09
6.49524e-09
6.47933e-09
6.4611e-09
6.43962e-09
6.42008e-09
6.40408e-09
6.39003e-09
6.38519e-09
6.38334e-09
6.3985e-09
6.42772e-09
6.46966e-09
6.54072e-09
6.62914e-09
6.38413e-09
6.29795e-09
6.23109e-09
6.19166e-09
6.16339e-09
6.14931e-09
6.15202e-09
6.15747e-09
6.17196e-09
6.18801e-09
6.20715e-09
6.229e-09
6.24671e-09
6.26277e-09
6.2785e-09
6.29257e-09
6.30449e-09
6.31484e-09
6.32344e-09
6.33054e-09
6.33622e-09
6.34054e-09
6.34358e-09
6.34566e-09
6.34659e-09
6.34652e-09
6.34544e-09
6.34321e-09
6.34019e-09
6.33576e-09
6.33018e-09
6.32309e-09
6.31463e-09
6.30434e-09
6.29262e-09
6.27867e-09
6.26336e-09
6.24759e-09
6.22989e-09
6.2089e-09
6.18977e-09
6.17401e-09
6.1599e-09
6.15483e-09
6.15243e-09
6.16677e-09
6.19524e-09
6.23521e-09
6.30226e-09
6.38857e-09
6.15321e-09
6.07125e-09
6.00876e-09
5.97096e-09
5.94429e-09
5.93098e-09
5.93424e-09
5.93996e-09
5.95455e-09
5.9705e-09
5.98938e-09
6.01065e-09
6.02797e-09
6.04398e-09
6.0594e-09
6.0732e-09
6.08495e-09
6.09512e-09
6.10356e-09
6.11058e-09
6.11615e-09
6.12044e-09
6.12344e-09
6.12551e-09
6.12644e-09
6.12636e-09
6.1253e-09
6.12309e-09
6.1201e-09
6.11572e-09
6.11024e-09
6.10324e-09
6.09494e-09
6.08482e-09
6.07327e-09
6.05956e-09
6.04458e-09
6.02886e-09
6.01166e-09
5.99097e-09
5.97223e-09
5.95658e-09
5.94235e-09
5.93699e-09
5.93402e-09
5.94757e-09
5.97443e-09
6.01276e-09
6.07541e-09
6.15753e-09
5.93488e-09
5.85657e-09
5.79612e-09
5.75968e-09
5.73464e-09
5.72196e-09
5.72577e-09
5.73177e-09
5.74648e-09
5.7624e-09
5.78108e-09
5.80198e-09
5.81896e-09
5.83498e-09
5.85018e-09
5.86376e-09
5.87541e-09
5.88545e-09
5.89377e-09
5.90072e-09
5.90622e-09
5.91048e-09
5.91346e-09
5.91552e-09
5.91645e-09
5.91638e-09
5.91533e-09
5.91313e-09
5.91016e-09
5.90582e-09
5.9004e-09
5.89346e-09
5.88529e-09
5.8753e-09
5.86386e-09
5.85034e-09
5.83561e-09
5.81985e-09
5.80313e-09
5.78253e-09
5.76411e-09
5.7485e-09
5.73413e-09
5.72848e-09
5.72494e-09
5.73784e-09
5.76308e-09
5.80002e-09
5.86064e-09
5.9391e-09
5.72536e-09
5.64955e-09
5.59091e-09
5.55567e-09
5.53216e-09
5.52007e-09
5.52445e-09
5.53072e-09
5.54559e-09
5.56153e-09
5.58007e-09
5.6008e-09
5.61748e-09
5.63357e-09
5.64862e-09
5.66205e-09
5.67364e-09
5.68358e-09
5.69182e-09
5.69875e-09
5.70419e-09
5.70845e-09
5.71141e-09
5.71347e-09
5.7144e-09
5.71433e-09
5.71328e-09
5.71109e-09
5.70814e-09
5.70381e-09
5.69844e-09
5.69154e-09
5.68344e-09
5.67355e-09
5.66215e-09
5.64878e-09
5.63421e-09
5.61838e-09
5.60192e-09
5.58154e-09
5.56324e-09
5.5476e-09
5.53305e-09
5.52711e-09
5.52301e-09
5.5353e-09
5.55902e-09
5.59473e-09
5.65353e-09
5.72952e-09
5.52259e-09
5.44795e-09
5.39112e-09
5.35701e-09
5.33497e-09
5.32344e-09
5.32839e-09
5.33495e-09
5.35004e-09
5.36602e-09
5.38463e-09
5.40509e-09
5.42166e-09
5.43783e-09
5.45283e-09
5.46615e-09
5.47768e-09
5.4876e-09
5.49578e-09
5.5027e-09
5.50812e-09
5.51238e-09
5.51534e-09
5.51741e-09
5.51834e-09
5.51827e-09
5.51723e-09
5.51504e-09
5.51209e-09
5.50777e-09
5.50242e-09
5.49553e-09
5.48747e-09
5.47761e-09
5.46628e-09
5.45298e-09
5.4385e-09
5.42256e-09
5.40631e-09
5.386e-09
5.36774e-09
5.35205e-09
5.33727e-09
5.33103e-09
5.32634e-09
5.33806e-09
5.36032e-09
5.39486e-09
5.45183e-09
5.52672e-09
5.32511e-09
5.25007e-09
5.19529e-09
5.16235e-09
5.14176e-09
5.13083e-09
5.13639e-09
5.14327e-09
5.1586e-09
5.17464e-09
5.19333e-09
5.21376e-09
5.23025e-09
5.24648e-09
5.2615e-09
5.27475e-09
5.28626e-09
5.29618e-09
5.30434e-09
5.31128e-09
5.31669e-09
5.32097e-09
5.32394e-09
5.32602e-09
5.32695e-09
5.32689e-09
5.32584e-09
5.32365e-09
5.32069e-09
5.31635e-09
5.31101e-09
5.30411e-09
5.29607e-09
5.28621e-09
5.2749e-09
5.26165e-09
5.24717e-09
5.23112e-09
5.21506e-09
5.19465e-09
5.17637e-09
5.16061e-09
5.14557e-09
5.13901e-09
5.13369e-09
5.14482e-09
5.16564e-09
5.19898e-09
5.25386e-09
5.3292e-09
5.12991e-09
5.05431e-09
5.00101e-09
4.9688e-09
4.94952e-09
4.93929e-09
4.94546e-09
4.95278e-09
4.96846e-09
4.98465e-09
5.00367e-09
5.0242e-09
5.04063e-09
5.05717e-09
5.07223e-09
5.08558e-09
5.09718e-09
5.10718e-09
5.1154e-09
5.12242e-09
5.12788e-09
5.13222e-09
5.13522e-09
5.13733e-09
5.13828e-09
5.13822e-09
5.13716e-09
5.13494e-09
5.13194e-09
5.12756e-09
5.12217e-09
5.11519e-09
5.1071e-09
5.09715e-09
5.08575e-09
5.07239e-09
5.0579e-09
5.04157e-09
5.02554e-09
5.00491e-09
4.98641e-09
4.97047e-09
4.95509e-09
4.94807e-09
4.94214e-09
4.95257e-09
4.97207e-09
5.00466e-09
5.05803e-09
5.13401e-09
4.9355e-09
4.86786e-09
4.81582e-09
4.78478e-09
4.76708e-09
4.75773e-09
4.76455e-09
4.77232e-09
4.78828e-09
4.80458e-09
4.82374e-09
4.84445e-09
4.86073e-09
4.87744e-09
4.89249e-09
4.90585e-09
4.91748e-09
4.92751e-09
4.93575e-09
4.94281e-09
4.94829e-09
4.95267e-09
4.9557e-09
4.95783e-09
4.95879e-09
4.95874e-09
4.95767e-09
4.95543e-09
4.95241e-09
4.94799e-09
4.94258e-09
4.93556e-09
4.92745e-09
4.91748e-09
4.90604e-09
4.89265e-09
4.87819e-09
4.86172e-09
4.84564e-09
4.82509e-09
4.80636e-09
4.7903e-09
4.77461e-09
4.76713e-09
4.76054e-09
4.77009e-09
4.78801e-09
4.81942e-09
4.87149e-09
4.93955e-09
4.75625e-09
4.69256e-09
4.64245e-09
4.61283e-09
4.59666e-09
4.58827e-09
4.59577e-09
4.60406e-09
4.62035e-09
4.63677e-09
4.65629e-09
4.67707e-09
4.69336e-09
4.71025e-09
4.7254e-09
4.73876e-09
4.75039e-09
4.76044e-09
4.76871e-09
4.7758e-09
4.7813e-09
4.78572e-09
4.78878e-09
4.79094e-09
4.79192e-09
4.79186e-09
4.79079e-09
4.78853e-09
4.78548e-09
4.78103e-09
4.7756e-09
4.76855e-09
4.76041e-09
4.75042e-09
4.73898e-09
4.72559e-09
4.71101e-09
4.69439e-09
4.67824e-09
4.65764e-09
4.63856e-09
4.62237e-09
4.60635e-09
4.59834e-09
4.59106e-09
4.59964e-09
4.61602e-09
4.64598e-09
4.69606e-09
4.76022e-09
4.59548e-09
4.53573e-09
4.4884e-09
4.46084e-09
4.44656e-09
4.43955e-09
4.44773e-09
4.45668e-09
4.47321e-09
4.48964e-09
4.50967e-09
4.53017e-09
4.54652e-09
4.56347e-09
4.57864e-09
4.59196e-09
4.60359e-09
4.61365e-09
4.62194e-09
4.62905e-09
4.63458e-09
4.63903e-09
4.64213e-09
4.64431e-09
4.64531e-09
4.64527e-09
4.64418e-09
4.64191e-09
4.63882e-09
4.63434e-09
4.62888e-09
4.62181e-09
4.61365e-09
4.60365e-09
4.59221e-09
4.57884e-09
4.56427e-09
4.5476e-09
4.53139e-09
4.51101e-09
4.49142e-09
4.47522e-09
4.45894e-09
4.45025e-09
4.44229e-09
4.44948e-09
4.46396e-09
4.49183e-09
4.5391e-09
4.59934e-09
4.46273e-09
4.40662e-09
4.36234e-09
4.33811e-09
4.32588e-09
4.32054e-09
4.32938e-09
4.33914e-09
4.3559e-09
4.3725e-09
4.39276e-09
4.4131e-09
4.42955e-09
4.44651e-09
4.46173e-09
4.47497e-09
4.4866e-09
4.49666e-09
4.50499e-09
4.51213e-09
4.5177e-09
4.52219e-09
4.52533e-09
4.52754e-09
4.52857e-09
4.52853e-09
4.52742e-09
4.52513e-09
4.52201e-09
4.5175e-09
4.512e-09
4.50491e-09
4.49671e-09
4.48671e-09
4.47527e-09
4.46195e-09
4.44734e-09
4.43065e-09
4.41436e-09
4.39413e-09
4.37423e-09
4.35789e-09
4.34137e-09
4.33186e-09
4.32322e-09
4.32873e-09
4.34115e-09
4.36569e-09
4.40993e-09
4.46641e-09
4.36869e-09
4.31538e-09
4.27542e-09
4.25442e-09
4.24429e-09
4.24083e-09
4.25032e-09
4.26103e-09
4.27804e-09
4.29503e-09
4.31528e-09
4.33562e-09
4.35226e-09
4.36925e-09
4.3846e-09
4.39774e-09
4.40942e-09
4.4195e-09
4.4279e-09
4.43507e-09
4.4407e-09
4.44524e-09
4.44844e-09
4.45069e-09
4.45175e-09
4.45171e-09
4.45059e-09
4.44827e-09
4.44509e-09
4.44054e-09
4.43498e-09
4.42786e-09
4.41959e-09
4.40957e-09
4.39808e-09
4.38486e-09
4.3701e-09
4.35339e-09
4.33688e-09
4.31675e-09
4.29672e-09
4.28002e-09
4.26324e-09
4.25276e-09
4.24345e-09
4.24707e-09
4.25738e-09
4.27866e-09
4.31888e-09
4.37192e-09
4.32294e-09
4.27203e-09
4.2363e-09
4.21834e-09
4.21014e-09
4.20863e-09
4.21875e-09
4.23056e-09
4.2479e-09
4.26543e-09
4.28567e-09
4.30637e-09
4.32337e-09
4.34046e-09
4.35589e-09
4.3691e-09
4.38093e-09
4.39108e-09
4.39963e-09
4.40688e-09
4.41262e-09
4.41724e-09
4.42052e-09
4.42283e-09
4.42393e-09
4.4239e-09
4.42274e-09
4.42038e-09
4.41712e-09
4.41249e-09
4.40683e-09
4.39964e-09
4.39122e-09
4.38112e-09
4.36949e-09
4.3562e-09
4.34135e-09
4.32447e-09
4.3076e-09
4.28723e-09
4.26717e-09
4.24989e-09
4.23275e-09
4.22116e-09
4.2112e-09
4.21285e-09
4.22122e-09
4.23943e-09
4.2762e-09
4.32533e-09
4.3358e-09
4.28828e-09
4.25616e-09
4.24165e-09
4.23532e-09
4.23586e-09
4.2466e-09
4.25963e-09
4.27737e-09
4.29553e-09
4.3159e-09
4.33706e-09
4.35436e-09
4.37177e-09
4.38733e-09
4.40049e-09
4.41255e-09
4.4228e-09
4.43155e-09
4.4389e-09
4.44477e-09
4.4495e-09
4.45288e-09
4.45525e-09
4.45639e-09
4.45637e-09
4.45518e-09
4.45276e-09
4.44941e-09
4.44469e-09
4.43889e-09
4.4316e-09
4.42298e-09
4.41277e-09
4.40094e-09
4.3877e-09
4.37269e-09
4.35555e-09
4.33828e-09
4.31743e-09
4.29732e-09
4.27937e-09
4.26182e-09
4.24898e-09
4.2384e-09
4.23799e-09
4.24446e-09
4.25917e-09
4.29223e-09
4.3382e-09
4.42152e-09
4.37861e-09
4.34965e-09
4.33803e-09
4.33347e-09
4.33618e-09
4.3475e-09
4.36192e-09
4.38012e-09
4.39902e-09
4.41966e-09
4.44135e-09
4.45914e-09
4.477e-09
4.49276e-09
4.50633e-09
4.51872e-09
4.5291e-09
4.53813e-09
4.54562e-09
4.55165e-09
4.55651e-09
4.56e-09
4.56245e-09
4.56363e-09
4.56362e-09
4.5624e-09
4.5599e-09
4.55645e-09
4.5516e-09
4.54565e-09
4.53823e-09
4.52932e-09
4.51896e-09
4.50684e-09
4.4932e-09
4.47793e-09
4.46041e-09
4.44242e-09
4.42132e-09
4.40087e-09
4.38213e-09
4.36409e-09
4.34985e-09
4.33867e-09
4.33607e-09
4.34077e-09
4.35256e-09
4.3823e-09
4.42397e-09
4.60698e-09
4.56888e-09
4.54339e-09
4.53537e-09
4.53255e-09
4.53785e-09
4.54962e-09
4.56577e-09
4.58444e-09
4.60424e-09
4.62531e-09
4.64754e-09
4.66608e-09
4.68428e-09
4.70037e-09
4.71429e-09
4.72704e-09
4.73765e-09
4.74697e-09
4.75464e-09
4.76087e-09
4.76588e-09
4.76951e-09
4.77205e-09
4.77329e-09
4.77328e-09
4.77201e-09
4.76944e-09
4.76586e-09
4.76087e-09
4.75471e-09
4.7471e-09
4.73793e-09
4.72734e-09
4.71486e-09
4.70089e-09
4.68522e-09
4.66739e-09
4.64857e-09
4.62698e-09
4.60613e-09
4.58645e-09
4.56792e-09
4.55194e-09
4.54028e-09
4.53508e-09
4.538e-09
4.54618e-09
4.5723e-09
4.60944e-09
4.95432e-09
4.92265e-09
4.90223e-09
4.89963e-09
4.89886e-09
4.90788e-09
4.91981e-09
4.93839e-09
4.95734e-09
4.97821e-09
4.99955e-09
5.02259e-09
5.04194e-09
5.06043e-09
5.07682e-09
5.09106e-09
5.10422e-09
5.11504e-09
5.12469e-09
5.13255e-09
5.13901e-09
5.14419e-09
5.14798e-09
5.15062e-09
5.15192e-09
5.15192e-09
5.15061e-09
5.14795e-09
5.14422e-09
5.13907e-09
5.13268e-09
5.12488e-09
5.11539e-09
5.10459e-09
5.09168e-09
5.07747e-09
5.06136e-09
5.04329e-09
5.02347e-09
5.00132e-09
4.98012e-09
4.95932e-09
4.94048e-09
4.92203e-09
4.91018e-09
4.90124e-09
4.90208e-09
4.90483e-09
4.92574e-09
4.95669e-09
5.6136e-09
5.59403e-09
5.5836e-09
5.59159e-09
5.59375e-09
5.60963e-09
5.62067e-09
5.64344e-09
5.66185e-09
5.684e-09
5.70547e-09
5.72884e-09
5.7486e-09
5.76743e-09
5.78384e-09
5.79813e-09
5.81168e-09
5.82252e-09
5.83248e-09
5.84042e-09
5.84712e-09
5.85244e-09
5.8564e-09
5.85915e-09
5.86053e-09
5.86055e-09
5.85918e-09
5.85644e-09
5.85254e-09
5.84726e-09
5.84065e-09
5.83277e-09
5.82296e-09
5.81216e-09
5.79886e-09
5.78466e-09
5.7683e-09
5.74997e-09
5.72985e-09
5.70699e-09
5.68584e-09
5.66369e-09
5.64533e-09
5.62262e-09
5.61161e-09
5.59576e-09
5.59363e-09
5.58577e-09
5.59658e-09
5.61563e-09
6.96403e-09
6.97103e-09
6.98057e-09
7.01068e-09
7.0177e-09
7.04706e-09
7.05462e-09
7.08522e-09
7.10116e-09
7.12486e-09
7.14554e-09
7.16879e-09
7.18787e-09
7.20639e-09
7.22226e-09
7.23597e-09
7.24961e-09
7.26002e-09
7.27017e-09
7.27789e-09
7.28476e-09
7.2901e-09
7.29424e-09
7.29706e-09
7.29855e-09
7.2986e-09
7.29719e-09
7.29441e-09
7.29036e-09
7.28508e-09
7.27831e-09
7.27064e-09
7.26064e-09
7.25026e-09
7.23691e-09
7.22321e-09
7.20719e-09
7.18928e-09
7.16979e-09
7.14678e-09
7.12644e-09
7.10261e-09
7.08659e-09
7.05593e-09
7.04825e-09
7.01885e-09
7.01175e-09
6.98175e-09
6.97251e-09
6.96505e-09
9.84223e-09
9.90243e-09
9.94981e-09
1.00137e-08
1.00276e-08
1.00814e-08
1.00903e-08
1.01349e-08
1.01447e-08
1.01709e-08
1.01881e-08
1.02102e-08
1.0227e-08
1.02436e-08
1.0258e-08
1.02699e-08
1.02828e-08
1.02919e-08
1.03017e-08
1.03087e-08
1.03155e-08
1.03205e-08
1.03247e-08
1.03275e-08
1.03291e-08
1.03292e-08
1.03278e-08
1.03252e-08
1.03211e-08
1.03161e-08
1.03094e-08
1.03025e-08
1.02929e-08
1.02837e-08
1.02711e-08
1.0259e-08
1.02444e-08
1.02283e-08
1.0211e-08
1.01889e-08
1.01718e-08
1.01452e-08
1.0135e-08
1.00902e-08
1.0081e-08
1.00269e-08
1.00128e-08
9.94872e-09
9.90154e-09
9.84071e-09
1.56002e-08
1.57181e-08
1.58032e-08
1.59153e-08
1.5933e-08
1.60184e-08
1.60179e-08
1.60828e-08
1.60857e-08
1.61183e-08
1.61329e-08
1.61566e-08
1.61731e-08
1.61893e-08
1.62038e-08
1.62154e-08
1.62284e-08
1.62374e-08
1.62474e-08
1.62542e-08
1.62614e-08
1.62665e-08
1.6271e-08
1.62738e-08
1.62755e-08
1.62757e-08
1.62743e-08
1.62717e-08
1.62673e-08
1.62624e-08
1.62553e-08
1.62485e-08
1.62385e-08
1.62297e-08
1.62165e-08
1.62049e-08
1.619e-08
1.6174e-08
1.6157e-08
1.6133e-08
1.61181e-08
1.60849e-08
1.60813e-08
1.60158e-08
1.60157e-08
1.59298e-08
1.59114e-08
1.5799e-08
1.57138e-08
1.5595e-08
2.50051e-08
2.51205e-08
2.51963e-08
2.53217e-08
2.5329e-08
2.54305e-08
2.54238e-08
2.5506e-08
2.55103e-08
2.55548e-08
2.55763e-08
2.56107e-08
2.56349e-08
2.56585e-08
2.56794e-08
2.56964e-08
2.57144e-08
2.57273e-08
2.57404e-08
2.57498e-08
2.57589e-08
2.57653e-08
2.57706e-08
2.57739e-08
2.57757e-08
2.57759e-08
2.57744e-08
2.57713e-08
2.57662e-08
2.57598e-08
2.57508e-08
2.57414e-08
2.57282e-08
2.57154e-08
2.56974e-08
2.56802e-08
2.56587e-08
2.56351e-08
2.56103e-08
2.55758e-08
2.55536e-08
2.55084e-08
2.55032e-08
2.54201e-08
2.5426e-08
2.53238e-08
2.53155e-08
2.51893e-08
2.51129e-08
2.49963e-08
3.61722e-08
3.61827e-08
3.61783e-08
3.6252e-08
3.62334e-08
3.63164e-08
3.63118e-08
3.63958e-08
3.64147e-08
3.64732e-08
3.65131e-08
3.65658e-08
3.66072e-08
3.66465e-08
3.668e-08
3.6709e-08
3.67364e-08
3.67576e-08
3.67767e-08
3.67914e-08
3.68038e-08
3.68129e-08
3.68192e-08
3.68233e-08
3.68249e-08
3.6825e-08
3.68235e-08
3.68194e-08
3.68131e-08
3.68041e-08
3.67916e-08
3.6777e-08
3.67576e-08
3.67365e-08
3.67091e-08
3.66801e-08
3.66455e-08
3.66064e-08
3.65644e-08
3.65123e-08
3.64715e-08
3.64126e-08
3.63927e-08
3.63077e-08
3.63114e-08
3.62275e-08
3.6245e-08
3.61703e-08
3.61732e-08
3.61618e-08
4.52609e-08
4.5139e-08
4.50413e-08
4.5038e-08
4.49941e-08
4.50407e-08
4.50425e-08
4.51147e-08
4.51497e-08
4.52158e-08
4.52727e-08
4.53386e-08
4.53955e-08
4.54472e-08
4.54911e-08
4.55299e-08
4.55648e-08
4.55928e-08
4.56162e-08
4.56351e-08
4.56494e-08
4.56603e-08
4.56669e-08
4.56712e-08
4.56724e-08
4.56724e-08
4.56711e-08
4.56666e-08
4.56598e-08
4.56488e-08
4.56343e-08
4.56154e-08
4.55917e-08
4.55637e-08
4.55289e-08
4.54906e-08
4.54447e-08
4.53933e-08
4.53363e-08
4.52709e-08
4.52133e-08
4.51472e-08
4.51113e-08
4.50381e-08
4.50354e-08
4.49878e-08
4.50304e-08
4.50325e-08
4.51277e-08
4.52492e-08
4.99373e-08
4.97389e-08
4.95907e-08
4.95378e-08
4.94814e-08
4.95013e-08
4.95072e-08
4.95667e-08
4.96093e-08
4.96753e-08
4.97388e-08
4.98087e-08
4.98699e-08
4.99259e-08
4.99731e-08
5.0015e-08
5.00517e-08
5.00816e-08
5.01059e-08
5.01257e-08
5.01399e-08
5.01508e-08
5.0157e-08
5.01608e-08
5.01615e-08
5.01614e-08
5.01605e-08
5.01563e-08
5.01499e-08
5.01388e-08
5.01242e-08
5.01044e-08
5.00798e-08
5.00499e-08
5.00132e-08
4.99714e-08
4.99227e-08
4.98666e-08
4.98057e-08
4.97356e-08
4.96723e-08
4.96061e-08
4.95625e-08
4.9502e-08
4.9495e-08
4.94739e-08
4.9529e-08
4.95805e-08
4.97256e-08
4.99239e-08
)
;

boundaryField
{
    fuel
    {
        type            fixedValue;
        value           nonuniform 0();
    }
    wall
    {
        type            zeroGradient;
    }
    outlet
    {
        type            zeroGradient;
    }
    frontAndBack
    {
        type            empty;
    }
    procBoundary3to2
    {
        type            processor;
        value           nonuniform List<scalar> 
51
(
1.25569e-08
1.25907e-08
1.26237e-08
1.2653e-08
1.26798e-08
1.27028e-08
1.2721e-08
1.27372e-08
1.27495e-08
1.27596e-08
1.27671e-08
1.27721e-08
1.27756e-08
1.27771e-08
1.27769e-08
1.27751e-08
1.27712e-08
1.2766e-08
1.27584e-08
1.27483e-08
1.27359e-08
1.272e-08
1.27019e-08
1.26792e-08
1.26528e-08
1.26241e-08
1.25917e-08
1.25589e-08
1.25181e-08
1.24842e-08
1.24579e-08
1.24403e-08
1.24403e-08
1.2454e-08
1.25007e-08
1.25885e-08
1.2698e-08
1.28628e-08
1.30338e-08
1.23904e-08
1.22254e-08
1.20714e-08
1.19701e-08
1.18861e-08
1.18445e-08
1.18322e-08
1.1833e-08
1.1851e-08
1.18771e-08
1.19103e-08
1.19103e-08
)
;
    }
}


// ************************************************************************* //
