/*--------------------------------*- C++ -*----------------------------------*\
| =========                 |                                                 |
| \\      /  F ield         | OpenFOAM: The Open Source CFD Toolbox           |
|  \\    /   O peration     | Version:  dev                                   |
|   \\  /    A nd           | Web:      www.OpenFOAM.org                      |
|    \\/     M anipulation  |                                                 |
\*---------------------------------------------------------------------------*/
FoamFile
{
    version     2.0;
    format      ascii;
    class       volScalarField;
    location    "0.165";
    object      A1-;
}
// * * * * * * * * * * * * * * * * * * * * * * * * * * * * * * * * * * * * * //

dimensions      [0 0 0 0 0 0 0];

internalField   nonuniform List<scalar> 
50
(
4.5495e-18
4.1877e-18
3.85791e-18
3.55892e-18
3.28834e-18
3.04274e-18
2.82677e-18
2.62632e-18
2.44314e-18
2.27647e-18
2.12947e-18
1.9936e-18
1.86773e-18
1.75704e-18
1.65492e-18
1.56051e-18
1.47713e-18
1.4008e-18
1.3316e-18
1.26674e-18
1.20962e-18
1.15765e-18
1.10998e-18
1.06714e-18
1.02818e-18
9.9272e-19
9.60377e-19
9.30825e-19
9.03846e-19
8.78464e-19
8.54795e-19
8.33462e-19
8.1327e-19
7.94007e-19
7.75444e-19
7.57402e-19
7.39448e-19
7.21174e-19
7.03524e-19
6.85001e-19
6.66727e-19
6.47614e-19
6.27972e-19
6.08012e-19
5.87568e-19
5.67466e-19
5.46912e-19
5.26048e-19
5.0495e-19
4.83606e-19
)
;

boundaryField
{
    wall
    {
        type            zeroGradient;
    }
    fuel
    {
        type            fixedValue;
        value           nonuniform 0();
    }
    outlet
    {
        type            inletOutlet;
        inletValue      nonuniform 0();
        value           nonuniform 0();
    }
    procBoundary2to1
    {
        type            processor;
        value           uniform 4.95111e-18;
    }
    procBoundary2to3
    {
        type            processor;
        value           uniform 4.6237e-19;
    }
}


// ************************************************************************* //
