/*--------------------------------*- C++ -*----------------------------------*\
| =========                 |                                                 |
| \\      /  F ield         | OpenFOAM: The Open Source CFD Toolbox           |
|  \\    /   O peration     | Version:  dev                                   |
|   \\  /    A nd           | Web:      www.OpenFOAM.org                      |
|    \\/     M anipulation  |                                                 |
\*---------------------------------------------------------------------------*/
FoamFile
{
    version     2.0;
    format      ascii;
    class       volScalarField;
    location    "0.165";
    object      A2C2H22;
}
// * * * * * * * * * * * * * * * * * * * * * * * * * * * * * * * * * * * * * //

dimensions      [0 0 0 0 0 0 0];

internalField   nonuniform List<scalar> 
250
(
1.66879e-15
2.78153e-12
2.00729e-12
1.9163e-12
1.90482e-12
1.9044e-12
1.90466e-12
1.9048e-12
1.90264e-12
1.33346e-14
2.68032e-12
1.44713e-12
1.32845e-12
1.31488e-12
1.31406e-12
1.31397e-12
1.31371e-12
1.31333e-12
9.06873e-15
2.22553e-12
9.62324e-13
8.49346e-13
8.37008e-13
8.36003e-13
8.35823e-13
8.35266e-13
8.35336e-13
5.53361e-15
1.88228e-12
6.87813e-13
5.82526e-13
5.7141e-13
5.70378e-13
5.70159e-13
5.69375e-13
5.69636e-13
3.25675e-15
1.61986e-12
5.21249e-13
4.23281e-13
4.13311e-13
4.12417e-13
4.12161e-13
4.11146e-13
4.11786e-13
1.89462e-15
1.40787e-12
4.0956e-13
3.14651e-13
3.03706e-13
3.02767e-13
3.02357e-13
3.00726e-13
3.02343e-13
1.17557e-15
1.22859e-12
3.29675e-13
2.41316e-13
2.30856e-13
2.30611e-13
2.30089e-13
2.27802e-13
2.29996e-13
1.05429e-15
1.07037e-12
2.67061e-13
1.88689e-13
1.78236e-13
1.76146e-13
1.75226e-13
1.75168e-13
1.76606e-13
1.32564e-15
9.29525e-13
2.21261e-13
1.48029e-13
1.40141e-13
1.38584e-13
1.37262e-13
1.36665e-13
1.38558e-13
1.63948e-15
8.039e-13
1.80518e-13
1.15616e-13
1.08473e-13
1.07277e-13
1.07856e-13
1.08345e-13
1.07006e-13
1.94957e-15
6.91888e-13
1.47402e-13
9.43616e-14
8.79002e-14
8.69093e-14
8.73198e-14
8.75781e-14
8.65151e-14
8.64917e-14
2.30465e-15
5.91872e-13
1.23727e-13
7.72657e-14
7.09238e-14
6.99713e-14
7.03549e-14
7.03953e-14
6.94679e-14
7.06755e-14
2.86403e-15
5.01338e-13
1.04515e-13
6.36038e-14
5.79729e-14
5.71279e-14
5.73925e-14
5.73284e-14
5.65124e-14
5.71592e-14
3.82574e-15
4.05792e-13
8.7859e-14
5.30753e-14
4.8087e-14
4.73266e-14
4.74875e-14
4.73695e-14
4.76765e-14
4.80109e-14
5.56631e-15
3.35152e-13
7.33737e-14
4.48301e-14
4.04177e-14
3.97271e-14
3.98164e-14
3.96452e-14
3.99326e-14
4.00589e-14
8.27868e-15
2.74851e-13
6.15267e-14
3.82658e-14
3.43642e-14
3.37329e-14
3.37746e-14
3.35452e-14
3.38299e-14
3.38395e-14
1.20263e-14
2.2388e-13
5.18085e-14
3.29518e-14
2.95012e-14
2.89217e-14
2.89316e-14
2.86336e-14
2.89504e-14
2.89008e-14
1.66444e-14
1.81247e-13
4.38154e-14
2.85792e-14
2.5527e-14
2.49934e-14
2.49834e-14
2.45933e-14
2.49816e-14
2.49049e-14
2.17255e-14
1.4522e-13
3.72204e-14
2.49245e-14
2.22256e-14
2.1734e-14
2.17155e-14
2.161e-14
2.16986e-14
2.16101e-14
2.67205e-14
1.16577e-13
3.17691e-14
2.18241e-14
1.94416e-14
1.89889e-14
1.89665e-14
1.88087e-14
1.89384e-14
1.88466e-14
3.10254e-14
9.24648e-14
2.72403e-14
1.91558e-14
1.70608e-14
1.66449e-14
1.66226e-14
1.64077e-14
1.65848e-14
1.64941e-14
3.4188e-14
7.14279e-14
2.34676e-14
1.68223e-14
1.49954e-14
1.46147e-14
1.45966e-14
1.45507e-14
1.45498e-14
1.44619e-14
3.60369e-14
5.74323e-14
2.0324e-14
1.50065e-14
1.33807e-14
1.30328e-14
1.30175e-14
1.29518e-14
1.29651e-14
1.28806e-14
3.65765e-14
4.66067e-14
1.76683e-14
1.33615e-14
1.18743e-14
1.15532e-14
1.15419e-14
1.14579e-14
1.14857e-14
1.13992e-14
3.60162e-14
3.82209e-14
1.56358e-14
1.19577e-14
1.06297e-14
1.03403e-14
1.03308e-14
1.02409e-14
1.02739e-14
1.01922e-14
3.46641e-14
3.17227e-14
1.37526e-14
1.07219e-14
9.53446e-15
9.27774e-15
9.26958e-15
9.17849e-15
9.21394e-15
9.13779e-15
)
;

boundaryField
{
    fuel
    {
        type            fixedValue;
        value           uniform 0;
    }
    wall
    {
        type            zeroGradient;
    }
    outlet
    {
        type            zeroGradient;
    }
    frontAndBack
    {
        type            empty;
    }
    procBoundary2to0
    {
        type            processor;
        value           nonuniform List<scalar> 
12
(
1.01925e-14
3.28246e-14
2.66606e-14
1.22383e-14
9.63099e-15
8.57702e-15
8.34924e-15
8.34179e-15
8.25344e-15
8.28911e-15
9.14154e-15
8.21925e-15
)
;
    }
    procBoundary2to3
    {
        type            processor;
        value           nonuniform List<scalar> 
25
(
1.90238e-12
1.3128e-12
8.34451e-13
5.68062e-13
4.0871e-13
3.03885e-13
2.30836e-13
1.75162e-13
1.36411e-13
1.07764e-13
1.07764e-13
8.65694e-14
6.91833e-14
5.7458e-14
4.74056e-14
3.96549e-14
3.35863e-14
2.87436e-14
2.48044e-14
2.15432e-14
1.88012e-14
1.64636e-14
1.44427e-14
1.28689e-14
1.13949e-14
)
;
    }
}


// ************************************************************************* //
