/*--------------------------------*- C++ -*----------------------------------*\
| =========                 |                                                 |
| \\      /  F ield         | OpenFOAM: The Open Source CFD Toolbox           |
|  \\    /   O peration     | Version:  dev                                   |
|   \\  /    A nd           | Web:      www.OpenFOAM.org                      |
|    \\/     M anipulation  |                                                 |
\*---------------------------------------------------------------------------*/
FoamFile
{
    version     2.0;
    format      ascii;
    class       volScalarField;
    location    "0.165";
    object      A2R5-;
}
// * * * * * * * * * * * * * * * * * * * * * * * * * * * * * * * * * * * * * //

dimensions      [0 0 0 0 0 0 0];

internalField   nonuniform List<scalar> 
250
(
8.95166e-10
2.61137e-08
2.14879e-08
2.05748e-08
2.04398e-08
2.04149e-08
2.04151e-08
2.04153e-08
2.0414e-08
2.00395e-09
3.68854e-08
2.86836e-08
2.7084e-08
2.6835e-08
2.67989e-08
2.67976e-08
2.67994e-08
2.67991e-08
2.26562e-09
3.79173e-08
2.88982e-08
2.69968e-08
2.6695e-08
2.6652e-08
2.66406e-08
2.66473e-08
2.66491e-08
1.79391e-09
3.56189e-08
2.70411e-08
2.50329e-08
2.47093e-08
2.46566e-08
2.46375e-08
2.46473e-08
2.46529e-08
1.12946e-09
3.25811e-08
2.47854e-08
2.27649e-08
2.24373e-08
2.23553e-08
2.23293e-08
2.23426e-08
2.23527e-08
7.52886e-10
2.97029e-08
2.27102e-08
2.06394e-08
2.02615e-08
2.02343e-08
2.02107e-08
2.02285e-08
2.02334e-08
1.16264e-09
2.71681e-08
2.0967e-08
1.88999e-08
1.85131e-08
1.8457e-08
1.84258e-08
1.84487e-08
1.84557e-08
2.40714e-09
2.49192e-08
1.94252e-08
1.746e-08
1.70599e-08
1.69867e-08
1.6942e-08
1.6973e-08
1.6982e-08
3.46919e-09
2.28941e-08
1.80078e-08
1.61302e-08
1.58022e-08
1.57352e-08
1.56907e-08
1.57178e-08
1.57293e-08
4.15166e-09
2.10806e-08
1.69324e-08
1.48995e-08
1.45678e-08
1.44957e-08
1.44284e-08
1.44767e-08
1.44899e-08
4.56418e-09
1.94747e-08
1.58409e-08
1.39268e-08
1.35986e-08
1.35231e-08
1.34203e-08
1.35031e-08
1.35186e-08
1.34988e-08
4.80983e-09
1.8035e-08
1.48138e-08
1.29473e-08
1.2589e-08
1.25124e-08
1.24937e-08
1.24902e-08
1.25081e-08
1.24935e-08
4.96434e-09
1.66556e-08
1.38343e-08
1.2003e-08
1.16435e-08
1.15681e-08
1.16055e-08
1.15422e-08
1.15631e-08
1.15556e-08
5.08018e-09
1.54231e-08
1.30308e-08
1.11123e-08
1.07528e-08
1.06778e-08
1.07031e-08
1.06467e-08
1.06718e-08
1.06681e-08
5.17966e-09
1.44312e-08
1.21757e-08
1.02683e-08
9.9108e-09
9.83553e-09
9.85186e-09
9.79736e-09
9.82817e-09
9.82456e-09
5.27121e-09
1.35118e-08
1.1328e-08
9.46711e-09
9.1143e-09
9.03866e-09
9.04863e-09
8.99079e-09
9.02975e-09
9.02468e-09
5.35031e-09
1.26658e-08
1.0501e-08
8.70717e-09
8.36187e-09
8.28624e-09
8.29183e-09
8.22491e-09
8.27579e-09
8.26953e-09
5.40691e-09
1.18045e-08
9.81168e-09
7.98782e-09
7.65271e-09
7.57789e-09
7.58076e-09
7.49722e-09
7.56618e-09
7.55947e-09
5.43189e-09
1.10496e-08
9.09533e-09
7.30702e-09
6.98604e-09
6.91313e-09
6.91502e-09
6.89361e-09
6.90071e-09
6.89392e-09
5.4175e-09
1.03475e-08
8.37653e-09
6.66083e-09
6.36056e-09
6.2909e-09
6.29199e-09
6.26072e-09
6.27791e-09
6.27154e-09
5.36098e-09
9.59272e-09
7.68944e-09
6.11876e-09
5.77408e-09
5.70922e-09
5.70977e-09
5.66537e-09
5.6959e-09
5.69013e-09
5.26683e-09
8.85257e-09
7.03157e-09
5.55828e-09
5.2221e-09
5.16471e-09
5.16524e-09
5.16983e-09
5.15137e-09
5.14611e-09
5.14382e-09
8.20398e-09
6.40305e-09
5.08017e-09
4.76241e-09
4.7127e-09
4.71329e-09
4.71366e-09
4.6996e-09
4.69465e-09
4.99904e-09
7.57532e-09
5.80056e-09
4.61404e-09
4.33602e-09
4.26409e-09
4.26402e-09
4.26055e-09
4.25037e-09
4.24524e-09
4.83565e-09
6.94685e-09
5.21947e-09
4.19731e-09
3.9414e-09
3.87509e-09
3.87457e-09
3.86889e-09
3.86156e-09
3.85671e-09
4.65223e-09
6.30226e-09
4.72721e-09
3.80258e-09
3.57561e-09
3.51476e-09
3.51379e-09
3.50654e-09
3.50153e-09
3.49691e-09
)
;

boundaryField
{
    fuel
    {
        type            fixedValue;
        value           uniform 0;
    }
    wall
    {
        type            zeroGradient;
    }
    outlet
    {
        type            zeroGradient;
    }
    frontAndBack
    {
        type            empty;
    }
    procBoundary2to0
    {
        type            processor;
        value           nonuniform List<scalar> 
12
(
3.84748e-09
4.44958e-09
5.66509e-09
4.25948e-09
3.43914e-09
3.23562e-09
3.18e-09
3.17863e-09
3.17026e-09
3.16717e-09
3.48706e-09
3.16273e-09
)
;
    }
    procBoundary2to3
    {
        type            processor;
        value           nonuniform List<scalar> 
25
(
2.04216e-08
2.67999e-08
2.66481e-08
2.46471e-08
2.23409e-08
2.02251e-08
1.8444e-08
1.69677e-08
1.57125e-08
1.44709e-08
1.44709e-08
1.35181e-08
1.25072e-08
1.15616e-08
1.06696e-08
9.82521e-09
9.026e-09
8.27115e-09
7.56046e-09
6.89356e-09
6.26945e-09
5.68622e-09
5.14048e-09
4.68777e-09
4.2368e-09
)
;
    }
}


// ************************************************************************* //
