/*--------------------------------*- C++ -*----------------------------------*\
| =========                 |                                                 |
| \\      /  F ield         | OpenFOAM: The Open Source CFD Toolbox           |
|  \\    /   O peration     | Version:  dev                                   |
|   \\  /    A nd           | Web:      www.OpenFOAM.org                      |
|    \\/     M anipulation  |                                                 |
\*---------------------------------------------------------------------------*/
FoamFile
{
    version     2.0;
    format      ascii;
    class       volScalarField;
    location    "0.165";
    object      C5H5;
}
// * * * * * * * * * * * * * * * * * * * * * * * * * * * * * * * * * * * * * //

dimensions      [0 0 0 0 0 0 0];

internalField   nonuniform List<scalar> 
250
(
3.3975e-08
2.39187e-05
2.25812e-05
2.23248e-05
2.22791e-05
2.22801e-05
2.22805e-05
2.22829e-05
2.22826e-05
5.63432e-08
2.98832e-05
2.64056e-05
2.58035e-05
2.57105e-05
2.56992e-05
2.56981e-05
2.57012e-05
2.56999e-05
6.95185e-08
2.92309e-05
2.47324e-05
2.39116e-05
2.37889e-05
2.37714e-05
2.37661e-05
2.37695e-05
2.37698e-05
7.94496e-08
2.6859e-05
2.19434e-05
2.09715e-05
2.08329e-05
2.08042e-05
2.07931e-05
2.07977e-05
2.08018e-05
8.5002e-08
2.42396e-05
1.91997e-05
1.81162e-05
1.79711e-05
1.79074e-05
1.78908e-05
1.78975e-05
1.7906e-05
8.94581e-08
2.18223e-05
1.6777e-05
1.55164e-05
1.53037e-05
1.53073e-05
1.52965e-05
1.53065e-05
1.53077e-05
1.96422e-07
1.97319e-05
1.4717e-05
1.33568e-05
1.31271e-05
1.30969e-05
1.30804e-05
1.30942e-05
1.30968e-05
7.54068e-07
1.7974e-05
1.28571e-05
1.15465e-05
1.12962e-05
1.12466e-05
1.12178e-05
1.12382e-05
1.12417e-05
1.72994e-06
1.64946e-05
1.11442e-05
9.89294e-06
9.73273e-06
9.69284e-06
9.66976e-06
9.68125e-06
9.68601e-06
2.82112e-06
1.5234e-05
9.89148e-06
8.42852e-06
8.26658e-06
8.22275e-06
8.17964e-06
8.21106e-06
8.21575e-06
3.7994e-06
1.41409e-05
8.69584e-06
7.35505e-06
7.19957e-06
7.15367e-06
7.07703e-06
7.14324e-06
7.14848e-06
7.13432e-06
4.59465e-06
1.31562e-05
7.66365e-06
6.37665e-06
6.19532e-06
6.15085e-06
6.15742e-06
6.14159e-06
6.147e-06
6.13758e-06
5.22651e-06
1.21873e-05
6.77301e-06
5.53687e-06
5.35887e-06
5.31841e-06
5.36954e-06
5.30951e-06
5.31531e-06
5.3122e-06
5.75203e-06
1.12922e-05
6.11734e-06
4.83781e-06
4.66378e-06
4.62651e-06
4.66273e-06
4.6173e-06
4.62401e-06
4.62428e-06
6.18644e-06
1.05479e-05
5.4927e-06
4.25476e-06
4.0856e-06
4.0507e-06
4.07581e-06
4.04015e-06
4.04839e-06
4.04874e-06
6.55704e-06
9.83289e-06
4.93826e-06
3.76716e-06
3.60388e-06
3.57072e-06
3.58794e-06
3.55746e-06
3.56828e-06
3.56735e-06
6.86639e-06
9.15329e-06
4.45141e-06
3.35821e-06
3.20175e-06
3.16998e-06
3.18171e-06
3.15201e-06
3.16728e-06
3.16525e-06
7.1095e-06
8.44438e-06
4.08422e-06
3.01427e-06
2.86539e-06
2.83497e-06
2.84302e-06
2.80913e-06
2.83201e-06
2.82953e-06
7.28054e-06
7.81686e-06
3.73757e-06
2.7236e-06
2.58355e-06
2.55463e-06
2.56052e-06
2.55496e-06
2.55161e-06
2.54912e-06
7.37219e-06
7.23567e-06
3.4205e-06
2.47604e-06
2.34701e-06
2.31989e-06
2.32422e-06
2.31613e-06
2.31683e-06
2.31472e-06
7.37972e-06
6.62248e-06
3.14347e-06
2.28954e-06
2.14814e-06
2.1232e-06
2.12643e-06
2.11432e-06
2.12018e-06
2.11859e-06
7.30425e-06
6.04067e-06
2.90074e-06
2.11587e-06
1.98019e-06
1.95817e-06
1.96072e-06
1.96386e-06
1.9553e-06
1.95422e-06
7.15152e-06
5.55335e-06
2.68855e-06
1.98323e-06
1.8555e-06
1.83636e-06
1.83848e-06
1.84054e-06
1.8337e-06
1.83301e-06
6.92826e-06
5.10699e-06
2.5027e-06
1.86813e-06
1.75338e-06
1.72974e-06
1.73133e-06
1.73249e-06
1.72708e-06
1.72666e-06
6.64266e-06
4.68967e-06
2.33923e-06
1.77797e-06
1.67141e-06
1.6499e-06
1.6511e-06
1.65185e-06
1.64742e-06
1.64733e-06
6.30533e-06
4.29247e-06
2.21403e-06
1.70461e-06
1.60724e-06
1.58776e-06
1.5886e-06
1.58914e-06
1.58545e-06
1.58565e-06
)
;

boundaryField
{
    fuel
    {
        type            fixedValue;
        value           uniform 0;
    }
    wall
    {
        type            zeroGradient;
    }
    outlet
    {
        type            zeroGradient;
    }
    frontAndBack
    {
        type            empty;
    }
    procBoundary2to0
    {
        type            processor;
        value           nonuniform List<scalar> 
12
(
1.64662e-06
5.93557e-06
3.93011e-06
2.10713e-06
1.64826e-06
1.55873e-06
1.54113e-06
1.54166e-06
1.54213e-06
1.53899e-06
1.58484e-06
1.53943e-06
)
;
    }
    procBoundary2to3
    {
        type            processor;
        value           nonuniform List<scalar> 
25
(
2.22802e-05
2.56986e-05
2.37676e-05
2.07959e-05
1.78946e-05
1.53017e-05
1.30877e-05
1.12308e-05
9.67342e-06
8.20162e-06
8.20162e-06
7.14877e-06
6.14732e-06
5.31546e-06
4.62397e-06
4.04822e-06
3.56802e-06
3.16694e-06
2.83157e-06
2.55096e-06
2.31606e-06
2.11935e-06
1.95443e-06
1.83287e-06
1.72613e-06
)
;
    }
}


// ************************************************************************* //
