/*--------------------------------*- C++ -*----------------------------------*\
| =========                 |                                                 |
| \\      /  F ield         | OpenFOAM: The Open Source CFD Toolbox           |
|  \\    /   O peration     | Version:  dev                                   |
|   \\  /    A nd           | Web:      www.OpenFOAM.org                      |
|    \\/     M anipulation  |                                                 |
\*---------------------------------------------------------------------------*/
FoamFile
{
    version     2.0;
    format      ascii;
    class       volScalarField;
    location    "0.165";
    object      C6H;
}
// * * * * * * * * * * * * * * * * * * * * * * * * * * * * * * * * * * * * * //

dimensions      [0 0 0 0 0 0 0];

internalField   nonuniform List<scalar> 
250
(
6.28211e-12
1.29741e-08
1.62741e-08
1.65955e-08
1.66331e-08
1.66287e-08
1.66348e-08
1.66357e-08
1.66128e-08
5.14789e-12
9.9847e-09
1.12737e-08
1.13487e-08
1.13509e-08
1.13475e-08
1.13508e-08
1.13468e-08
1.1344e-08
2.31293e-12
5.76422e-09
6.39664e-09
6.41015e-09
6.40363e-09
6.40012e-09
6.40215e-09
6.39709e-09
6.39848e-09
1.38166e-12
3.27258e-09
3.69204e-09
3.69702e-09
3.68942e-09
3.68645e-09
3.68758e-09
3.68243e-09
3.68497e-09
9.16291e-13
1.95556e-09
2.30679e-09
2.32029e-09
2.31498e-09
2.31322e-09
2.3137e-09
2.30849e-09
2.31229e-09
6.4585e-13
1.24912e-09
1.57806e-09
1.57788e-09
1.56309e-09
1.56084e-09
1.56012e-09
1.5526e-09
1.56008e-09
5.35395e-13
8.5158e-10
1.17317e-09
1.1797e-09
1.16559e-09
1.16651e-09
1.16512e-09
1.15518e-09
1.16424e-09
5.83365e-13
6.15682e-10
9.20549e-10
9.42754e-10
9.26717e-10
9.19598e-10
9.16415e-10
9.16108e-10
9.21677e-10
6.73268e-13
4.69062e-10
7.65653e-10
7.81763e-10
7.73021e-10
7.68001e-10
7.63164e-10
7.60464e-10
7.6763e-10
7.7322e-13
3.74211e-10
6.44504e-10
6.61021e-10
6.51794e-10
6.47861e-10
6.501e-10
6.51371e-10
6.46219e-10
8.67789e-13
3.10935e-10
5.53157e-10
5.81586e-10
5.72044e-10
5.68566e-10
5.70056e-10
5.70384e-10
5.66281e-10
5.657e-10
9.91638e-13
2.67729e-10
4.89902e-10
5.14392e-10
5.02069e-10
4.98339e-10
4.99761e-10
4.99146e-10
4.95518e-10
5.00114e-10
1.2108e-12
2.3729e-10
4.38705e-10
4.56061e-10
4.43512e-10
4.39872e-10
4.40871e-10
4.39705e-10
4.36495e-10
4.38707e-10
1.64786e-12
2.11839e-10
3.93401e-10
4.06438e-10
3.93735e-10
3.90157e-10
3.90789e-10
3.89214e-10
3.91804e-10
3.92682e-10
2.52315e-12
1.96163e-10
3.52129e-10
3.63318e-10
3.50578e-10
3.47061e-10
3.47445e-10
3.45396e-10
3.48011e-10
3.47971e-10
4.00678e-12
1.84679e-10
3.16246e-10
3.25302e-10
3.12656e-10
3.09212e-10
3.09427e-10
3.06832e-10
3.09606e-10
3.09031e-10
6.21968e-12
1.75947e-10
2.84604e-10
2.91431e-10
2.79019e-10
2.75662e-10
2.75757e-10
2.72526e-10
2.75687e-10
2.74832e-10
9.26618e-12
1.689e-10
2.56377e-10
2.61009e-10
2.48968e-10
2.45717e-10
2.45735e-10
2.41692e-10
2.45507e-10
2.44515e-10
1.32576e-11
1.62558e-10
2.30949e-10
2.33495e-10
2.21964e-10
2.18837e-10
2.18836e-10
2.17166e-10
2.1848e-10
2.17418e-10
1.8283e-11
1.56651e-10
2.07852e-10
2.08452e-10
1.97566e-10
1.94582e-10
1.94575e-10
1.92449e-10
1.94121e-10
1.93033e-10
2.43265e-11
1.50192e-10
1.86724e-10
1.855e-10
1.75396e-10
1.72573e-10
1.72581e-10
1.69931e-10
1.72043e-10
1.70954e-10
3.11997e-11
1.42415e-10
1.67295e-10
1.64266e-10
1.55098e-10
1.5245e-10
1.52501e-10
1.51612e-10
1.51888e-10
1.50807e-10
3.85206e-11
1.35194e-10
1.49364e-10
1.46941e-10
1.38485e-10
1.3603e-10
1.36103e-10
1.35047e-10
1.35449e-10
1.34382e-10
4.56909e-11
1.27303e-10
1.32617e-10
1.30456e-10
1.2221e-10
1.19886e-10
1.1999e-10
1.18756e-10
1.19312e-10
1.18192e-10
5.20195e-11
1.18741e-10
1.18559e-10
1.15708e-10
1.08147e-10
1.0603e-10
1.06144e-10
1.04851e-10
1.0547e-10
1.04375e-10
5.68889e-11
1.0957e-10
1.04224e-10
1.02061e-10
9.51568e-11
9.32594e-11
9.33793e-11
9.2068e-11
9.2728e-11
9.16627e-11
)
;

boundaryField
{
    fuel
    {
        type            fixedValue;
        value           uniform 0;
    }
    wall
    {
        type            zeroGradient;
    }
    outlet
    {
        type            zeroGradient;
    }
    frontAndBack
    {
        type            empty;
    }
    procBoundary2to0
    {
        type            processor;
        value           nonuniform List<scalar> 
12
(
1.04488e-10
5.96494e-11
9.98164e-11
9.164e-11
8.93722e-11
8.31385e-11
8.14478e-11
8.15686e-11
8.02729e-11
8.0954e-11
9.18085e-11
7.99254e-11
)
;
    }
    procBoundary2to3
    {
        type            processor;
        value           nonuniform List<scalar> 
25
(
1.66073e-08
1.13404e-08
6.39372e-09
3.67656e-09
2.29436e-09
1.57094e-09
1.16961e-09
9.16265e-10
7.59393e-10
6.48829e-10
6.48829e-10
5.66499e-10
4.94127e-10
4.40801e-10
3.89897e-10
3.4604e-10
3.0778e-10
2.74025e-10
2.4398e-10
2.17057e-10
1.92796e-10
1.70816e-10
1.50754e-10
1.34387e-10
1.18263e-10
)
;
    }
}


// ************************************************************************* //
