/*--------------------------------*- C++ -*----------------------------------*\
| =========                 |                                                 |
| \\      /  F ield         | OpenFOAM: The Open Source CFD Toolbox           |
|  \\    /   O peration     | Version:  dev                                   |
|   \\  /    A nd           | Web:      www.OpenFOAM.org                      |
|    \\/     M anipulation  |                                                 |
\*---------------------------------------------------------------------------*/
FoamFile
{
    version     2.0;
    format      ascii;
    class       volScalarField;
    location    "0.165";
    object      CO2;
}
// * * * * * * * * * * * * * * * * * * * * * * * * * * * * * * * * * * * * * //

dimensions      [0 0 0 0 0 0 0];

internalField   nonuniform List<scalar> 
250
(
0.00399915
0.0385161
0.038494
0.0384591
0.0384539
0.038454
0.0384536
0.0384528
0.0384526
0.0109218
0.0466061
0.0461446
0.0460327
0.0460168
0.046016
0.0460145
0.046014
0.0460142
0.017839
0.0493601
0.0485121
0.0483188
0.0482909
0.0482883
0.0482861
0.0482847
0.0482856
0.0241148
0.050516
0.0493611
0.0490886
0.0490473
0.0490426
0.0490396
0.0490366
0.0490389
0.0293361
0.0510848
0.049679
0.0493323
0.0492763
0.0492691
0.0492652
0.0492597
0.0492648
0.0334468
0.0513915
0.049773
0.049358
0.0492843
0.0492746
0.0492691
0.0492601
0.0492697
0.0365933
0.0515521
0.0497565
0.0492807
0.0491888
0.0491776
0.04917
0.0491571
0.0491706
0.0390011
0.0516108
0.049672
0.0491492
0.0490376
0.0490163
0.0490051
0.0489985
0.0490108
0.0408657
0.0515977
0.0495515
0.0489747
0.0488564
0.0488328
0.0488177
0.0488084
0.0488238
0.0423409
0.05153
0.0493798
0.0487614
0.0486266
0.0486003
0.0486004
0.048601
0.048588
0.043537
0.0514188
0.0491799
0.0485646
0.0484161
0.0483872
0.0483869
0.0483864
0.0483725
0.0483675
0.0445298
0.051271
0.0489905
0.0483475
0.0481758
0.0481424
0.0481431
0.0481405
0.048125
0.0481413
0.0453723
0.0510888
0.0487936
0.0481154
0.0479302
0.0478938
0.0478938
0.0478894
0.0478735
0.047882
0.0460983
0.0508378
0.0485789
0.0478834
0.0476868
0.0476478
0.0476468
0.0476405
0.0476534
0.0476568
0.0467276
0.0506027
0.0483464
0.0476547
0.0474489
0.0474077
0.0474059
0.0473968
0.0474104
0.0474097
0.0472681
0.050352
0.0481139
0.047432
0.0472198
0.0471767
0.0471743
0.0471614
0.0471767
0.0471733
0.0477217
0.050089
0.0478849
0.0472179
0.0470019
0.0469574
0.0469543
0.0469366
0.0469554
0.0469505
0.0480889
0.0498168
0.047663
0.0470147
0.0467976
0.0467523
0.0467487
0.0467247
0.0467489
0.0467434
0.048371
0.0495327
0.0474513
0.0468246
0.0466093
0.0465636
0.0465598
0.046553
0.0465592
0.0465537
0.0485717
0.0492541
0.0472533
0.0466498
0.0464393
0.0463938
0.0463898
0.0463803
0.0463885
0.0463834
0.0486965
0.0489648
0.0470719
0.0464925
0.0462897
0.0462449
0.046241
0.0462283
0.046239
0.0462348
0.048754
0.048655
0.0469107
0.0463547
0.0461627
0.0461194
0.0461156
0.046115
0.0461131
0.0461101
0.0487561
0.0484056
0.0467732
0.0462543
0.0460729
0.0460316
0.0460278
0.0460275
0.046025
0.0460234
0.0487144
0.0481771
0.0466617
0.0461759
0.0460046
0.0459657
0.045962
0.0459624
0.0459591
0.0459591
0.0486418
0.0479737
0.046588
0.0461266
0.0459686
0.0459328
0.0459289
0.0459309
0.0459263
0.0459283
0.0485515
0.0477996
0.0465387
0.0461061
0.045962
0.0459299
0.0459259
0.04593
0.0459238
0.0459281
)
;

boundaryField
{
    fuel
    {
        type            fixedValue;
        value           uniform 0;
    }
    wall
    {
        type            zeroGradient;
    }
    outlet
    {
        type            zeroGradient;
    }
    frontAndBack
    {
        type            empty;
    }
    procBoundary2to0
    {
        type            processor;
        value           nonuniform List<scalar> 
12
(
0.0459256
0.0484562
0.0476576
0.0465228
0.0461153
0.0459867
0.0459583
0.045954
0.0459607
0.0459525
0.0459252
0.0459594
)
;
    }
    procBoundary2to3
    {
        type            processor;
        value           nonuniform List<scalar> 
25
(
0.0384519
0.0460135
0.0482842
0.0490362
0.0492607
0.049266
0.0491656
0.0489968
0.0488034
0.0485906
0.0485906
0.0483734
0.0481195
0.0478937
0.0476424
0.0473985
0.0471651
0.0469443
0.0467384
0.0465494
0.0463797
0.0462315
0.0461071
0.0460206
0.0459564
)
;
    }
}


// ************************************************************************* //
