/*--------------------------------*- C++ -*----------------------------------*\
| =========                 |                                                 |
| \\      /  F ield         | OpenFOAM: The Open Source CFD Toolbox           |
|  \\    /   O peration     | Version:  dev                                   |
|   \\  /    A nd           | Web:      www.OpenFOAM.org                      |
|    \\/     M anipulation  |                                                 |
\*---------------------------------------------------------------------------*/
FoamFile
{
    version     2.0;
    format      ascii;
    class       volScalarField;
    location    "0.165";
    object      HCO;
}
// * * * * * * * * * * * * * * * * * * * * * * * * * * * * * * * * * * * * * //

dimensions      [0 0 0 0 0 0 0];

internalField   nonuniform List<scalar> 
250
(
5.62841e-09
9.95751e-06
9.4389e-06
9.3935e-06
9.39061e-06
9.38701e-06
9.38757e-06
9.39062e-06
9.37617e-06
3.3947e-09
4.71368e-06
4.5742e-06
4.56551e-06
4.56473e-06
4.56337e-06
4.56421e-06
4.56427e-06
4.56169e-06
1.5264e-09
1.9706e-06
1.97044e-06
1.9786e-06
1.97907e-06
1.97838e-06
1.97917e-06
1.9786e-06
1.9784e-06
1.12846e-09
8.58504e-07
8.77483e-07
8.89122e-07
8.8996e-07
8.89658e-07
8.90205e-07
8.89682e-07
8.89897e-07
1.19019e-09
4.24779e-07
4.47711e-07
4.60603e-07
4.62095e-07
4.62146e-07
4.62514e-07
4.62129e-07
4.62401e-07
1.84347e-09
2.42857e-07
2.71908e-07
2.80603e-07
2.80221e-07
2.80151e-07
2.80283e-07
2.79571e-07
2.80278e-07
5.08314e-09
1.5776e-07
1.93873e-07
2.03259e-07
2.03289e-07
2.03782e-07
2.03841e-07
2.02778e-07
2.0363e-07
2.21568e-08
1.13742e-07
1.53975e-07
1.65503e-07
1.65463e-07
1.6483e-07
1.64672e-07
1.6497e-07
1.65367e-07
7.92095e-08
8.89268e-08
1.33412e-07
1.44256e-07
1.45212e-07
1.44931e-07
1.44572e-07
1.44478e-07
1.45119e-07
1.61036e-07
7.39949e-08
1.1983e-07
1.30945e-07
1.31905e-07
1.31796e-07
1.32122e-07
1.32352e-07
1.31822e-07
1.98768e-07
6.45885e-08
1.10988e-07
1.23375e-07
1.24357e-07
1.24317e-07
1.24527e-07
1.24608e-07
1.24262e-07
1.24284e-07
1.66671e-07
5.85336e-08
1.05534e-07
1.17705e-07
1.18503e-07
1.18456e-07
1.18633e-07
1.18593e-07
1.18329e-07
1.18724e-07
1.14147e-07
5.46858e-08
1.01514e-07
1.13155e-07
1.13944e-07
1.13905e-07
1.14036e-07
1.13923e-07
1.13706e-07
1.13888e-07
7.57424e-08
5.21041e-08
9.81945e-08
1.09391e-07
1.10137e-07
1.10095e-07
1.10191e-07
1.10024e-07
1.1026e-07
1.10326e-07
5.30156e-08
5.10393e-08
9.52819e-08
1.06066e-07
1.06742e-07
1.06691e-07
1.06764e-07
1.06535e-07
1.06791e-07
1.06775e-07
4.02497e-08
5.08219e-08
9.27551e-08
1.02981e-07
1.03565e-07
1.03501e-07
1.03559e-07
1.03256e-07
1.0355e-07
1.0348e-07
3.32381e-08
5.12118e-08
9.04544e-08
1.00014e-07
1.00488e-07
1.00407e-07
1.00454e-07
1.00059e-07
1.0042e-07
1.00313e-07
2.95244e-08
5.20188e-08
8.82664e-08
9.70813e-08
9.74347e-08
9.7334e-08
9.73746e-08
9.68548e-08
9.73206e-08
9.71853e-08
2.77722e-08
5.31057e-08
8.61044e-08
9.41219e-08
9.43478e-08
9.42249e-08
9.42646e-08
9.39894e-08
9.41914e-08
9.403e-08
2.73013e-08
5.42719e-08
8.38973e-08
9.10824e-08
9.11797e-08
9.10328e-08
9.10727e-08
9.06987e-08
9.09812e-08
9.07949e-08
2.7773e-08
5.54745e-08
8.15861e-08
8.79103e-08
8.7885e-08
8.77125e-08
8.77553e-08
8.72589e-08
8.7645e-08
8.7433e-08
2.89804e-08
5.66326e-08
7.91207e-08
8.45458e-08
8.44146e-08
8.42151e-08
8.42656e-08
8.40521e-08
8.41348e-08
8.38952e-08
3.07353e-08
5.73566e-08
7.64577e-08
8.14063e-08
8.1157e-08
8.09383e-08
8.09934e-08
8.07187e-08
8.08461e-08
8.05807e-08
3.28261e-08
5.77256e-08
7.35362e-08
7.79745e-08
7.74768e-08
7.72179e-08
7.72807e-08
7.69309e-08
7.71167e-08
7.6804e-08
3.50065e-08
5.76722e-08
7.06797e-08
7.44581e-08
7.38354e-08
7.35583e-08
7.36246e-08
7.32247e-08
7.3449e-08
7.31078e-08
3.7036e-08
5.71432e-08
6.72827e-08
7.07393e-08
6.99968e-08
6.9705e-08
6.9775e-08
6.93306e-08
6.95907e-08
6.92212e-08
)
;

boundaryField
{
    fuel
    {
        type            fixedValue;
        value           uniform 0;
    }
    wall
    {
        type            zeroGradient;
    }
    outlet
    {
        type            zeroGradient;
    }
    frontAndBack
    {
        type            empty;
    }
    procBoundary2to0
    {
        type            processor;
        value           nonuniform List<scalar> 
12
(
7.31675e-08
3.86234e-08
5.60698e-08
6.38533e-08
6.68106e-08
6.59601e-08
6.56578e-08
6.57305e-08
6.52488e-08
6.55406e-08
6.92922e-08
6.51452e-08
)
;
    }
    procBoundary2to3
    {
        type            processor;
        value           nonuniform List<scalar> 
25
(
9.37533e-06
4.56137e-06
1.9779e-06
8.88671e-07
4.59002e-07
2.83035e-07
2.05045e-07
1.65055e-07
1.44452e-07
1.32208e-07
1.32208e-07
1.24269e-07
1.18211e-07
1.14029e-07
1.10108e-07
1.06627e-07
1.03385e-07
1.00255e-07
9.71497e-08
9.40108e-08
9.07894e-08
8.74407e-08
8.39164e-08
8.06131e-08
7.68519e-08
)
;
    }
}


// ************************************************************************* //
