/*--------------------------------*- C++ -*----------------------------------*\
| =========                 |                                                 |
| \\      /  F ield         | OpenFOAM: The Open Source CFD Toolbox           |
|  \\    /   O peration     | Version:  dev                                   |
|   \\  /    A nd           | Web:      www.OpenFOAM.org                      |
|    \\/     M anipulation  |                                                 |
\*---------------------------------------------------------------------------*/
FoamFile
{
    version     2.0;
    format      ascii;
    class       volVectorField;
    location    "0.165";
    object      U;
}
// * * * * * * * * * * * * * * * * * * * * * * * * * * * * * * * * * * * * * //

dimensions      [0 1 -1 0 0 0 0];

internalField   nonuniform List<vector> 
12
(
(4.70339e-13 -4.70339e-13 0.0806141)
(4.65391e-13 -4.65391e-13 0.0826386)
(4.60347e-13 -4.60347e-13 0.0851341)
(4.55216e-13 -4.55216e-13 0.0880015)
(4.50006e-13 -4.50006e-13 0.0904973)
(4.44727e-13 -4.44727e-13 0.0929868)
(4.39388e-13 -4.39388e-13 0.0954255)
(4.33993e-13 -4.33993e-13 0.0979023)
(4.28548e-13 -4.28548e-13 0.100522)
(4.23052e-13 -4.23052e-13 0.103202)
(4.17505e-13 -4.17505e-13 0.10584)
(4.11907e-13 -4.11907e-13 0.108462)
)
;

boundaryField
{
    wall
    {
        type            zeroGradient;
    }
    fuel
    {
        type            fixedValue;
        value           nonuniform 0();
    }
    outlet
    {
        type            pressureInletOutletVelocity;
        value           nonuniform 0();
    }
    procBoundary2to1
    {
        type            processor;
        value           uniform (4.75182e-13 -4.75182e-13 0.0781299);
    }
    procBoundary2to3
    {
        type            processor;
        value           uniform (4.06259e-13 -4.06259e-13 0.11106);
    }
}


// ************************************************************************* //
