/*--------------------------------*- C++ -*----------------------------------*\
| =========                 |                                                 |
| \\      /  F ield         | OpenFOAM: The Open Source CFD Toolbox           |
|  \\    /   O peration     | Version:  dev                                   |
|   \\  /    A nd           | Web:      www.OpenFOAM.org                      |
|    \\/     M anipulation  |                                                 |
\*---------------------------------------------------------------------------*/
FoamFile
{
    version     2.0;
    format      ascii;
    class       volVectorField;
    location    "0.185";
    object      U;
}
// * * * * * * * * * * * * * * * * * * * * * * * * * * * * * * * * * * * * * //

dimensions      [0 1 -1 0 0 0 0];

internalField   nonuniform List<vector> 
13
(
(8.13018e-14 -8.13018e-14 0.112234)
(7.45109e-14 -7.45109e-14 0.112902)
(6.77714e-14 -6.77714e-14 0.11353)
(6.10887e-14 -6.10887e-14 0.114083)
(5.4484e-14 -5.4484e-14 0.114633)
(4.79889e-14 -4.79889e-14 0.115121)
(4.15528e-14 -4.15528e-14 0.115573)
(3.52652e-14 -3.52652e-14 0.115813)
(2.90546e-14 -2.90546e-14 0.115938)
(2.24029e-14 -2.24029e-14 0.116172)
(1.60244e-14 -1.60244e-14 0.117602)
(1.0409e-14 -1.0409e-14 0.124186)
(6.07955e-15 -6.07955e-15 0.13956)
)
;

boundaryField
{
    wall
    {
        type            zeroGradient;
    }
    fuel
    {
        type            fixedValue;
        value           nonuniform 0();
    }
    outlet
    {
        type            pressureInletOutletVelocity;
        value           uniform (6.07955e-15 -6.07955e-15 0.13956);
    }
    procBoundary7to6
    {
        type            processor;
        value           uniform (8.81943e-14 -8.81943e-14 0.111555);
    }
}


// ************************************************************************* //
