/*--------------------------------*- C++ -*----------------------------------*\
| =========                 |                                                 |
| \\      /  F ield         | OpenFOAM: The Open Source CFD Toolbox           |
|  \\    /   O peration     | Version:  dev                                   |
|   \\  /    A nd           | Web:      www.OpenFOAM.org                      |
|    \\/     M anipulation  |                                                 |
\*---------------------------------------------------------------------------*/
FoamFile
{
    version     2.0;
    format      ascii;
    class       volVectorField;
    location    "0.03";
    object      U;
}
// * * * * * * * * * * * * * * * * * * * * * * * * * * * * * * * * * * * * * //

dimensions      [0 1 -1 0 0 0 0];

internalField   nonuniform List<vector> 
12
(
(2.06344e-14 -2.06344e-14 0.098777)
(1.84849e-14 -1.84849e-14 0.097627)
(1.63897e-14 -1.63897e-14 0.097751)
(1.45206e-14 -1.45206e-14 0.0972346)
(1.27783e-14 -1.27783e-14 0.0959928)
(1.12552e-14 -1.12552e-14 0.0953775)
(9.89195e-15 -9.89195e-15 0.0954573)
(8.63293e-15 -8.63293e-15 0.0933835)
(7.61891e-15 -7.61891e-15 0.0920354)
(6.69946e-15 -6.69946e-15 0.0933636)
(5.74112e-15 -5.74112e-15 0.0910792)
(4.98705e-15 -4.98705e-15 0.0892594)
)
;

boundaryField
{
    wall
    {
        type            zeroGradient;
    }
    fuel
    {
        type            fixedValue;
        value           nonuniform 0();
    }
    outlet
    {
        type            pressureInletOutletVelocity;
        value           nonuniform 0();
    }
    procBoundary6to5
    {
        type            processor;
        value           uniform (2.30217e-14 -2.30217e-14 0.0999439);
    }
    procBoundary6to7
    {
        type            processor;
        value           uniform (4.28516e-15 -4.28516e-15 0.0894645);
    }
}


// ************************************************************************* //
