/*--------------------------------*- C++ -*----------------------------------*\
| =========                 |                                                 |
| \\      /  F ield         | OpenFOAM: The Open Source CFD Toolbox           |
|  \\    /   O peration     | Version:  dev                                   |
|   \\  /    A nd           | Web:      www.OpenFOAM.org                      |
|    \\/     M anipulation  |                                                 |
\*---------------------------------------------------------------------------*/
FoamFile
{
    version     2.0;
    format      ascii;
    class       volVectorField;
    location    "0.155";
    object      U;
}
// * * * * * * * * * * * * * * * * * * * * * * * * * * * * * * * * * * * * * //

dimensions      [0 1 -1 0 0 0 0];

internalField   nonuniform List<vector> 
12
(
(3.23136e-13 -3.23136e-13 0.096464)
(3.16796e-13 -3.16796e-13 0.0974992)
(3.10427e-13 -3.10427e-13 0.0985804)
(3.04028e-13 -3.04028e-13 0.0995796)
(2.97603e-13 -2.97603e-13 0.100665)
(2.91149e-13 -2.91149e-13 0.101825)
(2.84667e-13 -2.84667e-13 0.102862)
(2.78157e-13 -2.78157e-13 0.103884)
(2.71613e-13 -2.71613e-13 0.105084)
(2.65032e-13 -2.65032e-13 0.106288)
(2.58415e-13 -2.58415e-13 0.107339)
(2.51764e-13 -2.51764e-13 0.108363)
)
;

boundaryField
{
    wall
    {
        type            zeroGradient;
    }
    fuel
    {
        type            fixedValue;
        value           nonuniform 0();
    }
    outlet
    {
        type            pressureInletOutletVelocity;
        value           nonuniform 0();
    }
    procBoundary4to3
    {
        type            processor;
        value           uniform (3.29444e-13 -3.29444e-13 0.0954261);
    }
    procBoundary4to5
    {
        type            processor;
        value           uniform (2.45082e-13 -2.45082e-13 0.109324);
    }
}


// ************************************************************************* //
