/*--------------------------------*- C++ -*----------------------------------*\
| =========                 |                                                 |
| \\      /  F ield         | OpenFOAM: The Open Source CFD Toolbox           |
|  \\    /   O peration     | Version:  dev                                   |
|   \\  /    A nd           | Web:      www.OpenFOAM.org                      |
|    \\/     M anipulation  |                                                 |
\*---------------------------------------------------------------------------*/
FoamFile
{
    version     2.0;
    format      ascii;
    class       volScalarField;
    location    "0.1";
    object      AR;
}
// * * * * * * * * * * * * * * * * * * * * * * * * * * * * * * * * * * * * * //

dimensions      [0 0 0 0 0 0 0];

internalField   nonuniform List<scalar> 
100
(
0.685262
0.673995
0.663481
0.65327
0.64321
0.633241
0.623341
0.613503
0.603707
0.593974
0.584311
0.574757
0.565282
0.555856
0.546541
0.537304
0.528147
0.519068
0.510066
0.501137
0.49228
0.483494
0.474777
0.466128
0.457546
0.449033
0.440588
0.43221
0.423904
0.41567
0.407506
0.399414
0.391391
0.383437
0.375551
0.367731
0.359976
0.352285
0.344659
0.337098
0.32955
0.322034
0.314667
0.307363
0.300126
0.292952
0.285841
0.278781
0.271784
0.264843
0.257956
0.251063
0.244293
0.23747
0.230716
0.224031
0.217544
0.211061
0.204594
0.198343
0.19217
0.186072
0.180049
0.174101
0.16812
0.16231
0.156567
0.15089
0.145285
0.139642
0.134179
0.128777
0.123421
0.118092
0.112775
0.107477
0.102118
0.0967382
0.0914613
0.0865327
0.0817031
0.0769662
0.072311
0.0677425
0.0632227
0.0585946
0.0543373
0.0501435
0.0460182
0.0419592
0.0379793
0.0340833
0.030257
0.0264267
0.0227278
0.0188548
0.0150604
0.0108953
0.0068952
0.00385388
)
;

boundaryField
{
    front
    {
        type            wedge;
    }
    back
    {
        type            wedge;
    }
    wall
    {
        type            zeroGradient;
    }
    fuel
    {
        type            fixedValue;
        value           uniform 0.6926;
    }
    outlet
    {
        type            inletOutlet;
        inletValue      uniform 0;
        value           uniform 0.00385388;
    }
    axis
    {
        type            empty;
    }
}


// ************************************************************************* //
