/*--------------------------------*- C++ -*----------------------------------*\
| =========                 |                                                 |
| \\      /  F ield         | OpenFOAM: The Open Source CFD Toolbox           |
|  \\    /   O peration     | Version:  dev                                   |
|   \\  /    A nd           | Web:      www.OpenFOAM.org                      |
|    \\/     M anipulation  |                                                 |
\*---------------------------------------------------------------------------*/
FoamFile
{
    version     2.0;
    format      ascii;
    class       volScalarField;
    location    "0.1";
    object      C2H5;
}
// * * * * * * * * * * * * * * * * * * * * * * * * * * * * * * * * * * * * * //

dimensions      [0 0 0 0 0 0 0];

internalField   nonuniform List<scalar> 
100
(
3.58214e-08
7.32116e-08
7.85836e-08
7.14082e-08
6.01086e-08
4.81212e-08
3.70774e-08
2.78368e-08
2.05847e-08
1.51454e-08
1.1184e-08
8.32867e-09
6.28668e-09
4.833e-09
3.78726e-09
3.02649e-09
2.46491e-09
2.04331e-09
1.72109e-09
1.47044e-09
1.27232e-09
1.11356e-09
9.85152e-10
8.80702e-10
7.95699e-10
7.26937e-10
6.72197e-10
6.30025e-10
5.99584e-10
5.80619e-10
5.73463e-10
5.79093e-10
5.99197e-10
6.36268e-10
6.93712e-10
7.76059e-10
8.88552e-10
1.03792e-09
1.23186e-09
1.47984e-09
1.79524e-09
2.18535e-09
2.6664e-09
3.25719e-09
3.96801e-09
4.82092e-09
5.84098e-09
7.04236e-09
8.46793e-09
1.01207e-08
1.20421e-08
1.42617e-08
1.68076e-08
1.97321e-08
2.30656e-08
2.68168e-08
3.09309e-08
3.54944e-08
4.05649e-08
4.59617e-08
5.17507e-08
5.78761e-08
6.42626e-08
7.08167e-08
7.74086e-08
8.38935e-08
9.01585e-08
9.59615e-08
1.01193e-07
1.0579e-07
1.09517e-07
1.12366e-07
1.14287e-07
1.15262e-07
1.15303e-07
1.14441e-07
1.12726e-07
1.10231e-07
1.07043e-07
1.03152e-07
9.89497e-08
9.4349e-08
8.94623e-08
8.42755e-08
7.90788e-08
7.38075e-08
6.85175e-08
6.32501e-08
5.80232e-08
5.28338e-08
4.76156e-08
4.24372e-08
3.73351e-08
3.22073e-08
2.75169e-08
2.25754e-08
1.77315e-08
1.25005e-08
7.53079e-09
3.51371e-09
)
;

boundaryField
{
    wall
    {
        type            zeroGradient;
    }
    fuel
    {
        type            fixedValue;
        value           uniform 0;
    }
    outlet
    {
        type            inletOutlet;
        inletValue      uniform 0;
        value           uniform 3.51371e-09;
    }
}


// ************************************************************************* //
