/*--------------------------------*- C++ -*----------------------------------*\
| =========                 |                                                 |
| \\      /  F ield         | OpenFOAM: The Open Source CFD Toolbox           |
|  \\    /   O peration     | Version:  dev                                   |
|   \\  /    A nd           | Web:      www.OpenFOAM.org                      |
|    \\/     M anipulation  |                                                 |
\*---------------------------------------------------------------------------*/
FoamFile
{
    version     2.0;
    format      ascii;
    class       volScalarField;
    location    "0.1";
    object      CH2CO;
}
// * * * * * * * * * * * * * * * * * * * * * * * * * * * * * * * * * * * * * //

dimensions      [0 0 0 0 0 0 0];

internalField   nonuniform List<scalar> 
100
(
6.56021e-06
1.45168e-05
1.81224e-05
1.88367e-05
1.77307e-05
1.56544e-05
1.32342e-05
1.08987e-05
8.84854e-06
7.15485e-06
5.80845e-06
4.75608e-06
3.93856e-06
3.31083e-06
2.8266e-06
2.45049e-06
2.15477e-06
1.91825e-06
1.72507e-06
1.5636e-06
1.42548e-06
1.3048e-06
1.19754e-06
1.10088e-06
1.01289e-06
9.32184e-07
8.57804e-07
7.89099e-07
7.25508e-07
6.66582e-07
6.11931e-07
5.61228e-07
5.1419e-07
4.70571e-07
4.3016e-07
3.92706e-07
3.58174e-07
3.26279e-07
2.96861e-07
2.69878e-07
2.44977e-07
2.22428e-07
2.01894e-07
1.83133e-07
1.66253e-07
1.51025e-07
1.37275e-07
1.25021e-07
1.13989e-07
1.0428e-07
9.56688e-08
8.80491e-08
8.13789e-08
7.55261e-08
7.04411e-08
6.60927e-08
6.24807e-08
5.94467e-08
5.69053e-08
5.48842e-08
5.32684e-08
5.20008e-08
5.10275e-08
5.02931e-08
4.97533e-08
4.93623e-08
4.90754e-08
4.88569e-08
4.86662e-08
4.84617e-08
4.82107e-08
4.78739e-08
4.74225e-08
4.68399e-08
4.61234e-08
4.52804e-08
4.43244e-08
4.32705e-08
4.21289e-08
4.0874e-08
3.96008e-08
3.82507e-08
3.68291e-08
3.53053e-08
3.37417e-08
3.21016e-08
3.03906e-08
2.86058e-08
2.67434e-08
2.48027e-08
2.2751e-08
2.06171e-08
1.84218e-08
1.61216e-08
1.3937e-08
1.15559e-08
9.15373e-09
6.49998e-09
3.9356e-09
1.84128e-09
)
;

boundaryField
{
    wall
    {
        type            zeroGradient;
    }
    fuel
    {
        type            fixedValue;
        value           uniform 0;
    }
    outlet
    {
        type            inletOutlet;
        inletValue      uniform 0;
        value           uniform 1.84128e-09;
    }
}


// ************************************************************************* //
