/*--------------------------------*- C++ -*----------------------------------*\
| =========                 |                                                 |
| \\      /  F ield         | OpenFOAM: The Open Source CFD Toolbox           |
|  \\    /   O peration     | Version:  dev                                   |
|   \\  /    A nd           | Web:      www.OpenFOAM.org                      |
|    \\/     M anipulation  |                                                 |
\*---------------------------------------------------------------------------*/
FoamFile
{
    version     2.0;
    format      ascii;
    class       volScalarField;
    location    "0.1";
    object      i-C6H5;
}
// * * * * * * * * * * * * * * * * * * * * * * * * * * * * * * * * * * * * * //

dimensions      [0 0 0 0 0 0 0];

internalField   nonuniform List<scalar> 
100
(
1.68788e-12
5.22733e-12
6.85962e-12
6.84568e-12
5.82043e-12
4.39746e-12
3.04935e-12
1.98645e-12
1.24686e-12
7.67029e-13
4.67778e-13
2.85707e-13
1.75873e-13
1.09766e-13
7.01656e-14
4.62461e-14
3.168e-14
2.26986e-14
1.70515e-14
1.33897e-14
1.09032e-14
9.10781e-15
7.71969e-15
6.5777e-15
5.59546e-15
4.73032e-15
3.96299e-15
3.28625e-15
2.69849e-15
2.19737e-15
1.7797e-15
1.44079e-15
1.17487e-15
9.757e-16
8.37237e-16
7.54265e-16
7.22812e-16
7.40411e-16
8.06134e-16
9.20933e-16
1.08785e-15
1.31063e-15
1.58969e-15
1.93213e-15
2.34226e-15
2.82421e-15
3.38105e-15
4.01485e-15
4.72296e-15
5.501e-15
6.33891e-15
7.22816e-15
8.13295e-15
9.04858e-15
9.92075e-15
1.07121e-14
1.13712e-14
1.18845e-14
1.22172e-14
1.23402e-14
1.2255e-14
1.19666e-14
1.14914e-14
1.08568e-14
1.0078e-14
9.21979e-15
8.31203e-15
7.39127e-15
6.49016e-15
5.61759e-15
4.8256e-15
4.10917e-15
3.47369e-15
2.91961e-15
2.44402e-15
2.04262e-15
1.70065e-15
1.41268e-15
1.17996e-15
1.00143e-15
8.58133e-16
7.43081e-16
6.50164e-16
5.74442e-16
5.11283e-16
4.55888e-16
4.11271e-16
3.71986e-16
3.36497e-16
3.03652e-16
2.73104e-16
2.44236e-16
2.16487e-16
1.89034e-16
1.6266e-16
1.35075e-16
1.08015e-16
7.82383e-17
4.9567e-17
2.77242e-17
)
;

boundaryField
{
    front
    {
        type            wedge;
    }
    back
    {
        type            wedge;
    }
    wall
    {
        type            zeroGradient;
    }
    fuel
    {
        type            fixedValue;
        value           uniform 0;
    }
    outlet
    {
        type            inletOutlet;
        inletValue      uniform 0;
        value           uniform 2.77242e-17;
    }
    axis
    {
        type            empty;
    }
}


// ************************************************************************* //
