/*--------------------------------*- C++ -*----------------------------------*\
| =========                 |                                                 |
| \\      /  F ield         | OpenFOAM: The Open Source CFD Toolbox           |
|  \\    /   O peration     | Version:  dev                                   |
|   \\  /    A nd           | Web:      www.OpenFOAM.org                      |
|    \\/     M anipulation  |                                                 |
\*---------------------------------------------------------------------------*/
FoamFile
{
    version     2.0;
    format      ascii;
    class       volScalarField;
    location    "0.14";
    object      A1C2H3*;
}
// * * * * * * * * * * * * * * * * * * * * * * * * * * * * * * * * * * * * * //

dimensions      [0 0 0 0 0 0 0];

internalField   nonuniform List<scalar> 
250
(
6.6159e-12
6.61983e-12
6.62456e-12
6.61763e-12
6.61742e-12
6.74347e-12
7.16081e-12
9.64433e-12
2.23782e-11
1.56026e-10
6.44495e-12
6.44711e-12
6.45182e-12
6.44578e-12
6.44726e-12
6.55822e-12
6.95296e-12
9.18386e-12
2.00795e-11
1.22936e-10
2.59452e-11
1.66816e-11
8.34781e-12
6.87431e-12
6.44762e-12
6.36271e-12
6.35203e-12
6.35859e-12
6.34866e-12
6.35224e-12
6.34302e-12
6.34334e-12
6.34837e-12
6.34228e-12
6.34565e-12
6.44191e-12
6.81566e-12
8.80788e-12
1.80986e-11
9.90838e-11
2.2748e-11
1.48548e-11
8.09725e-12
6.78541e-12
6.40226e-12
6.32414e-12
6.31447e-12
6.32199e-12
6.31006e-12
6.31576e-12
6.30786e-12
6.30639e-12
6.31205e-12
6.30509e-12
6.31044e-12
6.39264e-12
6.7468e-12
8.51525e-12
1.64082e-11
7.95494e-11
2.0253e-11
1.33437e-11
7.93739e-12
6.76382e-12
6.42136e-12
6.34904e-12
6.34017e-12
6.34908e-12
6.33506e-12
6.34323e-12
6.33637e-12
6.33325e-12
6.3397e-12
6.33134e-12
6.33867e-12
6.40774e-12
6.74313e-12
8.30366e-12
1.49823e-11
6.466e-11
1.82945e-11
1.23296e-11
7.86063e-12
6.80535e-12
6.50055e-12
6.43304e-12
6.42478e-12
6.43514e-12
6.41918e-12
6.4299e-12
6.42386e-12
6.41919e-12
6.42654e-12
6.41662e-12
6.42582e-12
6.48303e-12
6.79979e-12
8.16907e-12
1.38667e-11
5.21862e-11
1.676e-11
1.15796e-11
7.85674e-12
6.90357e-12
6.63324e-12
6.56967e-12
6.56181e-12
6.57334e-12
6.55581e-12
6.56891e-12
6.56348e-12
6.55701e-12
6.56568e-12
6.55437e-12
6.56521e-12
6.6122e-12
6.90975e-12
8.10485e-12
1.29486e-11
4.15211e-11
1.55693e-11
1.10415e-11
7.91415e-12
7.04962e-12
6.8107e-12
6.75034e-12
6.74268e-12
6.75494e-12
6.7363e-12
6.7514e-12
6.7464e-12
6.73701e-12
6.74825e-12
6.73594e-12
6.7481e-12
6.78677e-12
7.06387e-12
8.1025e-12
1.22079e-11
3.4457e-11
1.46564e-11
1.06705e-11
8.02221e-12
7.23399e-12
7.0266e-12
6.96952e-12
6.96198e-12
6.97556e-12
6.95565e-12
6.97287e-12
6.96773e-12
6.9556e-12
6.9694e-12
6.95598e-12
6.96882e-12
7.00009e-12
7.25215e-12
8.15288e-12
1.16175e-11
2.86514e-11
1.39655e-11
1.04298e-11
8.16827e-12
7.44804e-12
7.26323e-12
7.20941e-12
7.20184e-12
7.21513e-12
7.19503e-12
7.21333e-12
7.20847e-12
7.19538e-12
7.20996e-12
7.19658e-12
7.20999e-12
7.23664e-12
7.46708e-12
8.24811e-12
1.11281e-11
2.42407e-11
1.34549e-11
1.0295e-11
8.34251e-12
7.69081e-12
7.52737e-12
7.47715e-12
7.46972e-12
7.48329e-12
7.4625e-12
7.4824e-12
7.47755e-12
7.46413e-12
7.47888e-12
7.46529e-12
7.47915e-12
7.50145e-12
7.70998e-12
8.3783e-12
1.07815e-11
2.08204e-11
1.31051e-11
1.02616e-11
8.57063e-12
7.97841e-12
7.83854e-12
7.79253e-12
7.78579e-12
7.8014e-12
7.77824e-12
7.80168e-12
7.79633e-12
7.78167e-12
7.79744e-12
7.78241e-12
7.79712e-12
7.81337e-12
8.00093e-12
8.56466e-12
1.05644e-11
1.82112e-11
1.29346e-11
1.03598e-11
8.90497e-12
8.36134e-12
8.25374e-12
8.21283e-12
8.20812e-12
8.22975e-12
8.20029e-12
8.23207e-12
8.22513e-12
8.20657e-12
8.22583e-12
8.20617e-12
8.22316e-12
8.22787e-12
8.39721e-12
8.85215e-12
1.05217e-11
1.62966e-11
8.90033e-12
8.87232e-12
8.90034e-12
8.86933e-12
8.89205e-12
8.87284e-12
9.02995e-12
9.35128e-12
1.07682e-11
1.50393e-11
)
;

boundaryField
{
    fuel
    {
        type            fixedValue;
        value           nonuniform 0();
    }
    wall
    {
        type            zeroGradient;
    }
    outlet
    {
        type            zeroGradient;
    }
    frontAndBack
    {
        type            empty;
    }
    procBoundary0to1
    {
        type            processor;
        value           nonuniform List<scalar> 
21
(
1.30224e-11
1.06825e-11
9.46889e-12
8.95783e-12
8.90228e-12
8.86728e-12
8.86774e-12
8.90302e-12
8.85942e-12
8.90935e-12
8.90935e-12
1.00793e-11
1.00329e-11
1.00783e-11
1.00252e-11
1.00602e-11
9.99532e-12
1.01526e-11
1.0286e-11
1.15322e-11
1.45278e-11
)
;
    }
    procBoundary0to2
    {
        type            processor;
        value           nonuniform List<scalar> 
12
(
6.62894e-12
3.04083e-11
1.88924e-11
8.69648e-12
7.03289e-12
6.56018e-12
6.46759e-12
6.45565e-12
6.46209e-12
6.45381e-12
6.45586e-12
6.45586e-12
)
;
    }
    procBoundary0to3
    {
        type            processor;
        value           nonuniform List<scalar> 10(6.85811e-12 6.86353e-12 6.86841e-12 6.85999e-12 6.85828e-12 7.00008e-12 7.44086e-12 1.029e-11 2.50108e-11 1.93197e-10);
    }
}


// ************************************************************************* //
