/*--------------------------------*- C++ -*----------------------------------*\
| =========                 |                                                 |
| \\      /  F ield         | OpenFOAM: The Open Source CFD Toolbox           |
|  \\    /   O peration     | Version:  dev                                   |
|   \\  /    A nd           | Web:      www.OpenFOAM.org                      |
|    \\/     M anipulation  |                                                 |
\*---------------------------------------------------------------------------*/
FoamFile
{
    version     2.0;
    format      ascii;
    class       volScalarField;
    location    "0.14";
    object      A2R5;
}
// * * * * * * * * * * * * * * * * * * * * * * * * * * * * * * * * * * * * * //

dimensions      [0 0 0 0 0 0 0];

internalField   nonuniform List<scalar> 
50
(
1.41955e-10
1.01367e-10
5.45165e-11
3.12593e-11
2.01349e-11
1.4699e-11
1.19652e-11
1.05565e-11
9.77404e-12
9.28775e-12
8.92237e-12
8.58957e-12
8.24775e-12
7.88032e-12
7.48396e-12
7.06211e-12
6.62126e-12
6.16898e-12
5.7129e-12
5.2602e-12
4.81752e-12
4.40001e-12
4.00081e-12
3.61831e-12
3.26283e-12
2.93242e-12
2.62726e-12
2.34214e-12
2.07885e-12
1.83998e-12
1.63081e-12
1.44283e-12
1.27104e-12
1.11805e-12
9.82455e-13
8.62751e-13
7.5738e-13
6.64827e-13
5.83664e-13
5.12578e-13
4.50372e-13
3.9597e-13
3.484e-13
3.06795e-13
2.70374e-13
2.38442e-13
2.10382e-13
1.85674e-13
1.63933e-13
1.44924e-13
)
;

boundaryField
{
    wall
    {
        type            zeroGradient;
    }
    fuel
    {
        type            fixedValue;
        value           uniform 0;
    }
    outlet
    {
        type            inletOutlet;
        inletValue      nonuniform 0();
        value           nonuniform 0();
    }
    procBoundary0to1
    {
        type            processor;
        value           uniform 1.28816e-13;
    }
}


// ************************************************************************* //
