/*--------------------------------*- C++ -*----------------------------------*\
| =========                 |                                                 |
| \\      /  F ield         | OpenFOAM: The Open Source CFD Toolbox           |
|  \\    /   O peration     | Version:  dev                                   |
|   \\  /    A nd           | Web:      www.OpenFOAM.org                      |
|    \\/     M anipulation  |                                                 |
\*---------------------------------------------------------------------------*/
FoamFile
{
    version     2.0;
    format      ascii;
    class       volScalarField;
    location    "0.14";
    object      CH4;
}
// * * * * * * * * * * * * * * * * * * * * * * * * * * * * * * * * * * * * * //

dimensions      [0 0 0 0 0 0 0];

internalField   nonuniform List<scalar> 
50
(
0.000786955
0.000619321
0.000441851
0.000343591
0.000286378
0.000247453
0.000217063
0.000191463
0.000168526
0.000147731
0.000128704
0.000111253
9.53033e-05
8.08428e-05
6.78804e-05
5.64155e-05
4.64196e-05
3.783e-05
3.0552e-05
2.44675e-05
1.94457e-05
1.54406e-05
1.22021e-05
9.57451e-06
7.49969e-06
5.85879e-06
4.56831e-06
3.54123e-06
2.73142e-06
2.10175e-06
1.62733e-06
1.26026e-06
9.71134e-07
7.48427e-07
5.7718e-07
4.45625e-07
3.44578e-07
2.66922e-07
2.0718e-07
1.61157e-07
1.25647e-07
9.82031e-08
7.6956e-08
6.04759e-08
4.76665e-08
3.76858e-08
2.98855e-08
2.37693e-08
1.89662e-08
1.52083e-08
)
;

boundaryField
{
    wall
    {
        type            zeroGradient;
    }
    fuel
    {
        type            fixedValue;
        value           uniform 0;
    }
    outlet
    {
        type            inletOutlet;
        inletValue      nonuniform 0();
        value           nonuniform 0();
    }
    procBoundary0to1
    {
        type            processor;
        value           uniform 1.23204e-08;
    }
}


// ************************************************************************* //
