/*--------------------------------*- C++ -*----------------------------------*\
| =========                 |                                                 |
| \\      /  F ield         | OpenFOAM: The Open Source CFD Toolbox           |
|  \\    /   O peration     | Version:  dev                                   |
|   \\  /    A nd           | Web:      www.OpenFOAM.org                      |
|    \\/     M anipulation  |                                                 |
\*---------------------------------------------------------------------------*/
FoamFile
{
    version     2.0;
    format      ascii;
    class       volScalarField;
    location    "0.14";
    object      H2;
}
// * * * * * * * * * * * * * * * * * * * * * * * * * * * * * * * * * * * * * //

dimensions      [0 0 0 0 0 0 0];

internalField   nonuniform List<scalar> 
250
(
0.00914519
0.0091436
0.00914429
0.00914243
0.00914167
0.00913428
0.00910196
0.00904134
0.00883751
0.00873823
0.00917377
0.00917231
0.00917303
0.00917107
0.00917031
0.00916342
0.00913205
0.00907589
0.00888369
0.00877943
0.00813048
0.00892665
0.00905744
0.00917898
0.00917908
0.00920272
0.00919459
0.00920135
0.00919867
0.00920124
0.00920026
0.00919888
0.00919963
0.00919758
0.00919684
0.00919037
0.00916015
0.00910675
0.0089265
0.00881932
0.00821691
0.00897199
0.00909112
0.00920432
0.00920493
0.00922687
0.00921944
0.00922576
0.00922323
0.00922562
0.00922476
0.00922341
0.00922418
0.00922206
0.00922135
0.00921521
0.00918636
0.00913573
0.00897065
0.00885817
0.00832208
0.00901506
0.00912283
0.00922777
0.0092288
0.00924909
0.00924234
0.00924823
0.00924586
0.00924807
0.00924736
0.00924601
0.0092468
0.00924463
0.00924395
0.00923809
0.00921079
0.00916293
0.00901416
0.008896
0.0084304
0.00905804
0.00915259
0.00924945
0.00925075
0.00926953
0.00926342
0.00926889
0.00926667
0.00926872
0.00926816
0.00926679
0.00926761
0.00926541
0.00926475
0.00925913
0.00923355
0.0091884
0.00905024
0.00893265
0.008537
0.00909596
0.00918048
0.00926949
0.00927089
0.00928831
0.00928279
0.00928787
0.00928577
0.00928769
0.00928727
0.00928587
0.00928674
0.00928451
0.00928387
0.00927845
0.00925474
0.00921222
0.00908408
0.00896821
0.008641
0.0091318
0.00920659
0.00928799
0.0092907
0.00930552
0.00930052
0.00930525
0.00930322
0.00930508
0.00930479
0.00930332
0.00930426
0.00930201
0.00930139
0.00929611
0.00927448
0.00923445
0.00911591
0.00900276
0.0087429
0.00916446
0.00923092
0.00930495
0.00930781
0.00932122
0.00931715
0.00932111
0.00931959
0.00932094
0.00932075
0.00931967
0.00932025
0.00931841
0.00931783
0.00931289
0.00929271
0.0092562
0.00914589
0.00903633
0.0088298
0.0091969
0.00925344
0.00932036
0.00932337
0.0093354
0.00933186
0.00933542
0.009334
0.00933528
0.00933518
0.0093341
0.0093347
0.00933291
0.00933236
0.00932772
0.00930941
0.00927623
0.00917409
0.00906887
0.00890868
0.00922456
0.00927614
0.00933418
0.00933737
0.009348
0.009345
0.00934815
0.00934688
0.00934803
0.00934801
0.00934696
0.00934755
0.00934587
0.00934534
0.00934102
0.00932452
0.00929398
0.00920049
0.00910025
0.00897944
0.00924947
0.00929518
0.00934629
0.00934971
0.00935893
0.00935648
0.0093592
0.00935811
0.00935912
0.00935916
0.00935817
0.00935872
0.00935718
0.00935667
0.0093527
0.00933794
0.00931002
0.00922501
0.00913076
0.00904252
0.00927154
0.00931211
0.00935657
0.00936025
0.00936806
0.00936617
0.00936843
0.00936756
0.0093684
0.00936849
0.00936759
0.00936808
0.0093667
0.00936622
0.0093626
0.00934955
0.00932419
0.00924751
0.00915941
0.00937588
0.00937511
0.0093755
0.00937431
0.00937386
0.00937059
0.00935919
0.00933631
0.00926782
0.00918635
)
;

boundaryField
{
    fuel
    {
        type            fixedValue;
        value           nonuniform 0();
    }
    wall
    {
        type            zeroGradient;
    }
    outlet
    {
        type            zeroGradient;
    }
    frontAndBack
    {
        type            empty;
    }
    procBoundary0to1
    {
        type            processor;
        value           nonuniform List<scalar> 
21
(
0.00909821
0.00929067
0.00932677
0.00936487
0.00936885
0.00937527
0.00937393
0.00937573
0.00937508
0.00937575
0.00937575
0.00938124
0.0093806
0.00938089
0.0093799
0.00937947
0.00937655
0.00936674
0.00934624
0.00928576
0.00921128
)
;
    }
    procBoundary0to2
    {
        type            processor;
        value           nonuniform List<scalar> 
12
(
0.00914626
0.00805005
0.00888102
0.0090219
0.00915165
0.00915115
0.00917654
0.00916768
0.00917489
0.00917207
0.00917483
0.00917483
)
;
    }
    procBoundary0to3
    {
        type            processor;
        value           nonuniform List<scalar> 10(0.00911442 0.00911267 0.00911332 0.00911159 0.00911083 0.00910302 0.0090697 0.00900686 0.00878819 0.00869552);
    }
}


// ************************************************************************* //
