/*--------------------------------*- C++ -*----------------------------------*\
| =========                 |                                                 |
| \\      /  F ield         | OpenFOAM: The Open Source CFD Toolbox           |
|  \\    /   O peration     | Version:  dev                                   |
|   \\  /    A nd           | Web:      www.OpenFOAM.org                      |
|    \\/     M anipulation  |                                                 |
\*---------------------------------------------------------------------------*/
FoamFile
{
    version     2.0;
    format      ascii;
    class       volScalarField;
    location    "0.14";
    object      HCCOH;
}
// * * * * * * * * * * * * * * * * * * * * * * * * * * * * * * * * * * * * * //

dimensions      [0 0 0 0 0 0 0];

internalField   nonuniform List<scalar> 
50
(
4.54891e-05
6.58912e-05
5.19337e-05
3.6918e-05
2.60197e-05
1.87023e-05
1.37863e-05
1.04225e-05
7.9997e-06
6.21446e-06
4.86304e-06
3.81816e-06
2.99889e-06
2.35145e-06
1.83823e-06
1.43159e-06
1.11026e-06
8.5737e-07
6.59281e-07
5.04895e-07
3.85195e-07
2.94878e-07
2.25412e-07
1.71534e-07
1.30665e-07
9.94919e-08
7.57674e-08
5.74465e-08
4.33955e-08
3.27423e-08
2.48968e-08
1.89543e-08
1.43666e-08
1.08987e-08
8.27877e-09
6.29931e-09
4.80271e-09
3.66972e-09
2.81055e-09
2.15777e-09
1.6608e-09
1.28165e-09
9.91791e-10
7.69705e-10
5.99149e-10
4.67817e-10
3.66369e-10
2.87745e-10
2.26717e-10
1.79523e-10
)
;

boundaryField
{
    wall
    {
        type            zeroGradient;
    }
    fuel
    {
        type            fixedValue;
        value           uniform 0;
    }
    outlet
    {
        type            inletOutlet;
        inletValue      nonuniform 0();
        value           nonuniform 0();
    }
    procBoundary0to1
    {
        type            processor;
        value           uniform 1.43625e-10;
    }
}


// ************************************************************************* //
