/*--------------------------------*- C++ -*----------------------------------*\
| =========                 |                                                 |
| \\      /  F ield         | OpenFOAM: The Open Source CFD Toolbox           |
|  \\    /   O peration     | Version:  dev                                   |
|   \\  /    A nd           | Web:      www.OpenFOAM.org                      |
|    \\/     M anipulation  |                                                 |
\*---------------------------------------------------------------------------*/
FoamFile
{
    version     2.0;
    format      ascii;
    class       volScalarField;
    location    "0.14";
    object      p;
}
// * * * * * * * * * * * * * * * * * * * * * * * * * * * * * * * * * * * * * //

dimensions      [1 -1 -2 0 0 0 0];

internalField   nonuniform List<scalar> 
250
(
99997.6
99997.5
99997.3
99997.2
99996.8
99997.2
99996.4
99998.7
99995.1
100003
99997.7
99997.5
99997.3
99997.2
99996.8
99997.2
99996.4
99998.6
99995.3
100003
100000
99999.2
99998.9
99998.5
99998.3
99998.2
99998.1
99998
99997.9
99997.8
99997.7
99997.5
99997.3
99997.2
99996.9
99997.2
99996.5
99998.6
99995.5
100003
100000
99999.2
99998.9
99998.5
99998.3
99998.2
99998.1
99998
99997.9
99997.8
99997.7
99997.6
99997.3
99997.2
99996.9
99997.2
99996.5
99998.6
99995.6
100003
99999.9
99999.2
99998.9
99998.6
99998.4
99998.2
99998.1
99998
99997.9
99997.8
99997.7
99997.6
99997.3
99997.2
99996.9
99997.2
99996.6
99998.5
99995.8
100003
99999.9
99999.2
99998.9
99998.6
99998.4
99998.2
99998.1
99998
99997.9
99997.9
99997.7
99997.6
99997.3
99997.3
99996.9
99997.2
99996.6
99998.5
99996
100003
99999.9
99999.3
99998.9
99998.6
99998.4
99998.2
99998.1
99998
99997.9
99997.9
99997.7
99997.6
99997.4
99997.3
99996.9
99997.2
99996.6
99998.4
99996.1
100002
99999.9
99999.3
99998.9
99998.6
99998.4
99998.2
99998.1
99998
99998
99997.9
99997.7
99997.6
99997.4
99997.3
99996.9
99997.2
99996.7
99998.4
99996.3
100002
99999.9
99999.3
99998.9
99998.6
99998.4
99998.2
99998.1
99998.1
99998
99997.9
99997.8
99997.6
99997.4
99997.3
99997
99997.2
99996.7
99998.4
99996.4
100002
99999.9
99999.3
99999
99998.6
99998.4
99998.3
99998.2
99998.1
99998
99997.9
99997.8
99997.6
99997.4
99997.3
99997
99997.2
99996.7
99998.4
99996.5
100002
99999.9
99999.3
99999
99998.6
99998.4
99998.3
99998.2
99998.1
99998
99997.9
99997.8
99997.7
99997.4
99997.3
99997
99997.3
99996.8
99998.3
99996.6
100002
99999.9
99999.3
99999
99998.6
99998.4
99998.3
99998.2
99998.1
99998
99997.9
99997.8
99997.7
99997.4
99997.3
99997
99997.3
99996.8
99998.3
99996.7
100002
99999.9
99999.3
99999
99998.6
99998.4
99998.3
99998.2
99998.1
99998
99997.9
99997.8
99997.7
99997.4
99997.3
99997
99997.3
99996.8
99998.3
99996.8
100002
99997.8
99997.7
99997.5
99997.3
99997
99997.3
99996.8
99998.3
99996.9
100002
)
;

boundaryField
{
    fuel
    {
        type            zeroGradient;
    }
    wall
    {
        type            zeroGradient;
    }
    outlet
    {
        type            totalPressure;
        rho             none;
        psi             none;
        gamma           1;
        p0              uniform 100000;
        value           uniform 100000;
    }
    frontAndBack
    {
        type            empty;
    }
    procBoundary0to1
    {
        type            processor;
        value           nonuniform List<scalar> 
21
(
99999.9
99999.3
99999
99998.6
99998.4
99998.3
99998.2
99998.1
99998
99998
99998
99997.8
99997.7
99997.5
99997.3
99997
99997.3
99996.8
99998.3
99997
100002
)
;
    }
    procBoundary0to2
    {
        type            processor;
        value           nonuniform List<scalar> 
12
(
99997.8
100000
99999.2
99998.9
99998.5
99998.3
99998.2
99998
99998
99997.9
99997.8
99997.8
)
;
    }
    procBoundary0to3
    {
        type            processor;
        value           nonuniform List<scalar> 10(99997.6 99997.5 99997.3 99997.2 99996.8 99997.2 99996.3 99998.8 99994.9 100003);
    }
}


// ************************************************************************* //
