/*--------------------------------*- C++ -*----------------------------------*\
| =========                 |                                                 |
| \\      /  F ield         | OpenFOAM: The Open Source CFD Toolbox           |
|  \\    /   O peration     | Version:  dev                                   |
|   \\  /    A nd           | Web:      www.OpenFOAM.org                      |
|    \\/     M anipulation  |                                                 |
\*---------------------------------------------------------------------------*/
FoamFile
{
    version     2.0;
    format      ascii;
    class       volScalarField;
    location    "0.14";
    object      P2;
}
// * * * * * * * * * * * * * * * * * * * * * * * * * * * * * * * * * * * * * //

dimensions      [0 0 0 0 0 0 0];

internalField   nonuniform List<scalar> 
250
(
1.86378e-10
1.86211e-10
1.8655e-10
1.86033e-10
1.86257e-10
1.90879e-10
2.11896e-10
3.51404e-10
1.82902e-09
3.88466e-08
1.8554e-10
1.8531e-10
1.8566e-10
1.85094e-10
1.85411e-10
1.89365e-10
2.09675e-10
3.3511e-10
1.55851e-09
2.97796e-08
2.37055e-09
1.04485e-09
2.96043e-10
2.09475e-10
1.91733e-10
1.88215e-10
1.87856e-10
1.88731e-10
1.8795e-10
1.88636e-10
1.88232e-10
1.8792e-10
1.88305e-10
1.87642e-10
1.88068e-10
1.91359e-10
2.11161e-10
3.23923e-10
1.33834e-09
2.31155e-08
1.98592e-09
8.73783e-10
2.91967e-10
2.13737e-10
1.97789e-10
1.94449e-10
1.94137e-10
1.9519e-10
1.94213e-10
1.951e-10
1.94725e-10
1.94318e-10
1.94758e-10
1.93948e-10
1.94501e-10
1.97126e-10
2.16607e-10
3.17975e-10
1.16163e-09
1.7597e-08
1.68411e-09
7.46955e-10
2.94003e-10
2.22237e-10
2.07985e-10
2.04773e-10
2.04501e-10
2.05779e-10
2.04573e-10
2.05711e-10
2.05351e-10
2.04842e-10
2.05351e-10
2.04349e-10
2.05047e-10
2.07002e-10
2.26321e-10
3.17415e-10
1.02253e-09
1.34105e-08
1.45477e-09
6.70923e-10
3.02119e-10
2.35296e-10
2.22656e-10
2.19521e-10
2.1928e-10
2.20816e-10
2.19356e-10
2.20787e-10
2.20432e-10
2.19819e-10
2.20404e-10
2.19175e-10
2.20036e-10
2.21324e-10
2.40606e-10
3.22376e-10
9.20729e-10
9.9897e-09
1.28622e-09
6.22741e-10
3.16133e-10
2.5315e-10
2.42017e-10
2.38917e-10
2.38695e-10
2.40491e-10
2.38775e-10
2.40524e-10
2.40163e-10
2.3943e-10
2.40111e-10
2.38644e-10
2.39681e-10
2.4033e-10
2.59642e-10
3.32845e-10
8.43426e-10
7.20187e-09
1.16703e-09
5.95963e-10
3.3563e-10
2.758e-10
2.66028e-10
2.62932e-10
2.62712e-10
2.64738e-10
2.62785e-10
2.64848e-10
2.64479e-10
2.63486e-10
2.64405e-10
2.62716e-10
2.63934e-10
2.64019e-10
2.83339e-10
3.48569e-10
7.87442e-10
5.46069e-09
1.08635e-09
5.85539e-10
3.61178e-10
3.02876e-10
2.95165e-10
2.92082e-10
2.9186e-10
2.94301e-10
2.92003e-10
2.94481e-10
2.94002e-10
2.92476e-10
2.93925e-10
2.91915e-10
2.93259e-10
2.92695e-10
3.11173e-10
3.68898e-10
7.47898e-10
4.12979e-09
1.03428e-09
5.87057e-10
3.91481e-10
3.3337e-10
3.26603e-10
3.2353e-10
3.23271e-10
3.25821e-10
3.23387e-10
3.26081e-10
3.2558e-10
3.23738e-10
3.25493e-10
3.2337e-10
3.24831e-10
3.23988e-10
3.42024e-10
3.95492e-10
7.19591e-10
3.1905e-09
1.00182e-09
5.96281e-10
4.21357e-10
3.65705e-10
3.59519e-10
3.56456e-10
3.56142e-10
3.58683e-10
3.56212e-10
3.59005e-10
3.58493e-10
3.56572e-10
3.58407e-10
3.56272e-10
3.57795e-10
3.56881e-10
3.74217e-10
4.22055e-10
7.00602e-10
2.51072e-09
9.80898e-10
6.09223e-10
4.50619e-10
3.97841e-10
3.91874e-10
3.88844e-10
3.88463e-10
3.90874e-10
3.8847e-10
3.91222e-10
3.90715e-10
3.88853e-10
3.90637e-10
3.88605e-10
3.90122e-10
3.89357e-10
4.05698e-10
4.48679e-10
6.86314e-10
2.01802e-09
9.64534e-10
6.22148e-10
4.76952e-10
4.27581e-10
4.21538e-10
4.1858e-10
4.18132e-10
4.20311e-10
4.18069e-10
4.20645e-10
4.20158e-10
4.18447e-10
4.20091e-10
4.18271e-10
4.19709e-10
4.19283e-10
4.34344e-10
4.73188e-10
6.73843e-10
1.65825e-09
4.45076e-10
4.43579e-10
4.45017e-10
4.4349e-10
4.44787e-10
4.44819e-10
4.58378e-10
4.9365e-10
6.6104e-10
1.39216e-09
)
;

boundaryField
{
    fuel
    {
        type            fixedValue;
        value           nonuniform 0();
    }
    wall
    {
        type            zeroGradient;
    }
    outlet
    {
        type            zeroGradient;
    }
    frontAndBack
    {
        type            empty;
    }
    procBoundary0to1
    {
        type            processor;
        value           nonuniform List<scalar> 
21
(
9.47183e-10
6.31925e-10
4.98416e-10
4.52985e-10
4.46704e-10
4.4387e-10
4.43366e-10
4.45242e-10
4.43236e-10
4.45534e-10
4.45534e-10
4.6441e-10
4.63155e-10
4.64351e-10
4.63155e-10
4.64268e-10
4.64788e-10
4.76706e-10
5.08773e-10
6.46644e-10
1.19213e-09
)
;
    }
    procBoundary0to2
    {
        type            processor;
        value           nonuniform List<scalar> 
12
(
1.86891e-10
2.87218e-09
1.27354e-09
3.06346e-10
2.09134e-10
1.8948e-10
1.85736e-10
1.85322e-10
1.86078e-10
1.85453e-10
1.85989e-10
1.85989e-10
)
;
    }
    procBoundary0to3
    {
        type            processor;
        value           nonuniform List<scalar> 10(1.90573e-10 1.90451e-10 1.90791e-10 1.90285e-10 1.90435e-10 1.95736e-10 2.17673e-10 3.76381e-10 2.15597e-09 4.8676e-08);
    }
}


// ************************************************************************* //
