/*--------------------------------*- C++ -*----------------------------------*\
| =========                 |                                                 |
| \\      /  F ield         | OpenFOAM: The Open Source CFD Toolbox           |
|  \\    /   O peration     | Version:  dev                                   |
|   \\  /    A nd           | Web:      www.OpenFOAM.org                      |
|    \\/     M anipulation  |                                                 |
\*---------------------------------------------------------------------------*/
FoamFile
{
    version     2.0;
    format      ascii;
    class       volScalarField;
    location    "0.08";
    object      A1C2H*;
}
// * * * * * * * * * * * * * * * * * * * * * * * * * * * * * * * * * * * * * //

dimensions      [0 0 0 0 0 0 0];

internalField   nonuniform List<scalar> 
25
(
1.51904e-16
1.3179e-16
1.13802e-16
9.73245e-17
8.16771e-17
6.67838e-17
5.34907e-17
4.12262e-17
3.06228e-17
2.17159e-17
1.46249e-17
9.31271e-18
5.58887e-18
3.15625e-18
1.67873e-18
8.43957e-19
4.03429e-19
1.846e-19
8.11703e-20
3.41573e-20
1.35369e-20
4.93289e-21
1.63987e-21
5.29101e-22
1.92664e-22
)
;

boundaryField
{
    wall
    {
        type            zeroGradient;
    }
    fuel
    {
        type            fixedValue;
        value           nonuniform 0();
    }
    outlet
    {
        type            inletOutlet;
        inletValue      uniform 0;
        value           uniform 1.92664e-22;
    }
    procBoundary3to2
    {
        type            processor;
        value           uniform 1.74959e-16;
    }
}


// ************************************************************************* //
