/*--------------------------------*- C++ -*----------------------------------*\
| =========                 |                                                 |
| \\      /  F ield         | OpenFOAM: The Open Source CFD Toolbox           |
|  \\    /   O peration     | Version:  dev                                   |
|   \\  /    A nd           | Web:      www.OpenFOAM.org                      |
|    \\/     M anipulation  |                                                 |
\*---------------------------------------------------------------------------*/
FoamFile
{
    version     2.0;
    format      ascii;
    class       volScalarField;
    location    "0.08";
    object      A4;
}
// * * * * * * * * * * * * * * * * * * * * * * * * * * * * * * * * * * * * * //

dimensions      [0 0 0 0 0 0 0];

internalField   nonuniform List<scalar> 
1989
(
5.14736e-08
5.14744e-08
5.14751e-08
5.14757e-08
5.14762e-08
5.14766e-08
5.14769e-08
5.14772e-08
5.14774e-08
5.14775e-08
5.14777e-08
5.14778e-08
5.14778e-08
5.14778e-08
5.14778e-08
5.14778e-08
5.14778e-08
5.14777e-08
5.14775e-08
5.14774e-08
5.14772e-08
5.14769e-08
5.14766e-08
5.14762e-08
5.14757e-08
5.14751e-08
5.14744e-08
5.14736e-08
5.14726e-08
5.14714e-08
5.14696e-08
5.14676e-08
5.14647e-08
5.1461e-08
5.14552e-08
5.14459e-08
5.14348e-08
5.14176e-08
5.14021e-08
5.14193e-08
5.14341e-08
5.14505e-08
5.14611e-08
5.147e-08
5.14754e-08
5.1479e-08
5.14818e-08
5.14838e-08
5.14855e-08
5.14866e-08
5.14877e-08
5.14885e-08
5.14891e-08
5.14897e-08
5.14902e-08
5.14906e-08
5.14909e-08
5.14912e-08
5.14914e-08
5.14915e-08
5.14916e-08
5.14917e-08
5.14918e-08
5.14918e-08
5.14918e-08
5.14918e-08
5.14917e-08
5.14916e-08
5.14915e-08
5.14913e-08
5.14911e-08
5.14909e-08
5.14906e-08
5.14902e-08
5.14897e-08
5.14891e-08
5.14885e-08
5.14877e-08
5.14867e-08
5.14855e-08
5.14838e-08
5.14818e-08
5.14791e-08
5.14755e-08
5.147e-08
5.14611e-08
5.14506e-08
5.14341e-08
5.14194e-08
5.14364e-08
5.14505e-08
5.14661e-08
5.14761e-08
5.14847e-08
5.14898e-08
5.14933e-08
5.14959e-08
5.14979e-08
5.14995e-08
5.15006e-08
5.15016e-08
5.15024e-08
5.15031e-08
5.15036e-08
5.15041e-08
5.15045e-08
5.15048e-08
5.1505e-08
5.15052e-08
5.15054e-08
5.15055e-08
5.15056e-08
5.15056e-08
5.15057e-08
5.15057e-08
5.15056e-08
5.15056e-08
5.15055e-08
5.15054e-08
5.15052e-08
5.1505e-08
5.15047e-08
5.15044e-08
5.15041e-08
5.15036e-08
5.1503e-08
5.15024e-08
5.15016e-08
5.15007e-08
5.14995e-08
5.14979e-08
5.1496e-08
5.14933e-08
5.14899e-08
5.14847e-08
5.14762e-08
5.14662e-08
5.14505e-08
5.14365e-08
5.14533e-08
5.14667e-08
5.14816e-08
5.14911e-08
5.14992e-08
5.15041e-08
5.15074e-08
5.151e-08
5.15118e-08
5.15134e-08
5.15145e-08
5.15155e-08
5.15162e-08
5.15168e-08
5.15174e-08
5.15178e-08
5.15182e-08
5.15185e-08
5.15187e-08
5.15189e-08
5.15191e-08
5.15192e-08
5.15193e-08
5.15193e-08
5.15194e-08
5.15194e-08
5.15193e-08
5.15193e-08
5.15192e-08
5.15191e-08
5.15189e-08
5.15187e-08
5.15185e-08
5.15182e-08
5.15178e-08
5.15174e-08
5.15168e-08
5.15162e-08
5.15155e-08
5.15146e-08
5.15134e-08
5.15118e-08
5.151e-08
5.15075e-08
5.15041e-08
5.14992e-08
5.14911e-08
5.14817e-08
5.14668e-08
5.14534e-08
5.14696e-08
5.14822e-08
5.14965e-08
5.15054e-08
5.1513e-08
5.15177e-08
5.15209e-08
5.15233e-08
5.15251e-08
5.15266e-08
5.15276e-08
5.15286e-08
5.15293e-08
5.15299e-08
5.15304e-08
5.15309e-08
5.15312e-08
5.15315e-08
5.15318e-08
5.15319e-08
5.15321e-08
5.15322e-08
5.15323e-08
5.15324e-08
5.15324e-08
5.15324e-08
5.15324e-08
5.15323e-08
5.15322e-08
5.15321e-08
5.15319e-08
5.15318e-08
5.15315e-08
5.15312e-08
5.15308e-08
5.15304e-08
5.15299e-08
5.15293e-08
5.15286e-08
5.15277e-08
5.15266e-08
5.15251e-08
5.15233e-08
5.15209e-08
5.15177e-08
5.1513e-08
5.15054e-08
5.14965e-08
5.14823e-08
5.14696e-08
5.14851e-08
5.14971e-08
5.15107e-08
5.15191e-08
5.15263e-08
5.15308e-08
5.15338e-08
5.15361e-08
5.15378e-08
5.15393e-08
5.15403e-08
5.15412e-08
5.15419e-08
5.15425e-08
5.1543e-08
5.15434e-08
5.15438e-08
5.15441e-08
5.15443e-08
5.15445e-08
5.15446e-08
5.15447e-08
5.15448e-08
5.15449e-08
5.15449e-08
5.15449e-08
5.15449e-08
5.15448e-08
5.15447e-08
5.15446e-08
5.15445e-08
5.15443e-08
5.15441e-08
5.15438e-08
5.15434e-08
5.1543e-08
5.15425e-08
5.15419e-08
5.15412e-08
5.15404e-08
5.15393e-08
5.15379e-08
5.15362e-08
5.15338e-08
5.15308e-08
5.15263e-08
5.15192e-08
5.15108e-08
5.14971e-08
5.14851e-08
5.14998e-08
5.15112e-08
5.15241e-08
5.1532e-08
5.15387e-08
5.15429e-08
5.15458e-08
5.1548e-08
5.15497e-08
5.1551e-08
5.15521e-08
5.15529e-08
5.15536e-08
5.15542e-08
5.15547e-08
5.15551e-08
5.15554e-08
5.15557e-08
5.15559e-08
5.15561e-08
5.15562e-08
5.15563e-08
5.15564e-08
5.15565e-08
5.15565e-08
5.15565e-08
5.15565e-08
5.15564e-08
5.15563e-08
5.15562e-08
5.15561e-08
5.15559e-08
5.15557e-08
5.15554e-08
5.1555e-08
5.15547e-08
5.15542e-08
5.15536e-08
5.15529e-08
5.15521e-08
5.1551e-08
5.15497e-08
5.15481e-08
5.15459e-08
5.1543e-08
5.15387e-08
5.1532e-08
5.15241e-08
5.15112e-08
5.14998e-08
5.15137e-08
5.15246e-08
5.15366e-08
5.15441e-08
5.15504e-08
5.15544e-08
5.15571e-08
5.15593e-08
5.15608e-08
5.15621e-08
5.15631e-08
5.15639e-08
5.15646e-08
5.15651e-08
5.15656e-08
5.1566e-08
5.15663e-08
5.15666e-08
5.15668e-08
5.1567e-08
5.15671e-08
5.15672e-08
5.15673e-08
5.15674e-08
5.15674e-08
5.15674e-08
5.15674e-08
5.15673e-08
5.15672e-08
5.15671e-08
5.1567e-08
5.15668e-08
5.15666e-08
5.15663e-08
5.1566e-08
5.15656e-08
5.15651e-08
5.15646e-08
5.1564e-08
5.15632e-08
5.15621e-08
5.15608e-08
5.15593e-08
5.15572e-08
5.15544e-08
5.15504e-08
5.15442e-08
5.15367e-08
5.15246e-08
5.15138e-08
5.15268e-08
5.15371e-08
5.15483e-08
5.15554e-08
5.15612e-08
5.1565e-08
5.15676e-08
5.15696e-08
5.1571e-08
5.15723e-08
5.15733e-08
5.15741e-08
5.15747e-08
5.15752e-08
5.15757e-08
5.1576e-08
5.15764e-08
5.15766e-08
5.15768e-08
5.1577e-08
5.15772e-08
5.15773e-08
5.15773e-08
5.15774e-08
5.15774e-08
5.15774e-08
5.15774e-08
5.15773e-08
5.15773e-08
5.15771e-08
5.1577e-08
5.15768e-08
5.15766e-08
5.15764e-08
5.1576e-08
5.15757e-08
5.15752e-08
5.15747e-08
5.15741e-08
5.15733e-08
5.15723e-08
5.15711e-08
5.15696e-08
5.15676e-08
5.1565e-08
5.15612e-08
5.15554e-08
5.15483e-08
5.15371e-08
5.15269e-08
5.15389e-08
5.15485e-08
5.15589e-08
5.15656e-08
5.1571e-08
5.15746e-08
5.1577e-08
5.15789e-08
5.15803e-08
5.15815e-08
5.15824e-08
5.15832e-08
5.15838e-08
5.15843e-08
5.15847e-08
5.15851e-08
5.15854e-08
5.15856e-08
5.15859e-08
5.1586e-08
5.15862e-08
5.15863e-08
5.15863e-08
5.15864e-08
5.15864e-08
5.15864e-08
5.15864e-08
5.15863e-08
5.15863e-08
5.15862e-08
5.1586e-08
5.15859e-08
5.15856e-08
5.15854e-08
5.15851e-08
5.15847e-08
5.15843e-08
5.15837e-08
5.15832e-08
5.15824e-08
5.15815e-08
5.15803e-08
5.15789e-08
5.1577e-08
5.15746e-08
5.1571e-08
5.15656e-08
5.15589e-08
5.15485e-08
5.15389e-08
5.15497e-08
5.15588e-08
5.15684e-08
5.15745e-08
5.15796e-08
5.15829e-08
5.15852e-08
5.1587e-08
5.15884e-08
5.15895e-08
5.15904e-08
5.15911e-08
5.15917e-08
5.15922e-08
5.15926e-08
5.1593e-08
5.15933e-08
5.15935e-08
5.15937e-08
5.15939e-08
5.1594e-08
5.15941e-08
5.15942e-08
5.15942e-08
5.15943e-08
5.15943e-08
5.15942e-08
5.15942e-08
5.15941e-08
5.1594e-08
5.15939e-08
5.15937e-08
5.15935e-08
5.15932e-08
5.15929e-08
5.15926e-08
5.15922e-08
5.15917e-08
5.15911e-08
5.15904e-08
5.15895e-08
5.15884e-08
5.15871e-08
5.15853e-08
5.1583e-08
5.15796e-08
5.15746e-08
5.15684e-08
5.15589e-08
5.15498e-08
5.15593e-08
5.15678e-08
5.15767e-08
5.15825e-08
5.15872e-08
5.15903e-08
5.15925e-08
5.15942e-08
5.15954e-08
5.15965e-08
5.15974e-08
5.15981e-08
5.15986e-08
5.15991e-08
5.15995e-08
5.15998e-08
5.16001e-08
5.16004e-08
5.16006e-08
5.16007e-08
5.16009e-08
5.1601e-08
5.1601e-08
5.16011e-08
5.16011e-08
5.16011e-08
5.16011e-08
5.1601e-08
5.1601e-08
5.16009e-08
5.16007e-08
5.16006e-08
5.16004e-08
5.16001e-08
5.15998e-08
5.15995e-08
5.15991e-08
5.15986e-08
5.15981e-08
5.15974e-08
5.15965e-08
5.15955e-08
5.15942e-08
5.15925e-08
5.15903e-08
5.15872e-08
5.15825e-08
5.15768e-08
5.15679e-08
5.15593e-08
5.15678e-08
5.15759e-08
5.15841e-08
5.15894e-08
5.15938e-08
5.15967e-08
5.15988e-08
5.16004e-08
5.16016e-08
5.16026e-08
5.16034e-08
5.16041e-08
5.16046e-08
5.16051e-08
5.16055e-08
5.16058e-08
5.16061e-08
5.16063e-08
5.16065e-08
5.16067e-08
5.16068e-08
5.16069e-08
5.1607e-08
5.1607e-08
5.1607e-08
5.1607e-08
5.1607e-08
5.1607e-08
5.16069e-08
5.16068e-08
5.16067e-08
5.16065e-08
5.16063e-08
5.16061e-08
5.16058e-08
5.16055e-08
5.16051e-08
5.16046e-08
5.16041e-08
5.16034e-08
5.16026e-08
5.16016e-08
5.16004e-08
5.15988e-08
5.15968e-08
5.15939e-08
5.15895e-08
5.15841e-08
5.15759e-08
5.15679e-08
5.15753e-08
5.15828e-08
5.15904e-08
5.15953e-08
5.15995e-08
5.16021e-08
5.16041e-08
5.16056e-08
5.16067e-08
5.16077e-08
5.16085e-08
5.16091e-08
5.16096e-08
5.161e-08
5.16104e-08
5.16107e-08
5.1611e-08
5.16112e-08
5.16114e-08
5.16116e-08
5.16117e-08
5.16118e-08
5.16119e-08
5.16119e-08
5.16119e-08
5.16119e-08
5.16119e-08
5.16119e-08
5.16118e-08
5.16117e-08
5.16116e-08
5.16114e-08
5.16112e-08
5.1611e-08
5.16107e-08
5.16104e-08
5.161e-08
5.16096e-08
5.16091e-08
5.16085e-08
5.16077e-08
5.16067e-08
5.16056e-08
5.16041e-08
5.16022e-08
5.15995e-08
5.15954e-08
5.15905e-08
5.15829e-08
5.15753e-08
5.15815e-08
5.15887e-08
5.15956e-08
5.16002e-08
5.1604e-08
5.16065e-08
5.16083e-08
5.16097e-08
5.16108e-08
5.16117e-08
5.16125e-08
5.16131e-08
5.16135e-08
5.1614e-08
5.16143e-08
5.16146e-08
5.16149e-08
5.16151e-08
5.16153e-08
5.16155e-08
5.16156e-08
5.16157e-08
5.16157e-08
5.16158e-08
5.16158e-08
5.16158e-08
5.16158e-08
5.16157e-08
5.16157e-08
5.16156e-08
5.16154e-08
5.16153e-08
5.16151e-08
5.16149e-08
5.16146e-08
5.16143e-08
5.16139e-08
5.16135e-08
5.16131e-08
5.16125e-08
5.16117e-08
5.16108e-08
5.16097e-08
5.16083e-08
5.16065e-08
5.1604e-08
5.16002e-08
5.15956e-08
5.15887e-08
5.15816e-08
5.15868e-08
5.15934e-08
5.15998e-08
5.1604e-08
5.16076e-08
5.16099e-08
5.16116e-08
5.16129e-08
5.16139e-08
5.16148e-08
5.16155e-08
5.16161e-08
5.16166e-08
5.1617e-08
5.16173e-08
5.16176e-08
5.16179e-08
5.16181e-08
5.16183e-08
5.16184e-08
5.16185e-08
5.16186e-08
5.16187e-08
5.16187e-08
5.16188e-08
5.16188e-08
5.16187e-08
5.16187e-08
5.16186e-08
5.16185e-08
5.16184e-08
5.16183e-08
5.16181e-08
5.16179e-08
5.16176e-08
5.16173e-08
5.1617e-08
5.16166e-08
5.16161e-08
5.16155e-08
5.16148e-08
5.1614e-08
5.16129e-08
5.16116e-08
5.16099e-08
5.16076e-08
5.16041e-08
5.15998e-08
5.15935e-08
5.15868e-08
5.15911e-08
5.15972e-08
5.1603e-08
5.1607e-08
5.16102e-08
5.16124e-08
5.1614e-08
5.16152e-08
5.16162e-08
5.1617e-08
5.16177e-08
5.16183e-08
5.16187e-08
5.16191e-08
5.16194e-08
5.16197e-08
5.162e-08
5.16202e-08
5.16203e-08
5.16205e-08
5.16206e-08
5.16207e-08
5.16208e-08
5.16208e-08
5.16208e-08
5.16208e-08
5.16208e-08
5.16208e-08
5.16207e-08
5.16206e-08
5.16205e-08
5.16203e-08
5.16202e-08
5.162e-08
5.16197e-08
5.16194e-08
5.16191e-08
5.16187e-08
5.16183e-08
5.16177e-08
5.1617e-08
5.16162e-08
5.16152e-08
5.1614e-08
5.16124e-08
5.16103e-08
5.1607e-08
5.1603e-08
5.15972e-08
5.15911e-08
5.15944e-08
5.16001e-08
5.16053e-08
5.1609e-08
5.1612e-08
5.1614e-08
5.16155e-08
5.16167e-08
5.16176e-08
5.16184e-08
5.1619e-08
5.16196e-08
5.162e-08
5.16204e-08
5.16207e-08
5.1621e-08
5.16212e-08
5.16214e-08
5.16216e-08
5.16217e-08
5.16218e-08
5.16219e-08
5.1622e-08
5.1622e-08
5.16221e-08
5.16221e-08
5.1622e-08
5.1622e-08
5.16219e-08
5.16218e-08
5.16217e-08
5.16216e-08
5.16214e-08
5.16212e-08
5.1621e-08
5.16207e-08
5.16204e-08
5.162e-08
5.16196e-08
5.1619e-08
5.16184e-08
5.16176e-08
5.16167e-08
5.16155e-08
5.16141e-08
5.1612e-08
5.16091e-08
5.16054e-08
5.16001e-08
5.15944e-08
5.15968e-08
5.16021e-08
5.16068e-08
5.16103e-08
5.1613e-08
5.16149e-08
5.16163e-08
5.16174e-08
5.16182e-08
5.1619e-08
5.16196e-08
5.16201e-08
5.16205e-08
5.16209e-08
5.16212e-08
5.16215e-08
5.16217e-08
5.16219e-08
5.1622e-08
5.16222e-08
5.16223e-08
5.16224e-08
5.16224e-08
5.16225e-08
5.16225e-08
5.16225e-08
5.16225e-08
5.16224e-08
5.16224e-08
5.16223e-08
5.16222e-08
5.1622e-08
5.16219e-08
5.16217e-08
5.16214e-08
5.16212e-08
5.16209e-08
5.16205e-08
5.16201e-08
5.16196e-08
5.1619e-08
5.16183e-08
5.16174e-08
5.16163e-08
5.16149e-08
5.1613e-08
5.16103e-08
5.16069e-08
5.16021e-08
5.15968e-08
5.15983e-08
5.16033e-08
5.16076e-08
5.16107e-08
5.16132e-08
5.1615e-08
5.16163e-08
5.16173e-08
5.16181e-08
5.16188e-08
5.16194e-08
5.16199e-08
5.16203e-08
5.16206e-08
5.16209e-08
5.16212e-08
5.16214e-08
5.16216e-08
5.16218e-08
5.16219e-08
5.1622e-08
5.16221e-08
5.16222e-08
5.16222e-08
5.16222e-08
5.16222e-08
5.16222e-08
5.16222e-08
5.16221e-08
5.1622e-08
5.16219e-08
5.16218e-08
5.16216e-08
5.16214e-08
5.16212e-08
5.16209e-08
5.16206e-08
5.16203e-08
5.16199e-08
5.16194e-08
5.16188e-08
5.16182e-08
5.16173e-08
5.16163e-08
5.1615e-08
5.16133e-08
5.16108e-08
5.16076e-08
5.16033e-08
5.15984e-08
5.15991e-08
5.16037e-08
5.16076e-08
5.16105e-08
5.16128e-08
5.16144e-08
5.16156e-08
5.16166e-08
5.16174e-08
5.1618e-08
5.16186e-08
5.16191e-08
5.16194e-08
5.16198e-08
5.162e-08
5.16203e-08
5.16205e-08
5.16207e-08
5.16208e-08
5.1621e-08
5.16211e-08
5.16212e-08
5.16212e-08
5.16213e-08
5.16213e-08
5.16213e-08
5.16213e-08
5.16212e-08
5.16212e-08
5.16211e-08
5.1621e-08
5.16208e-08
5.16207e-08
5.16205e-08
5.16203e-08
5.162e-08
5.16197e-08
5.16194e-08
5.16191e-08
5.16186e-08
5.1618e-08
5.16174e-08
5.16166e-08
5.16157e-08
5.16144e-08
5.16128e-08
5.16105e-08
5.16076e-08
5.16037e-08
5.15991e-08
5.15992e-08
5.16035e-08
5.16069e-08
5.16096e-08
5.16117e-08
5.16132e-08
5.16144e-08
5.16152e-08
5.1616e-08
5.16166e-08
5.16171e-08
5.16176e-08
5.16179e-08
5.16183e-08
5.16185e-08
5.16188e-08
5.1619e-08
5.16192e-08
5.16193e-08
5.16194e-08
5.16195e-08
5.16196e-08
5.16197e-08
5.16197e-08
5.16198e-08
5.16198e-08
5.16197e-08
5.16197e-08
5.16196e-08
5.16195e-08
5.16194e-08
5.16193e-08
5.16192e-08
5.1619e-08
5.16188e-08
5.16185e-08
5.16182e-08
5.16179e-08
5.16176e-08
5.16171e-08
5.16166e-08
5.1616e-08
5.16153e-08
5.16144e-08
5.16132e-08
5.16117e-08
5.16096e-08
5.1607e-08
5.16035e-08
5.15992e-08
5.15986e-08
5.16026e-08
5.16057e-08
5.16081e-08
5.16101e-08
5.16114e-08
5.16125e-08
5.16133e-08
5.16141e-08
5.16146e-08
5.16152e-08
5.16156e-08
5.16159e-08
5.16162e-08
5.16165e-08
5.16167e-08
5.16169e-08
5.16171e-08
5.16172e-08
5.16174e-08
5.16175e-08
5.16175e-08
5.16176e-08
5.16176e-08
5.16177e-08
5.16177e-08
5.16176e-08
5.16176e-08
5.16175e-08
5.16175e-08
5.16174e-08
5.16172e-08
5.16171e-08
5.16169e-08
5.16167e-08
5.16165e-08
5.16162e-08
5.16159e-08
5.16156e-08
5.16152e-08
5.16146e-08
5.16141e-08
5.16134e-08
5.16125e-08
5.16115e-08
5.16101e-08
5.16082e-08
5.16057e-08
5.16026e-08
5.15986e-08
5.15975e-08
5.16011e-08
5.16039e-08
5.16061e-08
5.16079e-08
5.16092e-08
5.16102e-08
5.16109e-08
5.16116e-08
5.16122e-08
5.16127e-08
5.16131e-08
5.16134e-08
5.16137e-08
5.16139e-08
5.16142e-08
5.16144e-08
5.16145e-08
5.16147e-08
5.16148e-08
5.16149e-08
5.1615e-08
5.1615e-08
5.16151e-08
5.16151e-08
5.16151e-08
5.16151e-08
5.1615e-08
5.1615e-08
5.16149e-08
5.16148e-08
5.16147e-08
5.16145e-08
5.16143e-08
5.16142e-08
5.16139e-08
5.16137e-08
5.16134e-08
5.16131e-08
5.16127e-08
5.16122e-08
5.16116e-08
5.1611e-08
5.16102e-08
5.16092e-08
5.16079e-08
5.16062e-08
5.16039e-08
5.16011e-08
5.15975e-08
5.15958e-08
5.15991e-08
5.16017e-08
5.16037e-08
5.16053e-08
5.16065e-08
5.16074e-08
5.16081e-08
5.16088e-08
5.16093e-08
5.16098e-08
5.16102e-08
5.16105e-08
5.16107e-08
5.1611e-08
5.16112e-08
5.16114e-08
5.16116e-08
5.16117e-08
5.16118e-08
5.16119e-08
5.1612e-08
5.1612e-08
5.16121e-08
5.16121e-08
5.16121e-08
5.16121e-08
5.1612e-08
5.1612e-08
5.16119e-08
5.16118e-08
5.16117e-08
5.16116e-08
5.16114e-08
5.16112e-08
5.1611e-08
5.16107e-08
5.16104e-08
5.16102e-08
5.16098e-08
5.16093e-08
5.16088e-08
5.16081e-08
5.16074e-08
5.16065e-08
5.16053e-08
5.16037e-08
5.16017e-08
5.15991e-08
5.15958e-08
5.15937e-08
5.15967e-08
5.1599e-08
5.16008e-08
5.16023e-08
5.16034e-08
5.16043e-08
5.16049e-08
5.16055e-08
5.1606e-08
5.16065e-08
5.16069e-08
5.16071e-08
5.16074e-08
5.16077e-08
5.16079e-08
5.16081e-08
5.16082e-08
5.16083e-08
5.16085e-08
5.16085e-08
5.16086e-08
5.16087e-08
5.16087e-08
5.16087e-08
5.16087e-08
5.16087e-08
5.16087e-08
5.16086e-08
5.16085e-08
5.16084e-08
5.16083e-08
5.16082e-08
5.1608e-08
5.16079e-08
5.16076e-08
5.16074e-08
5.16071e-08
5.16069e-08
5.16065e-08
5.1606e-08
5.16056e-08
5.1605e-08
5.16043e-08
5.16034e-08
5.16024e-08
5.16009e-08
5.1599e-08
5.15967e-08
5.15937e-08
5.15911e-08
5.15939e-08
5.1596e-08
5.15976e-08
5.1599e-08
5.16e-08
5.16008e-08
5.16014e-08
5.1602e-08
5.16024e-08
5.16029e-08
5.16032e-08
5.16035e-08
5.16038e-08
5.1604e-08
5.16042e-08
5.16044e-08
5.16045e-08
5.16047e-08
5.16048e-08
5.16049e-08
5.16049e-08
5.1605e-08
5.1605e-08
5.16051e-08
5.16051e-08
5.1605e-08
5.1605e-08
5.16049e-08
5.16049e-08
5.16048e-08
5.16047e-08
5.16045e-08
5.16044e-08
5.16042e-08
5.1604e-08
5.16038e-08
5.16035e-08
5.16032e-08
5.16029e-08
5.16025e-08
5.1602e-08
5.16014e-08
5.16008e-08
5.16e-08
5.1599e-08
5.15977e-08
5.1596e-08
5.15939e-08
5.15912e-08
5.15882e-08
5.15908e-08
5.15926e-08
5.15942e-08
5.15955e-08
5.15963e-08
5.15971e-08
5.15977e-08
5.15982e-08
5.15987e-08
5.15991e-08
5.15994e-08
5.15997e-08
5.16e-08
5.16002e-08
5.16004e-08
5.16005e-08
5.16007e-08
5.16008e-08
5.16009e-08
5.1601e-08
5.16011e-08
5.16011e-08
5.16012e-08
5.16012e-08
5.16012e-08
5.16012e-08
5.16011e-08
5.16011e-08
5.1601e-08
5.16009e-08
5.16008e-08
5.16007e-08
5.16005e-08
5.16004e-08
5.16002e-08
5.15999e-08
5.15997e-08
5.15994e-08
5.15991e-08
5.15987e-08
5.15983e-08
5.15977e-08
5.15971e-08
5.15963e-08
5.15955e-08
5.15942e-08
5.15927e-08
5.15908e-08
5.15883e-08
5.15852e-08
5.15875e-08
5.15891e-08
5.15905e-08
5.15917e-08
5.15925e-08
5.15933e-08
5.15938e-08
5.15943e-08
5.15947e-08
5.15951e-08
5.15955e-08
5.15957e-08
5.1596e-08
5.15962e-08
5.15964e-08
5.15965e-08
5.15967e-08
5.15968e-08
5.15969e-08
5.1597e-08
5.1597e-08
5.15971e-08
5.15971e-08
5.15972e-08
5.15972e-08
5.15971e-08
5.15971e-08
5.1597e-08
5.1597e-08
5.15969e-08
5.15968e-08
5.15967e-08
5.15965e-08
5.15963e-08
5.15962e-08
5.15959e-08
5.15957e-08
5.15954e-08
5.15951e-08
5.15947e-08
5.15943e-08
5.15938e-08
5.15933e-08
5.15925e-08
5.15917e-08
5.15905e-08
5.15892e-08
5.15875e-08
5.15852e-08
5.15819e-08
5.1584e-08
5.15855e-08
5.15867e-08
5.15878e-08
5.15886e-08
5.15893e-08
5.15898e-08
5.15903e-08
5.15907e-08
5.1591e-08
5.15914e-08
5.15916e-08
5.15918e-08
5.1592e-08
5.15922e-08
5.15924e-08
5.15925e-08
5.15927e-08
5.15928e-08
5.15928e-08
5.15929e-08
5.1593e-08
5.1593e-08
5.1593e-08
5.1593e-08
5.1593e-08
5.1593e-08
5.15929e-08
5.15928e-08
5.15927e-08
5.15926e-08
5.15925e-08
5.15924e-08
5.15922e-08
5.1592e-08
5.15918e-08
5.15916e-08
5.15914e-08
5.1591e-08
5.15907e-08
5.15903e-08
5.15898e-08
5.15893e-08
5.15886e-08
5.15879e-08
5.15868e-08
5.15855e-08
5.1584e-08
5.15819e-08
5.15785e-08
5.15804e-08
5.15818e-08
5.15829e-08
5.15839e-08
5.15846e-08
5.15853e-08
5.15857e-08
5.15862e-08
5.15866e-08
5.15869e-08
5.15872e-08
5.15874e-08
5.15877e-08
5.15879e-08
5.15881e-08
5.15882e-08
5.15883e-08
5.15885e-08
5.15886e-08
5.15886e-08
5.15887e-08
5.15888e-08
5.15888e-08
5.15888e-08
5.15888e-08
5.15888e-08
5.15888e-08
5.15887e-08
5.15886e-08
5.15886e-08
5.15885e-08
5.15883e-08
5.15882e-08
5.1588e-08
5.15879e-08
5.15877e-08
5.15874e-08
5.15872e-08
5.15869e-08
5.15866e-08
5.15862e-08
5.15857e-08
5.15853e-08
5.15846e-08
5.15839e-08
5.15829e-08
5.15818e-08
5.15804e-08
5.15785e-08
5.1575e-08
5.15767e-08
5.15779e-08
5.1579e-08
5.15799e-08
5.15805e-08
5.15812e-08
5.15816e-08
5.15821e-08
5.15824e-08
5.15827e-08
5.1583e-08
5.15833e-08
5.15835e-08
5.15837e-08
5.15838e-08
5.1584e-08
5.15841e-08
5.15842e-08
5.15843e-08
5.15844e-08
5.15845e-08
5.15845e-08
5.15846e-08
5.15846e-08
5.15846e-08
5.15846e-08
5.15845e-08
5.15845e-08
5.15844e-08
5.15843e-08
5.15842e-08
5.15841e-08
5.1584e-08
5.15838e-08
5.15837e-08
5.15835e-08
5.15832e-08
5.1583e-08
5.15827e-08
5.15824e-08
5.15821e-08
5.15816e-08
5.15812e-08
5.15806e-08
5.15799e-08
5.1579e-08
5.1578e-08
5.15768e-08
5.1575e-08
5.15715e-08
5.1573e-08
5.15742e-08
5.15751e-08
5.1576e-08
5.15766e-08
5.15771e-08
5.15776e-08
5.1578e-08
5.15783e-08
5.15786e-08
5.15789e-08
5.15791e-08
5.15793e-08
5.15795e-08
5.15797e-08
5.15798e-08
5.158e-08
5.15801e-08
5.15802e-08
5.15803e-08
5.15803e-08
5.15804e-08
5.15804e-08
5.15804e-08
5.15804e-08
5.15804e-08
5.15804e-08
5.15803e-08
5.15802e-08
5.15802e-08
5.15801e-08
5.158e-08
5.15798e-08
5.15797e-08
5.15795e-08
5.15793e-08
5.15791e-08
5.15789e-08
5.15786e-08
5.15783e-08
5.1578e-08
5.15776e-08
5.15772e-08
5.15766e-08
5.1576e-08
5.15751e-08
5.15742e-08
5.1573e-08
5.15715e-08
5.1568e-08
5.15694e-08
5.15705e-08
5.15713e-08
5.15721e-08
5.15727e-08
5.15732e-08
5.15736e-08
5.1574e-08
5.15743e-08
5.15746e-08
5.15749e-08
5.15751e-08
5.15753e-08
5.15755e-08
5.15756e-08
5.15758e-08
5.15759e-08
5.1576e-08
5.15761e-08
5.15762e-08
5.15763e-08
5.15763e-08
5.15763e-08
5.15764e-08
5.15764e-08
5.15763e-08
5.15763e-08
5.15763e-08
5.15762e-08
5.15761e-08
5.1576e-08
5.15759e-08
5.15758e-08
5.15756e-08
5.15755e-08
5.15753e-08
5.15751e-08
5.15749e-08
5.15746e-08
5.15743e-08
5.1574e-08
5.15736e-08
5.15732e-08
5.15727e-08
5.15721e-08
5.15713e-08
5.15705e-08
5.15694e-08
5.15681e-08
5.15647e-08
5.15659e-08
5.15669e-08
5.15677e-08
5.15684e-08
5.15689e-08
5.15694e-08
5.15698e-08
5.15702e-08
5.15705e-08
5.15708e-08
5.1571e-08
5.15712e-08
5.15714e-08
5.15716e-08
5.15718e-08
5.15719e-08
5.1572e-08
5.15721e-08
5.15722e-08
5.15723e-08
5.15724e-08
5.15724e-08
5.15724e-08
5.15725e-08
5.15725e-08
5.15724e-08
5.15724e-08
5.15724e-08
5.15723e-08
5.15722e-08
5.15721e-08
5.1572e-08
5.15719e-08
5.15718e-08
5.15716e-08
5.15714e-08
5.15712e-08
5.1571e-08
5.15708e-08
5.15705e-08
5.15702e-08
5.15698e-08
5.15694e-08
5.15689e-08
5.15684e-08
5.15677e-08
5.15669e-08
5.15659e-08
5.15647e-08
5.15615e-08
5.15626e-08
5.15635e-08
5.15642e-08
5.15649e-08
5.15654e-08
5.15659e-08
5.15662e-08
5.15666e-08
5.15669e-08
5.15671e-08
5.15674e-08
5.15676e-08
5.15678e-08
5.1568e-08
5.15681e-08
5.15682e-08
5.15684e-08
5.15685e-08
5.15685e-08
5.15686e-08
5.15687e-08
5.15687e-08
5.15688e-08
5.15688e-08
5.15688e-08
5.15688e-08
5.15687e-08
5.15687e-08
5.15686e-08
5.15685e-08
5.15685e-08
5.15684e-08
5.15682e-08
5.15681e-08
5.15679e-08
5.15678e-08
5.15676e-08
5.15674e-08
5.15671e-08
5.15669e-08
5.15666e-08
5.15662e-08
5.15659e-08
5.15654e-08
5.15649e-08
5.15642e-08
5.15635e-08
5.15626e-08
5.15615e-08
5.15585e-08
5.15595e-08
5.15604e-08
5.1561e-08
5.15617e-08
5.15621e-08
5.15626e-08
5.15629e-08
5.15633e-08
5.15636e-08
5.15638e-08
5.15641e-08
5.15643e-08
5.15644e-08
5.15646e-08
5.15648e-08
5.15649e-08
5.1565e-08
5.15651e-08
5.15652e-08
5.15653e-08
5.15653e-08
5.15654e-08
5.15654e-08
5.15654e-08
5.15654e-08
5.15654e-08
5.15654e-08
5.15653e-08
5.15653e-08
5.15652e-08
5.15651e-08
5.1565e-08
5.15649e-08
5.15647e-08
5.15646e-08
5.15644e-08
5.15642e-08
5.1564e-08
5.15638e-08
5.15635e-08
5.15633e-08
5.15629e-08
5.15626e-08
5.15621e-08
5.15617e-08
5.1561e-08
5.15604e-08
5.15596e-08
5.15586e-08
5.15559e-08
5.15569e-08
5.15576e-08
5.15582e-08
5.15588e-08
5.15593e-08
5.15597e-08
5.156e-08
5.15604e-08
5.15607e-08
5.15609e-08
5.15611e-08
5.15613e-08
5.15615e-08
5.15617e-08
5.15618e-08
5.15619e-08
5.15621e-08
5.15622e-08
5.15622e-08
5.15623e-08
5.15624e-08
5.15624e-08
5.15625e-08
5.15625e-08
5.15625e-08
5.15625e-08
5.15624e-08
5.15624e-08
5.15623e-08
5.15622e-08
5.15622e-08
5.15621e-08
5.15619e-08
5.15618e-08
5.15617e-08
5.15615e-08
5.15613e-08
5.15611e-08
5.15609e-08
5.15606e-08
5.15604e-08
5.156e-08
5.15597e-08
5.15593e-08
5.15588e-08
5.15583e-08
5.15576e-08
5.15569e-08
5.15559e-08
5.15538e-08
5.15547e-08
5.15554e-08
5.1556e-08
5.15566e-08
5.1557e-08
5.15574e-08
5.15577e-08
5.15581e-08
5.15583e-08
5.15586e-08
5.15588e-08
5.1559e-08
5.15592e-08
5.15593e-08
5.15595e-08
5.15596e-08
5.15597e-08
5.15598e-08
5.15599e-08
5.156e-08
5.156e-08
5.15601e-08
5.15601e-08
5.15601e-08
5.15601e-08
5.15601e-08
5.15601e-08
5.156e-08
5.156e-08
5.15599e-08
5.15598e-08
5.15597e-08
5.15596e-08
5.15595e-08
5.15593e-08
5.15592e-08
5.1559e-08
5.15588e-08
5.15586e-08
5.15583e-08
5.15581e-08
5.15577e-08
5.15574e-08
5.1557e-08
5.15566e-08
5.1556e-08
5.15554e-08
5.15547e-08
5.15538e-08
5.15525e-08
5.15534e-08
5.1554e-08
5.15546e-08
5.15551e-08
5.15556e-08
5.1556e-08
5.15563e-08
5.15566e-08
5.15569e-08
5.15571e-08
5.15573e-08
5.15575e-08
5.15577e-08
5.15579e-08
5.1558e-08
5.15581e-08
5.15582e-08
5.15583e-08
5.15584e-08
5.15585e-08
5.15585e-08
5.15586e-08
5.15586e-08
5.15586e-08
5.15586e-08
5.15586e-08
5.15586e-08
5.15585e-08
5.15585e-08
5.15584e-08
5.15583e-08
5.15582e-08
5.15581e-08
5.1558e-08
5.15578e-08
5.15577e-08
5.15575e-08
5.15573e-08
5.15571e-08
5.15569e-08
5.15566e-08
5.15563e-08
5.1556e-08
5.15556e-08
5.15552e-08
5.15546e-08
5.1554e-08
5.15534e-08
5.15525e-08
)
;

boundaryField
{
    fuel
    {
        type            fixedValue;
        value           nonuniform 0();
    }
    wall
    {
        type            zeroGradient;
    }
    outlet
    {
        type            zeroGradient;
    }
    frontAndBack
    {
        type            empty;
    }
    procBoundary3to2
    {
        type            processor;
        value           nonuniform List<scalar> 
51
(
5.14597e-08
5.14605e-08
5.14612e-08
5.14618e-08
5.14623e-08
5.14627e-08
5.14631e-08
5.14633e-08
5.14635e-08
5.14637e-08
5.14638e-08
5.14639e-08
5.1464e-08
5.1464e-08
5.1464e-08
5.1464e-08
5.14639e-08
5.14638e-08
5.14637e-08
5.14635e-08
5.14633e-08
5.1463e-08
5.14627e-08
5.14623e-08
5.14618e-08
5.14612e-08
5.14605e-08
5.14597e-08
5.14587e-08
5.14574e-08
5.14556e-08
5.14535e-08
5.14505e-08
5.14467e-08
5.14406e-08
5.14309e-08
5.14193e-08
5.14013e-08
5.13851e-08
5.14021e-08
5.14176e-08
5.14348e-08
5.14459e-08
5.14552e-08
5.1461e-08
5.14647e-08
5.14676e-08
5.14696e-08
5.14714e-08
5.14726e-08
5.14726e-08
)
;
    }
}


// ************************************************************************* //
