/*--------------------------------*- C++ -*----------------------------------*\
| =========                 |                                                 |
| \\      /  F ield         | OpenFOAM: The Open Source CFD Toolbox           |
|  \\    /   O peration     | Version:  dev                                   |
|   \\  /    A nd           | Web:      www.OpenFOAM.org                      |
|    \\/     M anipulation  |                                                 |
\*---------------------------------------------------------------------------*/
FoamFile
{
    version     2.0;
    format      ascii;
    class       volScalarField;
    location    "0.08";
    object      HCCOH;
}
// * * * * * * * * * * * * * * * * * * * * * * * * * * * * * * * * * * * * * //

dimensions      [0 0 0 0 0 0 0];

internalField   nonuniform List<scalar> 
1989
(
1.89699e-06
1.89626e-06
1.89593e-06
1.89546e-06
1.89533e-06
1.89504e-06
1.89501e-06
1.89483e-06
1.89484e-06
1.89473e-06
1.89475e-06
1.89469e-06
1.8947e-06
1.89469e-06
1.89469e-06
1.8947e-06
1.89469e-06
1.89475e-06
1.89473e-06
1.89483e-06
1.89483e-06
1.89501e-06
1.89504e-06
1.89534e-06
1.89546e-06
1.89593e-06
1.89627e-06
1.89698e-06
1.89777e-06
1.89899e-06
1.90093e-06
1.90302e-06
1.90697e-06
1.91097e-06
1.91866e-06
1.92769e-06
1.93807e-06
1.95526e-06
1.96526e-06
1.84552e-06
1.83554e-06
1.81866e-06
1.80851e-06
1.79977e-06
1.79233e-06
1.7885e-06
1.78467e-06
1.78268e-06
1.78081e-06
1.77967e-06
1.77889e-06
1.7782e-06
1.77788e-06
1.77743e-06
1.77731e-06
1.77702e-06
1.777e-06
1.77682e-06
1.77683e-06
1.77673e-06
1.77674e-06
1.77669e-06
1.7767e-06
1.77668e-06
1.77668e-06
1.7767e-06
1.77669e-06
1.77674e-06
1.77673e-06
1.77683e-06
1.77682e-06
1.777e-06
1.77702e-06
1.77731e-06
1.77743e-06
1.77788e-06
1.7782e-06
1.77888e-06
1.77964e-06
1.78082e-06
1.78268e-06
1.78467e-06
1.7885e-06
1.79232e-06
1.79976e-06
1.8085e-06
1.81866e-06
1.83553e-06
1.8455e-06
1.72777e-06
1.71786e-06
1.7014e-06
1.69153e-06
1.68309e-06
1.67594e-06
1.67228e-06
1.6686e-06
1.66672e-06
1.66493e-06
1.66383e-06
1.66309e-06
1.66242e-06
1.66212e-06
1.66169e-06
1.66158e-06
1.6613e-06
1.66128e-06
1.66111e-06
1.66112e-06
1.66102e-06
1.66104e-06
1.66099e-06
1.661e-06
1.66098e-06
1.66098e-06
1.661e-06
1.66099e-06
1.66104e-06
1.66102e-06
1.66112e-06
1.66111e-06
1.66128e-06
1.66131e-06
1.66158e-06
1.66169e-06
1.66213e-06
1.66243e-06
1.66308e-06
1.66381e-06
1.66493e-06
1.66672e-06
1.6686e-06
1.67229e-06
1.67592e-06
1.68308e-06
1.69152e-06
1.70139e-06
1.71785e-06
1.72775e-06
1.61136e-06
1.60147e-06
1.58531e-06
1.57565e-06
1.56755e-06
1.56064e-06
1.55715e-06
1.5536e-06
1.55182e-06
1.55011e-06
1.54905e-06
1.54835e-06
1.54771e-06
1.54742e-06
1.54701e-06
1.5469e-06
1.54664e-06
1.54662e-06
1.54645e-06
1.54647e-06
1.54637e-06
1.54639e-06
1.54634e-06
1.54635e-06
1.54633e-06
1.54633e-06
1.54635e-06
1.54634e-06
1.54638e-06
1.54637e-06
1.54646e-06
1.54645e-06
1.54662e-06
1.54664e-06
1.54691e-06
1.54701e-06
1.54743e-06
1.54771e-06
1.54834e-06
1.54903e-06
1.55011e-06
1.55182e-06
1.55359e-06
1.55717e-06
1.56061e-06
1.56754e-06
1.57564e-06
1.5853e-06
1.60146e-06
1.61135e-06
1.49877e-06
1.48909e-06
1.47341e-06
1.4641e-06
1.45649e-06
1.44983e-06
1.44659e-06
1.44318e-06
1.44152e-06
1.43989e-06
1.4389e-06
1.43823e-06
1.43762e-06
1.43736e-06
1.43696e-06
1.43687e-06
1.43661e-06
1.4366e-06
1.43644e-06
1.43645e-06
1.43636e-06
1.43638e-06
1.43633e-06
1.43634e-06
1.43632e-06
1.43632e-06
1.43634e-06
1.43633e-06
1.43637e-06
1.43636e-06
1.43645e-06
1.43644e-06
1.4366e-06
1.43661e-06
1.43687e-06
1.43696e-06
1.43736e-06
1.43763e-06
1.43822e-06
1.43887e-06
1.4399e-06
1.44152e-06
1.44317e-06
1.4466e-06
1.44982e-06
1.45648e-06
1.4641e-06
1.4734e-06
1.48907e-06
1.49875e-06
1.38939e-06
1.38e-06
1.36441e-06
1.35517e-06
1.34782e-06
1.34126e-06
1.33818e-06
1.33486e-06
1.33329e-06
1.33171e-06
1.33076e-06
1.33012e-06
1.32954e-06
1.32929e-06
1.32891e-06
1.32882e-06
1.32858e-06
1.32856e-06
1.32841e-06
1.32843e-06
1.32834e-06
1.32836e-06
1.32831e-06
1.32832e-06
1.32831e-06
1.32831e-06
1.32832e-06
1.32831e-06
1.32835e-06
1.32834e-06
1.32842e-06
1.32841e-06
1.32856e-06
1.32858e-06
1.32882e-06
1.32891e-06
1.32929e-06
1.32954e-06
1.33011e-06
1.33073e-06
1.33173e-06
1.33328e-06
1.33485e-06
1.33818e-06
1.34125e-06
1.34781e-06
1.35516e-06
1.3644e-06
1.37999e-06
1.38938e-06
1.28369e-06
1.27458e-06
1.25967e-06
1.25079e-06
1.24395e-06
1.2377e-06
1.23486e-06
1.23171e-06
1.23026e-06
1.22878e-06
1.22789e-06
1.22728e-06
1.22674e-06
1.22651e-06
1.22615e-06
1.22607e-06
1.22584e-06
1.22583e-06
1.22569e-06
1.2257e-06
1.22562e-06
1.22564e-06
1.22559e-06
1.22561e-06
1.22559e-06
1.22559e-06
1.22561e-06
1.22559e-06
1.22564e-06
1.22562e-06
1.2257e-06
1.22569e-06
1.22583e-06
1.22584e-06
1.22608e-06
1.22615e-06
1.22652e-06
1.22674e-06
1.22728e-06
1.22785e-06
1.2288e-06
1.23026e-06
1.2317e-06
1.23487e-06
1.23769e-06
1.24395e-06
1.25079e-06
1.25967e-06
1.27457e-06
1.28367e-06
1.18101e-06
1.17206e-06
1.15793e-06
1.14931e-06
1.14291e-06
1.13695e-06
1.13434e-06
1.13135e-06
1.13002e-06
1.12863e-06
1.12779e-06
1.12723e-06
1.12672e-06
1.12651e-06
1.12617e-06
1.1261e-06
1.12588e-06
1.12587e-06
1.12574e-06
1.12575e-06
1.12567e-06
1.12569e-06
1.12565e-06
1.12566e-06
1.12564e-06
1.12564e-06
1.12566e-06
1.12564e-06
1.12569e-06
1.12567e-06
1.12575e-06
1.12573e-06
1.12587e-06
1.12588e-06
1.1261e-06
1.12617e-06
1.12651e-06
1.12672e-06
1.12722e-06
1.12776e-06
1.12864e-06
1.13002e-06
1.13134e-06
1.13434e-06
1.13695e-06
1.1429e-06
1.1493e-06
1.15792e-06
1.17205e-06
1.18099e-06
1.08171e-06
1.07315e-06
1.06004e-06
1.05175e-06
1.04587e-06
1.04031e-06
1.03794e-06
1.03515e-06
1.03395e-06
1.03266e-06
1.03189e-06
1.03137e-06
1.03091e-06
1.03072e-06
1.0304e-06
1.03034e-06
1.03013e-06
1.03013e-06
1.03e-06
1.03002e-06
1.02994e-06
1.02996e-06
1.02992e-06
1.02993e-06
1.02992e-06
1.02992e-06
1.02993e-06
1.02992e-06
1.02996e-06
1.02994e-06
1.03002e-06
1.03e-06
1.03013e-06
1.03013e-06
1.03034e-06
1.0304e-06
1.03072e-06
1.03091e-06
1.03137e-06
1.03187e-06
1.03267e-06
1.03395e-06
1.03515e-06
1.03794e-06
1.0403e-06
1.04586e-06
1.05174e-06
1.06003e-06
1.07314e-06
1.0817e-06
9.87413e-07
9.7929e-07
9.67265e-07
9.59302e-07
9.53942e-07
9.48789e-07
9.46666e-07
9.44096e-07
9.43025e-07
9.41835e-07
9.41132e-07
9.40663e-07
9.40239e-07
9.40067e-07
9.39776e-07
9.39722e-07
9.39535e-07
9.39532e-07
9.39416e-07
9.3943e-07
9.39362e-07
9.39378e-07
9.39342e-07
9.39353e-07
9.39341e-07
9.3934e-07
9.39352e-07
9.39341e-07
9.39377e-07
9.3936e-07
9.39429e-07
9.39415e-07
9.39532e-07
9.39536e-07
9.39724e-07
9.39778e-07
9.4007e-07
9.40242e-07
9.40657e-07
9.41119e-07
9.41845e-07
9.43017e-07
9.44092e-07
9.46664e-07
9.48782e-07
9.53935e-07
9.59295e-07
9.67257e-07
9.79281e-07
9.87401e-07
8.98527e-07
8.90893e-07
8.7995e-07
8.73858e-07
8.68993e-07
8.64215e-07
8.62334e-07
8.59965e-07
8.59017e-07
8.57931e-07
8.57291e-07
8.56871e-07
8.56483e-07
8.56331e-07
8.56063e-07
8.56018e-07
8.55846e-07
8.55845e-07
8.55738e-07
8.55753e-07
8.5569e-07
8.55706e-07
8.55672e-07
8.55682e-07
8.55671e-07
8.55671e-07
8.55682e-07
8.55671e-07
8.55704e-07
8.55688e-07
8.55752e-07
8.55737e-07
8.55845e-07
8.55846e-07
8.5602e-07
8.56066e-07
8.56334e-07
8.56486e-07
8.56865e-07
8.57285e-07
8.57937e-07
8.59008e-07
8.59961e-07
8.62332e-07
8.64209e-07
8.68987e-07
8.73851e-07
8.79943e-07
8.90885e-07
8.98516e-07
8.16804e-07
8.09686e-07
7.99718e-07
7.94023e-07
7.89638e-07
7.85245e-07
7.83547e-07
7.81276e-07
7.80396e-07
7.79372e-07
7.78766e-07
7.78372e-07
7.78006e-07
7.77864e-07
7.7761e-07
7.77569e-07
7.77404e-07
7.77405e-07
7.77303e-07
7.77318e-07
7.77257e-07
7.77273e-07
7.77241e-07
7.77251e-07
7.7724e-07
7.7724e-07
7.7725e-07
7.7724e-07
7.77272e-07
7.77256e-07
7.77317e-07
7.77302e-07
7.77405e-07
7.77405e-07
7.7757e-07
7.77612e-07
7.77867e-07
7.78008e-07
7.78369e-07
7.78761e-07
7.79373e-07
7.80389e-07
7.81272e-07
7.83545e-07
7.8524e-07
7.89632e-07
7.94017e-07
7.99712e-07
8.09679e-07
8.16793e-07
7.39981e-07
7.33263e-07
7.24095e-07
7.18819e-07
7.14896e-07
7.10938e-07
7.09458e-07
7.0741e-07
7.06641e-07
7.05725e-07
7.05184e-07
7.04835e-07
7.04507e-07
7.04383e-07
7.04154e-07
7.04119e-07
7.03971e-07
7.03973e-07
7.0388e-07
7.03895e-07
7.0384e-07
7.03855e-07
7.03826e-07
7.03835e-07
7.03825e-07
7.03825e-07
7.03834e-07
7.03825e-07
7.03854e-07
7.03839e-07
7.03894e-07
7.0388e-07
7.03973e-07
7.03971e-07
7.0412e-07
7.04156e-07
7.04385e-07
7.04509e-07
7.04833e-07
7.05182e-07
7.05724e-07
7.06635e-07
7.07406e-07
7.09455e-07
7.10933e-07
7.14891e-07
7.18814e-07
7.24089e-07
7.33256e-07
7.39971e-07
6.68811e-07
6.62671e-07
6.54473e-07
6.49714e-07
6.46226e-07
6.42709e-07
6.41434e-07
6.39613e-07
6.3895e-07
6.38138e-07
6.37665e-07
6.37357e-07
6.37067e-07
6.36959e-07
6.36755e-07
6.36726e-07
6.36594e-07
6.36597e-07
6.36514e-07
6.36528e-07
6.36479e-07
6.36492e-07
6.36466e-07
6.36474e-07
6.36466e-07
6.36466e-07
6.36474e-07
6.36465e-07
6.36491e-07
6.36478e-07
6.36527e-07
6.36514e-07
6.36597e-07
6.36594e-07
6.36727e-07
6.36757e-07
6.36961e-07
6.37068e-07
6.37355e-07
6.37663e-07
6.38136e-07
6.38945e-07
6.39609e-07
6.41432e-07
6.42705e-07
6.4622e-07
6.49709e-07
6.54468e-07
6.62665e-07
6.68802e-07
6.05042e-07
5.99433e-07
5.92194e-07
5.87893e-07
5.8484e-07
5.81715e-07
5.80641e-07
5.79025e-07
5.78465e-07
5.7775e-07
5.7734e-07
5.77071e-07
5.76815e-07
5.76723e-07
5.76543e-07
5.76519e-07
5.76401e-07
5.76406e-07
5.76332e-07
5.76345e-07
5.76301e-07
5.76314e-07
5.76291e-07
5.76298e-07
5.7629e-07
5.7629e-07
5.76298e-07
5.7629e-07
5.76313e-07
5.763e-07
5.76344e-07
5.76331e-07
5.76406e-07
5.76402e-07
5.7652e-07
5.76545e-07
5.76725e-07
5.76817e-07
5.7707e-07
5.77339e-07
5.77748e-07
5.78461e-07
5.79022e-07
5.80639e-07
5.81711e-07
5.84835e-07
5.87889e-07
5.9219e-07
5.99428e-07
6.05034e-07
5.4747e-07
5.42479e-07
5.36159e-07
5.32277e-07
5.29595e-07
5.26751e-07
5.25833e-07
5.24382e-07
5.23903e-07
5.23265e-07
5.22904e-07
5.22665e-07
5.22437e-07
5.22357e-07
5.222e-07
5.22182e-07
5.22079e-07
5.22085e-07
5.2202e-07
5.22033e-07
5.21995e-07
5.22006e-07
5.21986e-07
5.21993e-07
5.21986e-07
5.21986e-07
5.21992e-07
5.21985e-07
5.22005e-07
5.21994e-07
5.22032e-07
5.2202e-07
5.22085e-07
5.2208e-07
5.22183e-07
5.22201e-07
5.22359e-07
5.22438e-07
5.22664e-07
5.22903e-07
5.23263e-07
5.239e-07
5.24379e-07
5.25831e-07
5.26747e-07
5.29591e-07
5.32273e-07
5.36155e-07
5.42474e-07
5.47463e-07
4.96157e-07
4.91769e-07
4.86318e-07
4.82855e-07
4.80578e-07
4.78087e-07
4.77339e-07
4.76086e-07
4.75696e-07
4.75146e-07
4.74839e-07
4.74634e-07
4.74438e-07
4.74372e-07
4.74235e-07
4.74222e-07
4.74133e-07
4.74139e-07
4.74082e-07
4.74094e-07
4.74061e-07
4.74071e-07
4.74054e-07
4.7406e-07
4.74054e-07
4.74054e-07
4.74059e-07
4.74053e-07
4.7407e-07
4.7406e-07
4.74093e-07
4.74082e-07
4.74139e-07
4.74133e-07
4.74223e-07
4.74237e-07
4.74373e-07
4.74439e-07
4.74634e-07
4.74838e-07
4.75144e-07
4.75693e-07
4.76084e-07
4.77337e-07
4.78084e-07
4.80574e-07
4.82852e-07
4.86314e-07
4.91765e-07
4.96151e-07
4.51008e-07
4.472e-07
4.42561e-07
4.39505e-07
4.37594e-07
4.35441e-07
4.34847e-07
4.33785e-07
4.33476e-07
4.3301e-07
4.32753e-07
4.3258e-07
4.32413e-07
4.32358e-07
4.32242e-07
4.32232e-07
4.32155e-07
4.32162e-07
4.32113e-07
4.32124e-07
4.32095e-07
4.32105e-07
4.32089e-07
4.32095e-07
4.3209e-07
4.3209e-07
4.32095e-07
4.32089e-07
4.32104e-07
4.32094e-07
4.32123e-07
4.32113e-07
4.32162e-07
4.32155e-07
4.32233e-07
4.32243e-07
4.3236e-07
4.32414e-07
4.3258e-07
4.32752e-07
4.33009e-07
4.33474e-07
4.33783e-07
4.34846e-07
4.35438e-07
4.37591e-07
4.39502e-07
4.42558e-07
4.47196e-07
4.51002e-07
4.11739e-07
4.08393e-07
4.04427e-07
4.02012e-07
4.00429e-07
3.98592e-07
3.97997e-07
3.96985e-07
3.96674e-07
3.96262e-07
3.96046e-07
3.959e-07
3.95759e-07
3.95714e-07
3.95615e-07
3.95608e-07
3.95543e-07
3.95549e-07
3.95508e-07
3.95517e-07
3.95493e-07
3.95501e-07
3.95488e-07
3.95493e-07
3.95488e-07
3.95488e-07
3.95493e-07
3.95487e-07
3.955e-07
3.95492e-07
3.95517e-07
3.95507e-07
3.95549e-07
3.95543e-07
3.95609e-07
3.95616e-07
3.95715e-07
3.9576e-07
3.959e-07
3.96046e-07
3.96261e-07
3.96671e-07
3.96982e-07
3.97995e-07
3.98589e-07
4.00426e-07
4.02009e-07
4.04424e-07
4.0839e-07
4.11734e-07
3.78256e-07
3.75411e-07
3.72122e-07
3.70076e-07
3.68782e-07
3.67237e-07
3.66759e-07
3.65909e-07
3.65661e-07
3.65319e-07
3.65142e-07
3.65021e-07
3.64905e-07
3.64869e-07
3.64786e-07
3.64781e-07
3.64727e-07
3.64733e-07
3.64698e-07
3.64706e-07
3.64686e-07
3.64693e-07
3.64682e-07
3.64686e-07
3.64683e-07
3.64683e-07
3.64686e-07
3.64682e-07
3.64693e-07
3.64685e-07
3.64706e-07
3.64698e-07
3.64732e-07
3.64727e-07
3.64782e-07
3.64787e-07
3.6487e-07
3.64905e-07
3.65021e-07
3.65142e-07
3.65318e-07
3.65658e-07
3.65907e-07
3.66756e-07
3.67235e-07
3.6878e-07
3.70074e-07
3.7212e-07
3.75408e-07
3.78252e-07
3.50103e-07
3.47706e-07
3.4502e-07
3.43316e-07
3.42272e-07
3.40992e-07
3.40612e-07
3.3991e-07
3.39714e-07
3.39434e-07
3.39291e-07
3.39192e-07
3.39097e-07
3.39069e-07
3.39001e-07
3.38998e-07
3.38953e-07
3.38958e-07
3.3893e-07
3.38937e-07
3.3892e-07
3.38926e-07
3.38917e-07
3.38921e-07
3.38918e-07
3.38918e-07
3.38921e-07
3.38917e-07
3.38926e-07
3.3892e-07
3.38937e-07
3.3893e-07
3.38958e-07
3.38953e-07
3.38998e-07
3.39002e-07
3.3907e-07
3.39098e-07
3.39192e-07
3.39291e-07
3.39433e-07
3.39712e-07
3.39908e-07
3.4061e-07
3.4099e-07
3.4227e-07
3.43314e-07
3.45018e-07
3.47704e-07
3.50099e-07
3.26838e-07
3.24831e-07
3.22675e-07
3.21249e-07
3.20394e-07
3.19326e-07
3.1902e-07
3.18437e-07
3.1828e-07
3.1805e-07
3.17933e-07
3.17852e-07
3.17774e-07
3.17752e-07
3.17696e-07
3.17694e-07
3.17657e-07
3.17662e-07
3.17638e-07
3.17644e-07
3.1763e-07
3.17636e-07
3.17628e-07
3.17631e-07
3.17629e-07
3.17629e-07
3.17631e-07
3.17628e-07
3.17635e-07
3.1763e-07
3.17644e-07
3.17638e-07
3.17661e-07
3.17657e-07
3.17694e-07
3.17697e-07
3.17752e-07
3.17775e-07
3.17852e-07
3.17933e-07
3.18049e-07
3.18279e-07
3.18435e-07
3.19019e-07
3.19325e-07
3.20393e-07
3.21247e-07
3.22673e-07
3.24829e-07
3.26836e-07
3.07945e-07
3.06303e-07
3.04587e-07
3.03431e-07
3.02753e-07
3.01889e-07
3.0165e-07
3.01179e-07
3.01057e-07
3.00872e-07
3.00779e-07
3.00714e-07
3.00652e-07
3.00635e-07
3.0059e-07
3.00589e-07
3.00559e-07
3.00563e-07
3.00544e-07
3.00549e-07
3.00538e-07
3.00542e-07
3.00536e-07
3.00539e-07
3.00537e-07
3.00537e-07
3.00539e-07
3.00536e-07
3.00542e-07
3.00538e-07
3.00549e-07
3.00544e-07
3.00563e-07
3.00559e-07
3.00589e-07
3.0059e-07
3.00635e-07
3.00653e-07
3.00714e-07
3.00779e-07
3.00872e-07
3.01055e-07
3.01177e-07
3.01648e-07
3.01888e-07
3.02751e-07
3.0343e-07
3.04586e-07
3.06302e-07
3.07943e-07
2.92888e-07
2.91526e-07
2.90139e-07
2.89198e-07
2.88651e-07
2.87955e-07
2.87763e-07
2.87385e-07
2.87288e-07
2.87141e-07
2.87066e-07
2.87013e-07
2.86965e-07
2.8695e-07
2.86915e-07
2.86914e-07
2.8689e-07
2.86894e-07
2.86878e-07
2.86883e-07
2.86874e-07
2.86877e-07
2.86873e-07
2.86875e-07
2.86873e-07
2.86873e-07
2.86875e-07
2.86872e-07
2.86877e-07
2.86874e-07
2.86883e-07
2.86878e-07
2.86893e-07
2.8689e-07
2.86914e-07
2.86915e-07
2.86951e-07
2.86965e-07
2.87014e-07
2.87066e-07
2.8714e-07
2.87287e-07
2.87384e-07
2.87762e-07
2.87954e-07
2.8865e-07
2.89197e-07
2.90137e-07
2.91525e-07
2.92886e-07
2.81131e-07
2.80042e-07
2.78947e-07
2.782e-07
2.77765e-07
2.77213e-07
2.77062e-07
2.76762e-07
2.76686e-07
2.7657e-07
2.76511e-07
2.76469e-07
2.76431e-07
2.7642e-07
2.76392e-07
2.76391e-07
2.76372e-07
2.76375e-07
2.76363e-07
2.76367e-07
2.7636e-07
2.76363e-07
2.76359e-07
2.76361e-07
2.76359e-07
2.76359e-07
2.7636e-07
2.76359e-07
2.76362e-07
2.76359e-07
2.76367e-07
2.76363e-07
2.76375e-07
2.76372e-07
2.76391e-07
2.76392e-07
2.7642e-07
2.76431e-07
2.76469e-07
2.76511e-07
2.76569e-07
2.76686e-07
2.76761e-07
2.77061e-07
2.77212e-07
2.77764e-07
2.78199e-07
2.78946e-07
2.80041e-07
2.81129e-07
2.72134e-07
2.71262e-07
2.70398e-07
2.69789e-07
2.69428e-07
2.68985e-07
2.68861e-07
2.68623e-07
2.68561e-07
2.68468e-07
2.68421e-07
2.68387e-07
2.68357e-07
2.68348e-07
2.68326e-07
2.68325e-07
2.6831e-07
2.68312e-07
2.68303e-07
2.68306e-07
2.683e-07
2.68303e-07
2.683e-07
2.68301e-07
2.683e-07
2.683e-07
2.68301e-07
2.683e-07
2.68303e-07
2.683e-07
2.68306e-07
2.68303e-07
2.68312e-07
2.6831e-07
2.68325e-07
2.68326e-07
2.68348e-07
2.68357e-07
2.68387e-07
2.68421e-07
2.68468e-07
2.68561e-07
2.68622e-07
2.68861e-07
2.68984e-07
2.69427e-07
2.69788e-07
2.70397e-07
2.71261e-07
2.72132e-07
2.65303e-07
2.64595e-07
2.63917e-07
2.63437e-07
2.63136e-07
2.6279e-07
2.62687e-07
2.62502e-07
2.62452e-07
2.62379e-07
2.62341e-07
2.62314e-07
2.6229e-07
2.62283e-07
2.62266e-07
2.62265e-07
2.62253e-07
2.62255e-07
2.62248e-07
2.6225e-07
2.62246e-07
2.62248e-07
2.62245e-07
2.62246e-07
2.62246e-07
2.62246e-07
2.62246e-07
2.62245e-07
2.62247e-07
2.62246e-07
2.6225e-07
2.62248e-07
2.62255e-07
2.62253e-07
2.62265e-07
2.62266e-07
2.62283e-07
2.6229e-07
2.62314e-07
2.62341e-07
2.62378e-07
2.62451e-07
2.62501e-07
2.62687e-07
2.6279e-07
2.63135e-07
2.63437e-07
2.63916e-07
2.64595e-07
2.65302e-07
2.60264e-07
2.59693e-07
2.5916e-07
2.58786e-07
2.58588e-07
2.58315e-07
2.58229e-07
2.58083e-07
2.58042e-07
2.57983e-07
2.57953e-07
2.57931e-07
2.57913e-07
2.57906e-07
2.57893e-07
2.57892e-07
2.57883e-07
2.57884e-07
2.57879e-07
2.5788e-07
2.57877e-07
2.57878e-07
2.57877e-07
2.57877e-07
2.57877e-07
2.57877e-07
2.57877e-07
2.57876e-07
2.57878e-07
2.57877e-07
2.5788e-07
2.57878e-07
2.57884e-07
2.57883e-07
2.57892e-07
2.57893e-07
2.57906e-07
2.57913e-07
2.57931e-07
2.57953e-07
2.57983e-07
2.58041e-07
2.58083e-07
2.58229e-07
2.58315e-07
2.58588e-07
2.58785e-07
2.59159e-07
2.59693e-07
2.60263e-07
2.56686e-07
2.5622e-07
2.55797e-07
2.55496e-07
2.5533e-07
2.55113e-07
2.55039e-07
2.54924e-07
2.54889e-07
2.54842e-07
2.54817e-07
2.54799e-07
2.54784e-07
2.54779e-07
2.54768e-07
2.54767e-07
2.5476e-07
2.54761e-07
2.54756e-07
2.54758e-07
2.54755e-07
2.54756e-07
2.54755e-07
2.54756e-07
2.54755e-07
2.54755e-07
2.54755e-07
2.54755e-07
2.54756e-07
2.54755e-07
2.54757e-07
2.54756e-07
2.54761e-07
2.5476e-07
2.54767e-07
2.54768e-07
2.54779e-07
2.54784e-07
2.54799e-07
2.54817e-07
2.54842e-07
2.54888e-07
2.54924e-07
2.55039e-07
2.55113e-07
2.5533e-07
2.55496e-07
2.55797e-07
2.56218e-07
2.56686e-07
2.54168e-07
2.53777e-07
2.5344e-07
2.53195e-07
2.53052e-07
2.52878e-07
2.52813e-07
2.52721e-07
2.52689e-07
2.52651e-07
2.52631e-07
2.52616e-07
2.52603e-07
2.52598e-07
2.5259e-07
2.52589e-07
2.52583e-07
2.52584e-07
2.5258e-07
2.52581e-07
2.52579e-07
2.5258e-07
2.52579e-07
2.5258e-07
2.52579e-07
2.52579e-07
2.5258e-07
2.52579e-07
2.5258e-07
2.52579e-07
2.52581e-07
2.5258e-07
2.52584e-07
2.52583e-07
2.52589e-07
2.5259e-07
2.52598e-07
2.52603e-07
2.52616e-07
2.52631e-07
2.52651e-07
2.52689e-07
2.5272e-07
2.52812e-07
2.52877e-07
2.53052e-07
2.53194e-07
2.53439e-07
2.53774e-07
2.54169e-07
2.52432e-07
2.52104e-07
2.51827e-07
2.51623e-07
2.51498e-07
2.51356e-07
2.51298e-07
2.51223e-07
2.51195e-07
2.51164e-07
2.51146e-07
2.51133e-07
2.51123e-07
2.51119e-07
2.51112e-07
2.51111e-07
2.51106e-07
2.51106e-07
2.51104e-07
2.51104e-07
2.51103e-07
2.51104e-07
2.51103e-07
2.51103e-07
2.51103e-07
2.51103e-07
2.51103e-07
2.51103e-07
2.51103e-07
2.51103e-07
2.51104e-07
2.51104e-07
2.51106e-07
2.51106e-07
2.51111e-07
2.51112e-07
2.51119e-07
2.51123e-07
2.51133e-07
2.51146e-07
2.51164e-07
2.51195e-07
2.51223e-07
2.51298e-07
2.51356e-07
2.51498e-07
2.51623e-07
2.51826e-07
2.521e-07
2.52434e-07
2.51255e-07
2.50972e-07
2.50741e-07
2.50569e-07
2.50458e-07
2.5034e-07
2.50287e-07
2.50226e-07
2.50201e-07
2.50174e-07
2.50159e-07
2.50148e-07
2.50139e-07
2.50135e-07
2.50129e-07
2.50128e-07
2.50124e-07
2.50124e-07
2.50122e-07
2.50123e-07
2.50121e-07
2.50122e-07
2.50121e-07
2.50122e-07
2.50121e-07
2.50121e-07
2.50122e-07
2.50121e-07
2.50122e-07
2.50121e-07
2.50123e-07
2.50122e-07
2.50124e-07
2.50124e-07
2.50128e-07
2.50129e-07
2.50135e-07
2.50139e-07
2.50148e-07
2.50159e-07
2.50174e-07
2.50201e-07
2.50226e-07
2.50287e-07
2.5034e-07
2.50458e-07
2.50569e-07
2.50741e-07
2.50972e-07
2.51255e-07
2.50468e-07
2.50228e-07
2.50033e-07
2.49885e-07
2.49784e-07
2.49685e-07
2.49636e-07
2.49585e-07
2.49562e-07
2.49539e-07
2.49525e-07
2.49515e-07
2.49508e-07
2.49504e-07
2.49499e-07
2.49498e-07
2.49495e-07
2.49495e-07
2.49493e-07
2.49493e-07
2.49492e-07
2.49493e-07
2.49492e-07
2.49493e-07
2.49492e-07
2.49492e-07
2.49493e-07
2.49492e-07
2.49493e-07
2.49492e-07
2.49493e-07
2.49493e-07
2.49495e-07
2.49495e-07
2.49498e-07
2.49499e-07
2.49504e-07
2.49508e-07
2.49515e-07
2.49525e-07
2.49539e-07
2.49561e-07
2.49585e-07
2.49636e-07
2.49685e-07
2.49784e-07
2.49885e-07
2.50033e-07
2.50227e-07
2.50468e-07
2.49955e-07
2.49745e-07
2.49574e-07
2.49444e-07
2.49352e-07
2.49266e-07
2.49221e-07
2.49177e-07
2.49155e-07
2.49136e-07
2.49123e-07
2.49114e-07
2.49108e-07
2.49104e-07
2.491e-07
2.49099e-07
2.49096e-07
2.49096e-07
2.49094e-07
2.49095e-07
2.49094e-07
2.49094e-07
2.49094e-07
2.49094e-07
2.49094e-07
2.49094e-07
2.49094e-07
2.49094e-07
2.49094e-07
2.49094e-07
2.49095e-07
2.49094e-07
2.49096e-07
2.49096e-07
2.49098e-07
2.491e-07
2.49104e-07
2.49108e-07
2.49114e-07
2.49123e-07
2.49135e-07
2.49155e-07
2.49177e-07
2.49221e-07
2.49266e-07
2.49352e-07
2.49443e-07
2.49574e-07
2.49744e-07
2.49955e-07
2.49616e-07
2.49429e-07
2.49278e-07
2.49161e-07
2.49077e-07
2.49002e-07
2.4896e-07
2.48922e-07
2.48902e-07
2.48884e-07
2.48873e-07
2.48865e-07
2.48859e-07
2.48856e-07
2.48852e-07
2.48851e-07
2.48849e-07
2.48848e-07
2.48847e-07
2.48847e-07
2.48847e-07
2.48847e-07
2.48847e-07
2.48847e-07
2.48847e-07
2.48847e-07
2.48847e-07
2.48847e-07
2.48847e-07
2.48847e-07
2.48847e-07
2.48847e-07
2.48848e-07
2.48849e-07
2.48851e-07
2.48852e-07
2.48856e-07
2.48859e-07
2.48865e-07
2.48873e-07
2.48884e-07
2.48902e-07
2.48922e-07
2.4896e-07
2.49002e-07
2.49077e-07
2.49161e-07
2.49278e-07
2.49428e-07
2.49616e-07
2.49391e-07
2.49221e-07
2.49086e-07
2.48981e-07
2.48903e-07
2.48837e-07
2.48798e-07
2.48764e-07
2.48746e-07
2.4873e-07
2.48719e-07
2.48712e-07
2.48707e-07
2.48703e-07
2.487e-07
2.48699e-07
2.48697e-07
2.48697e-07
2.48696e-07
2.48696e-07
2.48695e-07
2.48696e-07
2.48695e-07
2.48696e-07
2.48695e-07
2.48695e-07
2.48696e-07
2.48695e-07
2.48696e-07
2.48695e-07
2.48696e-07
2.48696e-07
2.48697e-07
2.48697e-07
2.48699e-07
2.487e-07
2.48703e-07
2.48707e-07
2.48712e-07
2.48719e-07
2.4873e-07
2.48746e-07
2.48764e-07
2.48798e-07
2.48837e-07
2.48903e-07
2.4898e-07
2.49086e-07
2.49221e-07
2.49391e-07
2.49239e-07
2.49084e-07
2.48962e-07
2.48865e-07
2.48793e-07
2.48734e-07
2.48698e-07
2.48668e-07
2.4865e-07
2.48636e-07
2.48626e-07
2.48619e-07
2.48614e-07
2.48611e-07
2.48609e-07
2.48607e-07
2.48606e-07
2.48605e-07
2.48604e-07
2.48605e-07
2.48604e-07
2.48604e-07
2.48604e-07
2.48604e-07
2.48604e-07
2.48604e-07
2.48604e-07
2.48604e-07
2.48604e-07
2.48604e-07
2.48604e-07
2.48604e-07
2.48605e-07
2.48606e-07
2.48607e-07
2.48608e-07
2.48611e-07
2.48614e-07
2.48619e-07
2.48626e-07
2.48636e-07
2.4865e-07
2.48668e-07
2.48697e-07
2.48734e-07
2.48793e-07
2.48865e-07
2.48961e-07
2.49083e-07
2.49239e-07
2.49137e-07
2.48992e-07
2.48881e-07
2.48792e-07
2.48724e-07
2.48671e-07
2.48637e-07
2.4861e-07
2.48593e-07
2.4858e-07
2.48571e-07
2.48565e-07
2.4856e-07
2.48557e-07
2.48555e-07
2.48553e-07
2.48552e-07
2.48552e-07
2.48551e-07
2.48551e-07
2.48551e-07
2.48551e-07
2.48551e-07
2.48551e-07
2.48551e-07
2.48551e-07
2.48551e-07
2.4855e-07
2.48551e-07
2.4855e-07
2.48551e-07
2.48551e-07
2.48552e-07
2.48552e-07
2.48553e-07
2.48555e-07
2.48557e-07
2.4856e-07
2.48565e-07
2.48571e-07
2.4858e-07
2.48593e-07
2.4861e-07
2.48637e-07
2.4867e-07
2.48724e-07
2.48791e-07
2.48881e-07
2.48991e-07
2.49137e-07
2.49072e-07
2.48932e-07
2.4883e-07
2.48746e-07
2.48683e-07
2.48633e-07
2.48601e-07
2.48576e-07
2.48561e-07
2.48548e-07
2.4854e-07
2.48534e-07
2.4853e-07
2.48527e-07
2.48524e-07
2.48523e-07
2.48522e-07
2.48522e-07
2.48521e-07
2.48521e-07
2.48521e-07
2.48521e-07
2.48521e-07
2.48521e-07
2.48521e-07
2.48521e-07
2.48521e-07
2.4852e-07
2.48521e-07
2.4852e-07
2.48521e-07
2.48521e-07
2.48521e-07
2.48522e-07
2.48523e-07
2.48524e-07
2.48527e-07
2.4853e-07
2.48534e-07
2.4854e-07
2.48548e-07
2.48561e-07
2.48576e-07
2.48601e-07
2.48633e-07
2.48683e-07
2.48746e-07
2.4883e-07
2.48931e-07
2.49071e-07
2.49037e-07
2.48899e-07
2.48804e-07
2.48723e-07
2.48662e-07
2.48615e-07
2.48584e-07
2.4856e-07
2.48545e-07
2.48533e-07
2.48525e-07
2.48519e-07
2.48515e-07
2.48512e-07
2.4851e-07
2.48509e-07
2.48508e-07
2.48507e-07
2.48507e-07
2.48507e-07
2.48506e-07
2.48507e-07
2.48506e-07
2.48507e-07
2.48507e-07
2.48507e-07
2.48507e-07
2.48506e-07
2.48507e-07
2.48506e-07
2.48507e-07
2.48507e-07
2.48507e-07
2.48508e-07
2.48509e-07
2.4851e-07
2.48512e-07
2.48515e-07
2.48519e-07
2.48525e-07
2.48533e-07
2.48545e-07
2.4856e-07
2.48584e-07
2.48615e-07
2.48662e-07
2.48723e-07
2.48803e-07
2.48897e-07
2.49037e-07
)
;

boundaryField
{
    fuel
    {
        type            fixedValue;
        value           nonuniform 0();
    }
    wall
    {
        type            zeroGradient;
    }
    outlet
    {
        type            zeroGradient;
    }
    frontAndBack
    {
        type            empty;
    }
    procBoundary3to2
    {
        type            processor;
        value           nonuniform List<scalar> 
51
(
2.01698e-06
2.01624e-06
2.01588e-06
2.0154e-06
2.01527e-06
2.01497e-06
2.01493e-06
2.01475e-06
2.01475e-06
2.01464e-06
2.01466e-06
2.0146e-06
2.01461e-06
2.0146e-06
2.0146e-06
2.01461e-06
2.0146e-06
2.01466e-06
2.01464e-06
2.01475e-06
2.01475e-06
2.01493e-06
2.01497e-06
2.01527e-06
2.01541e-06
2.01589e-06
2.01624e-06
2.01698e-06
2.01779e-06
2.01905e-06
2.02107e-06
2.02325e-06
2.02732e-06
2.03147e-06
2.03939e-06
2.04869e-06
2.05923e-06
2.07669e-06
2.08665e-06
1.96528e-06
1.95527e-06
1.93808e-06
1.9277e-06
1.91867e-06
1.91098e-06
1.90697e-06
1.90302e-06
1.90093e-06
1.89899e-06
1.8978e-06
1.8978e-06
)
;
    }
}


// ************************************************************************* //
