/*--------------------------------*- C++ -*----------------------------------*\
| =========                 |                                                 |
| \\      /  F ield         | OpenFOAM: The Open Source CFD Toolbox           |
|  \\    /   O peration     | Version:  dev                                   |
|   \\  /    A nd           | Web:      www.OpenFOAM.org                      |
|    \\/     M anipulation  |                                                 |
\*---------------------------------------------------------------------------*/
FoamFile
{
    version     2.0;
    format      ascii;
    class       volScalarField;
    location    "0.08";
    object      HCO;
}
// * * * * * * * * * * * * * * * * * * * * * * * * * * * * * * * * * * * * * //

dimensions      [0 0 0 0 0 0 0];

internalField   nonuniform List<scalar> 
250
(
1.87804e-05
1.87802e-05
1.87793e-05
1.87801e-05
1.87808e-05
1.87802e-05
1.87826e-05
1.87921e-05
1.88601e-05
1.95725e-05
8.18555e-09
5.88692e-06
5.88718e-06
5.88686e-06
5.88746e-06
5.88732e-06
5.88784e-06
5.88899e-06
5.88776e-06
5.90844e-06
6.02918e-06
7.60642e-09
1.89181e-06
1.89203e-06
1.8919e-06
1.89228e-06
1.89209e-06
1.89245e-06
1.89378e-06
1.8902e-06
1.90198e-06
1.96726e-06
7.60432e-09
7.5381e-07
7.53954e-07
7.53901e-07
7.54124e-07
7.54e-07
7.54201e-07
7.55179e-07
7.52066e-07
7.59252e-07
8.33184e-07
7.65827e-08
3.9094e-07
3.91068e-07
3.91046e-07
3.91177e-07
3.9111e-07
3.91227e-07
3.91842e-07
3.89462e-07
3.94863e-07
4.70153e-07
2.91256e-06
2.53228e-07
2.53383e-07
2.53377e-07
2.53457e-07
2.53424e-07
2.53495e-07
2.53873e-07
2.51966e-07
2.51425e-07
3.34254e-07
3.83845e-05
1.91736e-07
1.91926e-07
1.91934e-07
1.91985e-07
1.91972e-07
1.92015e-07
1.92266e-07
1.90626e-07
1.90184e-07
2.38515e-07
1.57587e-05
1.60739e-07
1.60882e-07
1.60931e-07
1.60978e-07
1.60977e-07
1.61004e-07
1.61241e-07
1.59761e-07
1.54983e-07
1.79955e-07
6.17811e-06
1.41638e-07
1.41849e-07
1.41836e-07
1.41828e-07
1.41839e-07
1.41831e-07
1.4203e-07
1.40516e-07
1.36758e-07
1.44327e-07
2.76218e-06
1.30733e-07
1.30894e-07
1.30917e-07
1.30911e-07
1.30929e-07
1.30905e-07
1.30655e-07
1.28736e-07
1.24813e-07
1.21482e-07
1.42139e-06
1.23625e-07
1.23658e-07
1.23644e-07
1.2367e-07
1.23655e-07
1.23548e-07
1.21786e-07
1.16174e-07
1.04755e-07
8.26693e-07
1.1797e-07
1.18007e-07
1.17985e-07
1.18017e-07
1.17994e-07
1.17905e-07
1.16304e-07
1.09888e-07
9.37885e-08
5.29305e-07
1.13545e-07
1.13584e-07
1.13555e-07
1.13594e-07
1.13567e-07
1.13482e-07
1.11862e-07
1.04935e-07
8.49746e-08
3.63698e-07
1.09791e-07
1.09835e-07
1.09799e-07
1.09846e-07
1.09816e-07
1.09732e-07
1.0809e-07
1.00735e-07
7.80851e-08
2.63264e-07
1.06408e-07
1.06458e-07
1.06414e-07
1.06471e-07
1.06438e-07
1.06357e-07
1.04709e-07
9.7635e-08
7.3166e-08
1.99866e-07
1.03223e-07
1.03278e-07
1.03228e-07
1.03294e-07
1.0326e-07
1.03186e-07
1.0155e-07
9.44208e-08
6.91887e-08
1.51206e-07
1.00129e-07
1.0019e-07
1.00133e-07
1.00209e-07
1.00173e-07
1.00111e-07
9.85068e-08
9.13134e-08
6.58052e-08
1.20992e-07
9.70522e-08
9.712e-08
9.7056e-08
9.71423e-08
9.71056e-08
9.70592e-08
9.5507e-08
8.87836e-08
6.3109e-08
9.83839e-08
9.39387e-08
9.40135e-08
9.39424e-08
9.40394e-08
9.40026e-08
9.39745e-08
9.24927e-08
8.63311e-08
6.09235e-08
8.17318e-08
9.07413e-08
9.08236e-08
9.07455e-08
9.08535e-08
9.08175e-08
9.08093e-08
8.94138e-08
8.35988e-08
5.9106e-08
6.86038e-08
8.74151e-08
8.75051e-08
8.74201e-08
8.7539e-08
8.75049e-08
8.75161e-08
8.62245e-08
8.08574e-08
5.75654e-08
5.93908e-08
8.39088e-08
8.40065e-08
8.39151e-08
8.40436e-08
8.40134e-08
8.40387e-08
8.28733e-08
7.80694e-08
5.61842e-08
5.13838e-08
8.06361e-08
8.0743e-08
8.06431e-08
8.07857e-08
8.07543e-08
8.08146e-08
7.9741e-08
7.51791e-08
5.49273e-08
4.59656e-08
7.68266e-08
7.69481e-08
7.68375e-08
7.69974e-08
7.69704e-08
7.70563e-08
7.61697e-08
7.21106e-08
5.3641e-08
4.17305e-08
)
;

boundaryField
{
    fuel
    {
        type            fixedValue;
        value           uniform 0;
    }
    wall
    {
        type            zeroGradient;
    }
    outlet
    {
        type            zeroGradient;
    }
    frontAndBack
    {
        type            empty;
    }
    procBoundary3to0
    {
        type            processor;
        value           nonuniform List<scalar> 10(7.31563e-08 7.32882e-08 7.31684e-08 7.33429e-08 7.33154e-08 7.34327e-08 7.26543e-08 6.87926e-08 5.2262e-08 3.84972e-08);
    }
    procBoundary3to2
    {
        type            processor;
        value           nonuniform List<scalar> 
25
(
1.87793e-05
5.88705e-06
1.89203e-06
7.53948e-07
3.91037e-07
2.53285e-07
1.91662e-07
1.60251e-07
1.4244e-07
1.31159e-07
1.23508e-07
1.23508e-07
1.17964e-07
1.13897e-07
1.09995e-07
1.06535e-07
1.03312e-07
1.00198e-07
9.71118e-08
9.3992e-08
9.07899e-08
8.74595e-08
8.3949e-08
8.0673e-08
7.68616e-08
)
;
    }
}


// ************************************************************************* //
