/*--------------------------------*- C++ -*----------------------------------*\
| =========                 |                                                 |
| \\      /  F ield         | OpenFOAM: The Open Source CFD Toolbox           |
|  \\    /   O peration     | Version:  dev                                   |
|   \\  /    A nd           | Web:      www.OpenFOAM.org                      |
|    \\/     M anipulation  |                                                 |
\*---------------------------------------------------------------------------*/
FoamFile
{
    version     2.0;
    format      ascii;
    class       volScalarField;
    location    "0.08";
    object      i-C4H5;
}
// * * * * * * * * * * * * * * * * * * * * * * * * * * * * * * * * * * * * * //

dimensions      [0 0 0 0 0 0 0];

internalField   nonuniform List<scalar> 
1989
(
1.65206e-10
1.65311e-10
1.65357e-10
1.65427e-10
1.65443e-10
1.65488e-10
1.65491e-10
1.65519e-10
1.65517e-10
1.65534e-10
1.6553e-10
1.65539e-10
1.65537e-10
1.6554e-10
1.6554e-10
1.65537e-10
1.6554e-10
1.65531e-10
1.65534e-10
1.65517e-10
1.65519e-10
1.65491e-10
1.65488e-10
1.65443e-10
1.65427e-10
1.65356e-10
1.65311e-10
1.65207e-10
1.65093e-10
1.64914e-10
1.6463e-10
1.64349e-10
1.63755e-10
1.63202e-10
1.62043e-10
1.60735e-10
1.591e-10
1.56425e-10
1.54704e-10
1.75325e-10
1.77408e-10
1.8062e-10
1.82579e-10
1.84124e-10
1.85501e-10
1.86149e-10
1.86854e-10
1.87181e-10
1.87517e-10
1.87723e-10
1.87859e-10
1.87984e-10
1.88036e-10
1.8812e-10
1.88137e-10
1.88191e-10
1.88194e-10
1.88228e-10
1.88225e-10
1.88244e-10
1.8824e-10
1.88251e-10
1.88248e-10
1.88252e-10
1.88252e-10
1.88248e-10
1.88251e-10
1.88241e-10
1.88245e-10
1.88225e-10
1.88228e-10
1.88194e-10
1.88191e-10
1.88137e-10
1.88119e-10
1.88035e-10
1.87983e-10
1.87861e-10
1.87727e-10
1.87516e-10
1.87181e-10
1.86856e-10
1.86148e-10
1.85505e-10
1.84126e-10
1.82581e-10
1.80622e-10
1.7741e-10
1.75328e-10
2.00301e-10
2.02818e-10
2.06662e-10
2.09005e-10
2.10825e-10
2.12462e-10
2.13212e-10
2.14051e-10
2.14427e-10
2.14824e-10
2.15065e-10
2.15225e-10
2.15371e-10
2.15431e-10
2.15531e-10
2.1555e-10
2.15615e-10
2.15617e-10
2.15657e-10
2.15653e-10
2.15676e-10
2.15671e-10
2.15684e-10
2.15681e-10
2.15685e-10
2.15685e-10
2.15681e-10
2.15684e-10
2.15672e-10
2.15677e-10
2.15653e-10
2.15657e-10
2.15617e-10
2.15614e-10
2.1555e-10
2.1553e-10
2.1543e-10
2.1537e-10
2.15227e-10
2.1507e-10
2.14822e-10
2.14428e-10
2.14052e-10
2.1321e-10
2.12467e-10
2.10829e-10
2.09007e-10
2.06664e-10
2.02821e-10
2.00305e-10
2.30796e-10
2.33868e-10
2.38509e-10
2.41348e-10
2.4349e-10
2.45457e-10
2.4633e-10
2.47334e-10
2.4777e-10
2.48241e-10
2.48526e-10
2.48714e-10
2.48887e-10
2.48957e-10
2.49075e-10
2.49097e-10
2.49174e-10
2.49176e-10
2.49223e-10
2.49218e-10
2.49246e-10
2.4924e-10
2.49255e-10
2.49251e-10
2.49256e-10
2.49256e-10
2.49251e-10
2.49255e-10
2.4924e-10
2.49247e-10
2.49218e-10
2.49224e-10
2.49175e-10
2.49173e-10
2.49096e-10
2.49074e-10
2.48955e-10
2.48886e-10
2.48716e-10
2.48532e-10
2.48238e-10
2.47771e-10
2.47336e-10
2.46326e-10
2.45465e-10
2.43494e-10
2.41351e-10
2.38512e-10
2.33872e-10
2.30801e-10
2.67384e-10
2.71072e-10
2.76599e-10
2.7999e-10
2.8246e-10
2.84811e-10
2.858e-10
2.86995e-10
2.87492e-10
2.88045e-10
2.88378e-10
2.88597e-10
2.88799e-10
2.88878e-10
2.89018e-10
2.89042e-10
2.89133e-10
2.89134e-10
2.89191e-10
2.89183e-10
2.89217e-10
2.89209e-10
2.89227e-10
2.89222e-10
2.89228e-10
2.89228e-10
2.89222e-10
2.89227e-10
2.89209e-10
2.89218e-10
2.89184e-10
2.89191e-10
2.89134e-10
2.89133e-10
2.89041e-10
2.89017e-10
2.88877e-10
2.88798e-10
2.88599e-10
2.88385e-10
2.88041e-10
2.87494e-10
2.86998e-10
2.85799e-10
2.84818e-10
2.82465e-10
2.79994e-10
2.76603e-10
2.71077e-10
2.6739e-10
3.11627e-10
3.16044e-10
3.22788e-10
3.26976e-10
3.29935e-10
3.32811e-10
3.33969e-10
3.35419e-10
3.36003e-10
3.36667e-10
3.37062e-10
3.37324e-10
3.37564e-10
3.37656e-10
3.37823e-10
3.3785e-10
3.37958e-10
3.37958e-10
3.38026e-10
3.38016e-10
3.38056e-10
3.38045e-10
3.38067e-10
3.3806e-10
3.38067e-10
3.38068e-10
3.3806e-10
3.38067e-10
3.38046e-10
3.38057e-10
3.38016e-10
3.38026e-10
3.37957e-10
3.37958e-10
3.37849e-10
3.37821e-10
3.37654e-10
3.37562e-10
3.37326e-10
3.37073e-10
3.36661e-10
3.36006e-10
3.35423e-10
3.3397e-10
3.32818e-10
3.29941e-10
3.26981e-10
3.22793e-10
3.1605e-10
3.11635e-10
3.65078e-10
3.70391e-10
3.78303e-10
3.83304e-10
3.86709e-10
3.90117e-10
3.91419e-10
3.93133e-10
3.9379e-10
3.94568e-10
3.95026e-10
3.95328e-10
3.95608e-10
3.95712e-10
3.95908e-10
3.95936e-10
3.96064e-10
3.96062e-10
3.96142e-10
3.96129e-10
3.96177e-10
3.96164e-10
3.96189e-10
3.96181e-10
3.9619e-10
3.9619e-10
3.96182e-10
3.9619e-10
3.96165e-10
3.96178e-10
3.9613e-10
3.96142e-10
3.96061e-10
3.96064e-10
3.95935e-10
3.95906e-10
3.95709e-10
3.95606e-10
3.95331e-10
3.95037e-10
3.94559e-10
3.93795e-10
3.93137e-10
3.91422e-10
3.90123e-10
3.86715e-10
3.8331e-10
3.78308e-10
3.70398e-10
3.65087e-10
4.30275e-10
4.36769e-10
4.46046e-10
4.52114e-10
4.56091e-10
4.60151e-10
4.61634e-10
4.63671e-10
4.64419e-10
4.65337e-10
4.65872e-10
4.66225e-10
4.66551e-10
4.66671e-10
4.66902e-10
4.66933e-10
4.67085e-10
4.6708e-10
4.67175e-10
4.67159e-10
4.67216e-10
4.672e-10
4.6723e-10
4.6722e-10
4.6723e-10
4.67231e-10
4.67221e-10
4.67231e-10
4.67201e-10
4.67217e-10
4.6716e-10
4.67176e-10
4.6708e-10
4.67084e-10
4.66932e-10
4.669e-10
4.66668e-10
4.66549e-10
4.66227e-10
4.6588e-10
4.65329e-10
4.64426e-10
4.63676e-10
4.61637e-10
4.60158e-10
4.56098e-10
4.52121e-10
4.46052e-10
4.36776e-10
4.30285e-10
5.09917e-10
5.17708e-10
5.28455e-10
5.35756e-10
5.40349e-10
5.45123e-10
5.46793e-10
5.49185e-10
5.50026e-10
5.51096e-10
5.51715e-10
5.52121e-10
5.52499e-10
5.52634e-10
5.52904e-10
5.52938e-10
5.53115e-10
5.53108e-10
5.53219e-10
5.53199e-10
5.53265e-10
5.53246e-10
5.53282e-10
5.5327e-10
5.53282e-10
5.53282e-10
5.53271e-10
5.53283e-10
5.53248e-10
5.53267e-10
5.532e-10
5.5322e-10
5.53108e-10
5.53114e-10
5.52936e-10
5.52901e-10
5.52631e-10
5.52496e-10
5.52123e-10
5.51719e-10
5.5109e-10
5.50035e-10
5.49192e-10
5.46798e-10
5.45131e-10
5.40357e-10
5.35764e-10
5.28463e-10
5.17717e-10
5.09929e-10
6.06234e-10
6.1557e-10
6.28003e-10
6.36817e-10
6.42124e-10
6.47733e-10
6.49607e-10
6.52413e-10
6.53352e-10
6.546e-10
6.55314e-10
6.55779e-10
6.56218e-10
6.5637e-10
6.56685e-10
6.56721e-10
6.56928e-10
6.56917e-10
6.57047e-10
6.57022e-10
6.571e-10
6.57077e-10
6.57118e-10
6.57104e-10
6.57118e-10
6.57119e-10
6.57105e-10
6.5712e-10
6.57079e-10
6.57102e-10
6.57024e-10
6.57048e-10
6.56917e-10
6.56926e-10
6.56719e-10
6.56681e-10
6.56366e-10
6.56214e-10
6.5578e-10
6.55312e-10
6.54598e-10
6.53365e-10
6.52421e-10
6.49613e-10
6.47742e-10
6.42134e-10
6.36827e-10
6.28012e-10
6.15581e-10
6.06248e-10
7.22876e-10
7.34057e-10
7.4848e-10
7.57087e-10
7.63215e-10
7.69852e-10
7.71929e-10
7.75241e-10
7.76284e-10
7.77735e-10
7.78558e-10
7.79089e-10
7.79602e-10
7.79772e-10
7.80141e-10
7.80176e-10
7.8042e-10
7.80403e-10
7.80557e-10
7.80525e-10
7.80616e-10
7.80588e-10
7.80637e-10
7.8062e-10
7.80636e-10
7.80637e-10
7.80621e-10
7.80639e-10
7.8059e-10
7.80619e-10
7.80527e-10
7.80557e-10
7.80403e-10
7.80418e-10
7.80174e-10
7.80136e-10
7.79767e-10
7.79598e-10
7.79091e-10
7.7855e-10
7.77738e-10
7.763e-10
7.75251e-10
7.71937e-10
7.69862e-10
7.63227e-10
7.57099e-10
7.48491e-10
7.34069e-10
7.22892e-10
8.62122e-10
8.75485e-10
8.92346e-10
9.02943e-10
9.10033e-10
9.17896e-10
9.20284e-10
9.24389e-10
9.25631e-10
9.27404e-10
9.28401e-10
9.29048e-10
9.29675e-10
9.29879e-10
9.30331e-10
9.30371e-10
9.3067e-10
9.30648e-10
9.30837e-10
9.30797e-10
9.30909e-10
9.30874e-10
9.30934e-10
9.30913e-10
9.30934e-10
9.30934e-10
9.30914e-10
9.30936e-10
9.30877e-10
9.30912e-10
9.30799e-10
9.30838e-10
9.30648e-10
9.30669e-10
9.30368e-10
9.30325e-10
9.29873e-10
9.2967e-10
9.29047e-10
9.28393e-10
9.27412e-10
9.25647e-10
9.24401e-10
9.20294e-10
9.17908e-10
9.10048e-10
9.02956e-10
8.9236e-10
8.755e-10
8.62142e-10
1.03355e-09
1.04991e-09
1.07007e-09
1.08305e-09
1.0913e-09
1.10057e-09
1.10323e-09
1.10805e-09
1.10943e-09
1.11149e-09
1.11263e-09
1.11337e-09
1.1141e-09
1.11433e-09
1.11485e-09
1.11489e-09
1.11524e-09
1.11521e-09
1.11543e-09
1.11539e-09
1.11552e-09
1.11547e-09
1.11554e-09
1.11552e-09
1.11554e-09
1.11554e-09
1.11552e-09
1.11555e-09
1.11548e-09
1.11552e-09
1.11539e-09
1.11544e-09
1.11521e-09
1.11524e-09
1.11489e-09
1.11485e-09
1.11432e-09
1.11409e-09
1.11337e-09
1.11261e-09
1.1115e-09
1.10944e-09
1.10806e-09
1.10324e-09
1.10059e-09
1.09131e-09
1.08306e-09
1.07009e-09
1.04993e-09
1.03357e-09
1.24436e-09
1.26401e-09
1.28763e-09
1.30327e-09
1.3129e-09
1.32387e-09
1.32683e-09
1.33251e-09
1.33403e-09
1.33644e-09
1.33774e-09
1.33861e-09
1.33945e-09
1.33971e-09
1.34032e-09
1.34037e-09
1.34077e-09
1.34073e-09
1.34099e-09
1.34093e-09
1.34109e-09
1.34104e-09
1.34112e-09
1.34109e-09
1.34112e-09
1.34112e-09
1.34109e-09
1.34112e-09
1.34104e-09
1.34109e-09
1.34094e-09
1.341e-09
1.34073e-09
1.34077e-09
1.34036e-09
1.34032e-09
1.3397e-09
1.33945e-09
1.3386e-09
1.33773e-09
1.33645e-09
1.33405e-09
1.33253e-09
1.32684e-09
1.32389e-09
1.31292e-09
1.30329e-09
1.28765e-09
1.26403e-09
1.24438e-09
1.49935e-09
1.52312e-09
1.55076e-09
1.5698e-09
1.58094e-09
1.59408e-09
1.59731e-09
1.60409e-09
1.60573e-09
1.60857e-09
1.61005e-09
1.61106e-09
1.61205e-09
1.61234e-09
1.61306e-09
1.6131e-09
1.61358e-09
1.61352e-09
1.61383e-09
1.61376e-09
1.61394e-09
1.61388e-09
1.61397e-09
1.61394e-09
1.61397e-09
1.61397e-09
1.61394e-09
1.61398e-09
1.61388e-09
1.61394e-09
1.61376e-09
1.61383e-09
1.61352e-09
1.61358e-09
1.61309e-09
1.61305e-09
1.61233e-09
1.61204e-09
1.61106e-09
1.61004e-09
1.60858e-09
1.60575e-09
1.6041e-09
1.59732e-09
1.5941e-09
1.58097e-09
1.56982e-09
1.55078e-09
1.52315e-09
1.49938e-09
1.81458e-09
1.84308e-09
1.8756e-09
1.89894e-09
1.91216e-09
1.92849e-09
1.93217e-09
1.94052e-09
1.94237e-09
1.94582e-09
1.94758e-09
1.94881e-09
1.95e-09
1.95032e-09
1.95118e-09
1.9512e-09
1.95177e-09
1.95169e-09
1.95206e-09
1.95196e-09
1.95218e-09
1.9521e-09
1.95221e-09
1.95217e-09
1.95221e-09
1.95221e-09
1.95217e-09
1.95222e-09
1.9521e-09
1.95218e-09
1.95196e-09
1.95206e-09
1.95169e-09
1.95177e-09
1.95119e-09
1.95117e-09
1.95031e-09
1.94999e-09
1.9488e-09
1.94756e-09
1.94584e-09
1.94239e-09
1.94054e-09
1.93219e-09
1.92852e-09
1.91219e-09
1.89897e-09
1.87562e-09
1.84311e-09
1.81462e-09
2.20615e-09
2.24059e-09
2.27901e-09
2.30763e-09
2.32294e-09
2.34265e-09
2.34662e-09
2.35664e-09
2.35861e-09
2.36269e-09
2.3647e-09
2.36615e-09
2.36754e-09
2.3679e-09
2.36892e-09
2.36893e-09
2.36961e-09
2.36951e-09
2.36994e-09
2.36982e-09
2.37008e-09
2.36998e-09
2.37012e-09
2.37006e-09
2.37011e-09
2.37011e-09
2.37006e-09
2.37012e-09
2.36999e-09
2.37009e-09
2.36982e-09
2.36995e-09
2.36951e-09
2.36961e-09
2.36892e-09
2.36891e-09
2.36789e-09
2.36753e-09
2.36614e-09
2.36469e-09
2.36271e-09
2.35863e-09
2.35666e-09
2.34665e-09
2.34268e-09
2.32298e-09
2.30766e-09
2.27904e-09
2.24062e-09
2.2062e-09
2.69592e-09
2.73782e-09
2.78338e-09
2.81868e-09
2.83656e-09
2.8605e-09
2.86468e-09
2.87674e-09
2.87876e-09
2.88361e-09
2.88593e-09
2.88764e-09
2.88929e-09
2.88968e-09
2.8909e-09
2.89088e-09
2.89171e-09
2.89156e-09
2.89209e-09
2.89193e-09
2.89225e-09
2.89212e-09
2.89229e-09
2.89222e-09
2.89228e-09
2.89228e-09
2.89222e-09
2.8923e-09
2.89213e-09
2.89225e-09
2.89194e-09
2.89209e-09
2.89156e-09
2.8917e-09
2.89088e-09
2.89088e-09
2.88966e-09
2.88927e-09
2.88763e-09
2.88592e-09
2.88363e-09
2.87878e-09
2.87677e-09
2.86471e-09
2.86054e-09
2.83661e-09
2.81872e-09
2.78342e-09
2.73786e-09
2.69597e-09
3.31495e-09
3.36765e-09
3.42324e-09
3.46304e-09
3.48409e-09
3.51335e-09
3.51988e-09
3.53667e-09
3.5399e-09
3.54612e-09
3.54887e-09
3.55095e-09
3.55291e-09
3.55337e-09
3.55484e-09
3.5548e-09
3.55581e-09
3.55562e-09
3.55626e-09
3.55606e-09
3.55644e-09
3.55629e-09
3.55649e-09
3.55641e-09
3.55648e-09
3.55648e-09
3.55641e-09
3.5565e-09
3.5563e-09
3.55646e-09
3.55607e-09
3.55627e-09
3.55562e-09
3.5558e-09
3.5548e-09
3.55482e-09
3.55334e-09
3.55289e-09
3.55092e-09
3.54885e-09
3.54615e-09
3.53995e-09
3.53673e-09
3.51993e-09
3.5134e-09
3.48415e-09
3.46309e-09
3.42329e-09
3.3677e-09
3.31502e-09
4.10175e-09
4.16692e-09
4.23361e-09
4.2835e-09
4.30849e-09
4.34447e-09
4.35128e-09
4.37169e-09
4.37497e-09
4.38248e-09
4.38567e-09
4.38817e-09
4.39051e-09
4.39101e-09
4.39279e-09
4.39271e-09
4.39393e-09
4.39368e-09
4.39446e-09
4.39421e-09
4.39467e-09
4.39448e-09
4.39473e-09
4.39462e-09
4.39471e-09
4.39471e-09
4.39463e-09
4.39474e-09
4.39449e-09
4.39469e-09
4.39422e-09
4.39447e-09
4.39368e-09
4.39393e-09
4.3927e-09
4.39277e-09
4.39098e-09
4.39048e-09
4.38814e-09
4.38565e-09
4.38251e-09
4.37503e-09
4.37175e-09
4.35135e-09
4.34454e-09
4.30856e-09
4.28356e-09
4.23367e-09
4.16698e-09
4.10183e-09
5.11543e-09
5.197e-09
5.27781e-09
5.34027e-09
5.37019e-09
5.41475e-09
5.42183e-09
5.4471e-09
5.45044e-09
5.45963e-09
5.46335e-09
5.46639e-09
5.46919e-09
5.46973e-09
5.47192e-09
5.47177e-09
5.47327e-09
5.47294e-09
5.47389e-09
5.47357e-09
5.47414e-09
5.47389e-09
5.47419e-09
5.47406e-09
5.47416e-09
5.47417e-09
5.47407e-09
5.47421e-09
5.47391e-09
5.47415e-09
5.47358e-09
5.4739e-09
5.47293e-09
5.47326e-09
5.47176e-09
5.47189e-09
5.4697e-09
5.46916e-09
5.46635e-09
5.46333e-09
5.45966e-09
5.4505e-09
5.44718e-09
5.42191e-09
5.41484e-09
5.37027e-09
5.34034e-09
5.27788e-09
5.19709e-09
5.11552e-09
6.43903e-09
6.54236e-09
6.6412e-09
6.72156e-09
6.75908e-09
6.81627e-09
6.82388e-09
6.85639e-09
6.85988e-09
6.87158e-09
6.87607e-09
6.87991e-09
6.88337e-09
6.88401e-09
6.88676e-09
6.88653e-09
6.88843e-09
6.88798e-09
6.8892e-09
6.88877e-09
6.88949e-09
6.88917e-09
6.88955e-09
6.88938e-09
6.88952e-09
6.88952e-09
6.88939e-09
6.88957e-09
6.88919e-09
6.88951e-09
6.88879e-09
6.88921e-09
6.88798e-09
6.88842e-09
6.88652e-09
6.88672e-09
6.88397e-09
6.88333e-09
6.87986e-09
6.87604e-09
6.87162e-09
6.85996e-09
6.85649e-09
6.82399e-09
6.81638e-09
6.75918e-09
6.72166e-09
6.64129e-09
6.54248e-09
6.43914e-09
8.19515e-09
8.32569e-09
8.44855e-09
8.55042e-09
8.5962e-09
8.66829e-09
8.67557e-09
8.71694e-09
8.72013e-09
8.73485e-09
8.74009e-09
8.74485e-09
8.74907e-09
8.74976e-09
8.75318e-09
8.75282e-09
8.7552e-09
8.75459e-09
8.75611e-09
8.75555e-09
8.75646e-09
8.75604e-09
8.75652e-09
8.7563e-09
8.75647e-09
8.75647e-09
8.75631e-09
8.75654e-09
8.75607e-09
8.75648e-09
8.75557e-09
8.75613e-09
8.75459e-09
8.75519e-09
8.7528e-09
8.75313e-09
8.74971e-09
8.74901e-09
8.74479e-09
8.74005e-09
8.73489e-09
8.72023e-09
8.71706e-09
8.6757e-09
8.66843e-09
8.59633e-09
8.55053e-09
8.44866e-09
8.32586e-09
8.19528e-09
1.05643e-08
1.07375e-08
1.08971e-08
1.10304e-08
1.10889e-08
1.11822e-08
1.11893e-08
1.12433e-08
1.12462e-08
1.12653e-08
1.12715e-08
1.12776e-08
1.12829e-08
1.12837e-08
1.12881e-08
1.12876e-08
1.12906e-08
1.12898e-08
1.12917e-08
1.1291e-08
1.12922e-08
1.12916e-08
1.12922e-08
1.12919e-08
1.12922e-08
1.12922e-08
1.1292e-08
1.12923e-08
1.12917e-08
1.12922e-08
1.1291e-08
1.12918e-08
1.12898e-08
1.12906e-08
1.12876e-08
1.1288e-08
1.12837e-08
1.12829e-08
1.12776e-08
1.12715e-08
1.12653e-08
1.12463e-08
1.12435e-08
1.11894e-08
1.11824e-08
1.10891e-08
1.10306e-08
1.08973e-08
1.07378e-08
1.05644e-08
1.38071e-08
1.40286e-08
1.42297e-08
1.44002e-08
1.44726e-08
1.45919e-08
1.45964e-08
1.46666e-08
1.4668e-08
1.46925e-08
1.46997e-08
1.47073e-08
1.47138e-08
1.47147e-08
1.47202e-08
1.47194e-08
1.47232e-08
1.47221e-08
1.47246e-08
1.47236e-08
1.47251e-08
1.47244e-08
1.47252e-08
1.47248e-08
1.47251e-08
1.47251e-08
1.47248e-08
1.47252e-08
1.47244e-08
1.47251e-08
1.47237e-08
1.47246e-08
1.47221e-08
1.47232e-08
1.47194e-08
1.47201e-08
1.47146e-08
1.47138e-08
1.47072e-08
1.46996e-08
1.46926e-08
1.46682e-08
1.46668e-08
1.45966e-08
1.45921e-08
1.44728e-08
1.44004e-08
1.42298e-08
1.4029e-08
1.38072e-08
1.8278e-08
1.8561e-08
1.88139e-08
1.90405e-08
1.91349e-08
1.92907e-08
1.92919e-08
1.93844e-08
1.93838e-08
1.94158e-08
1.94241e-08
1.94338e-08
1.9442e-08
1.9443e-08
1.94499e-08
1.94488e-08
1.94537e-08
1.94522e-08
1.94554e-08
1.94541e-08
1.9456e-08
1.94551e-08
1.94561e-08
1.94556e-08
1.94559e-08
1.94559e-08
1.94556e-08
1.94561e-08
1.94551e-08
1.94561e-08
1.94542e-08
1.94555e-08
1.94522e-08
1.94537e-08
1.94488e-08
1.94498e-08
1.94429e-08
1.94419e-08
1.94337e-08
1.9424e-08
1.94158e-08
1.9384e-08
1.93847e-08
1.92922e-08
1.9291e-08
1.91352e-08
1.90408e-08
1.88141e-08
1.85617e-08
1.82779e-08
2.4457e-08
2.48138e-08
2.5121e-08
2.53962e-08
2.55127e-08
2.56996e-08
2.56941e-08
2.58075e-08
2.5803e-08
2.58418e-08
2.58503e-08
2.58617e-08
2.58711e-08
2.5872e-08
2.58802e-08
2.58787e-08
2.58845e-08
2.58826e-08
2.58863e-08
2.58847e-08
2.58869e-08
2.58858e-08
2.58869e-08
2.58864e-08
2.58868e-08
2.58868e-08
2.58864e-08
2.5887e-08
2.58859e-08
2.5887e-08
2.58848e-08
2.58864e-08
2.58826e-08
2.58845e-08
2.58786e-08
2.58801e-08
2.58719e-08
2.5871e-08
2.58616e-08
2.58502e-08
2.58418e-08
2.58032e-08
2.58079e-08
2.56944e-08
2.57e-08
2.55131e-08
2.53964e-08
2.51213e-08
2.48148e-08
2.44568e-08
3.26565e-08
3.30636e-08
3.34049e-08
3.37131e-08
3.37369e-08
3.39497e-08
3.393e-08
3.40625e-08
3.40506e-08
3.40948e-08
3.4102e-08
3.41141e-08
3.41241e-08
3.41245e-08
3.41334e-08
3.41313e-08
3.41377e-08
3.41353e-08
3.41395e-08
3.41375e-08
3.414e-08
3.41387e-08
3.41399e-08
3.41393e-08
3.41397e-08
3.41397e-08
3.41393e-08
3.414e-08
3.41388e-08
3.41401e-08
3.41376e-08
3.41396e-08
3.41353e-08
3.41377e-08
3.41312e-08
3.41333e-08
3.41243e-08
3.41239e-08
3.41139e-08
3.41019e-08
3.40948e-08
3.40508e-08
3.40628e-08
3.39303e-08
3.39501e-08
3.37373e-08
3.37134e-08
3.34051e-08
3.30653e-08
3.26559e-08
4.27178e-08
4.31337e-08
4.34717e-08
4.37908e-08
4.38069e-08
4.40244e-08
4.39847e-08
4.41247e-08
4.41026e-08
4.41477e-08
4.41513e-08
4.41623e-08
4.41714e-08
4.41708e-08
4.41794e-08
4.41765e-08
4.41829e-08
4.418e-08
4.41842e-08
4.41819e-08
4.41844e-08
4.41829e-08
4.41842e-08
4.41834e-08
4.41839e-08
4.41839e-08
4.41835e-08
4.41842e-08
4.4183e-08
4.41845e-08
4.4182e-08
4.41842e-08
4.418e-08
4.41829e-08
4.41765e-08
4.41792e-08
4.41707e-08
4.41712e-08
4.41621e-08
4.41511e-08
4.41476e-08
4.41028e-08
4.4125e-08
4.39851e-08
4.40248e-08
4.38073e-08
4.37911e-08
4.34719e-08
4.31362e-08
4.27162e-08
5.42399e-08
5.4603e-08
5.48841e-08
5.51694e-08
5.51559e-08
5.53478e-08
5.52842e-08
5.54139e-08
5.53798e-08
5.54191e-08
5.54168e-08
5.54245e-08
5.54307e-08
5.54285e-08
5.54353e-08
5.54317e-08
5.54369e-08
5.54337e-08
5.54372e-08
5.54349e-08
5.54369e-08
5.54356e-08
5.54365e-08
5.54358e-08
5.54362e-08
5.54362e-08
5.54359e-08
5.54366e-08
5.54356e-08
5.5437e-08
5.5435e-08
5.54373e-08
5.54337e-08
5.54369e-08
5.54316e-08
5.54352e-08
5.54284e-08
5.54305e-08
5.54243e-08
5.54165e-08
5.5419e-08
5.538e-08
5.54142e-08
5.52845e-08
5.53482e-08
5.51563e-08
5.51696e-08
5.48843e-08
5.46059e-08
5.42378e-08
6.62746e-08
6.65135e-08
6.66964e-08
6.69042e-08
6.68463e-08
6.69838e-08
6.68959e-08
6.69978e-08
6.69519e-08
6.69791e-08
6.69691e-08
6.69716e-08
6.69733e-08
6.69693e-08
6.69728e-08
6.69686e-08
6.69718e-08
6.69685e-08
6.69707e-08
6.69686e-08
6.69698e-08
6.69686e-08
6.69691e-08
6.69686e-08
6.69688e-08
6.69688e-08
6.69686e-08
6.69692e-08
6.69686e-08
6.69698e-08
6.69686e-08
6.69708e-08
6.69685e-08
6.69718e-08
6.69686e-08
6.69728e-08
6.69692e-08
6.69732e-08
6.69714e-08
6.69689e-08
6.69789e-08
6.6952e-08
6.69981e-08
6.68962e-08
6.69842e-08
6.68466e-08
6.69044e-08
6.66965e-08
6.65167e-08
6.62717e-08
7.78432e-08
7.7919e-08
7.79788e-08
7.80776e-08
7.79728e-08
7.80358e-08
7.79297e-08
7.79905e-08
7.79358e-08
7.79465e-08
7.7929e-08
7.79252e-08
7.79217e-08
7.79157e-08
7.79154e-08
7.79107e-08
7.79113e-08
7.79081e-08
7.79087e-08
7.79069e-08
7.79071e-08
7.79062e-08
7.79062e-08
7.79058e-08
7.79058e-08
7.79058e-08
7.79058e-08
7.79062e-08
7.79062e-08
7.79071e-08
7.79069e-08
7.79087e-08
7.79081e-08
7.79113e-08
7.79107e-08
7.79153e-08
7.79156e-08
7.79216e-08
7.7925e-08
7.79288e-08
7.79463e-08
7.79358e-08
7.79907e-08
7.79299e-08
7.8036e-08
7.7973e-08
7.80776e-08
7.79788e-08
7.7919e-08
7.78431e-08
8.80972e-08
8.80029e-08
8.78529e-08
8.78435e-08
8.76938e-08
8.76852e-08
8.7564e-08
8.75843e-08
8.75224e-08
8.75171e-08
8.74929e-08
8.7483e-08
8.74747e-08
8.74668e-08
8.74629e-08
8.74577e-08
8.74559e-08
8.74529e-08
8.74519e-08
8.74504e-08
8.74496e-08
8.7449e-08
8.74485e-08
8.74483e-08
8.74481e-08
8.74481e-08
8.74483e-08
8.74485e-08
8.7449e-08
8.74496e-08
8.74504e-08
8.74519e-08
8.74529e-08
8.74559e-08
8.74577e-08
8.74629e-08
8.74668e-08
8.74746e-08
8.74829e-08
8.74926e-08
8.75169e-08
8.75223e-08
8.75844e-08
8.75641e-08
8.76854e-08
8.76939e-08
8.78435e-08
8.78528e-08
8.80024e-08
8.80971e-08
9.64939e-08
9.62623e-08
9.60216e-08
9.59223e-08
9.57297e-08
9.56721e-08
9.55427e-08
9.55285e-08
9.54627e-08
9.5444e-08
9.5415e-08
9.54003e-08
9.53882e-08
9.53788e-08
9.5372e-08
9.53665e-08
9.53627e-08
9.53598e-08
9.53576e-08
9.53563e-08
9.53548e-08
9.53545e-08
9.53535e-08
9.53535e-08
9.53531e-08
9.53531e-08
9.53534e-08
9.53534e-08
9.53544e-08
9.53548e-08
9.53563e-08
9.53576e-08
9.53598e-08
9.53628e-08
9.53665e-08
9.5372e-08
9.53788e-08
9.53881e-08
9.54002e-08
9.54148e-08
9.54437e-08
9.54626e-08
9.55285e-08
9.55427e-08
9.56722e-08
9.57298e-08
9.59222e-08
9.60214e-08
9.62612e-08
9.6494e-08
1.03001e-07
1.02666e-07
1.02359e-07
1.02185e-07
1.0197e-07
1.01865e-07
1.01732e-07
1.0169e-07
1.01623e-07
1.01593e-07
1.01561e-07
1.01542e-07
1.01528e-07
1.01517e-07
1.01508e-07
1.01502e-07
1.01497e-07
1.01494e-07
1.01491e-07
1.0149e-07
1.01488e-07
1.01488e-07
1.01486e-07
1.01487e-07
1.01486e-07
1.01486e-07
1.01486e-07
1.01486e-07
1.01488e-07
1.01488e-07
1.0149e-07
1.01491e-07
1.01494e-07
1.01497e-07
1.01502e-07
1.01508e-07
1.01517e-07
1.01528e-07
1.01542e-07
1.01561e-07
1.01593e-07
1.01622e-07
1.0169e-07
1.01732e-07
1.01865e-07
1.0197e-07
1.02185e-07
1.02359e-07
1.02665e-07
1.03001e-07
1.07623e-07
1.0722e-07
1.06874e-07
1.06649e-07
1.06423e-07
1.06286e-07
1.06156e-07
1.06093e-07
1.06027e-07
1.0599e-07
1.05956e-07
1.05935e-07
1.05919e-07
1.05907e-07
1.05897e-07
1.05891e-07
1.05885e-07
1.05882e-07
1.05878e-07
1.05877e-07
1.05875e-07
1.05875e-07
1.05873e-07
1.05873e-07
1.05873e-07
1.05873e-07
1.05873e-07
1.05873e-07
1.05875e-07
1.05875e-07
1.05877e-07
1.05878e-07
1.05882e-07
1.05885e-07
1.05891e-07
1.05897e-07
1.05907e-07
1.05919e-07
1.05935e-07
1.05956e-07
1.05989e-07
1.06026e-07
1.06092e-07
1.06156e-07
1.06286e-07
1.06422e-07
1.06649e-07
1.06874e-07
1.07219e-07
1.07623e-07
1.10484e-07
1.10046e-07
1.09688e-07
1.09434e-07
1.09208e-07
1.09055e-07
1.0893e-07
1.08856e-07
1.08793e-07
1.08751e-07
1.08718e-07
1.08696e-07
1.08679e-07
1.08667e-07
1.08656e-07
1.0865e-07
1.08643e-07
1.08641e-07
1.08637e-07
1.08636e-07
1.08633e-07
1.08633e-07
1.08631e-07
1.08632e-07
1.08631e-07
1.08631e-07
1.08632e-07
1.08631e-07
1.08633e-07
1.08633e-07
1.08636e-07
1.08637e-07
1.08641e-07
1.08643e-07
1.0865e-07
1.08656e-07
1.08667e-07
1.08679e-07
1.08696e-07
1.08718e-07
1.08751e-07
1.08792e-07
1.08856e-07
1.0893e-07
1.09055e-07
1.09208e-07
1.09434e-07
1.09688e-07
1.10044e-07
1.10484e-07
1.11894e-07
1.11446e-07
1.11097e-07
1.10834e-07
1.10614e-07
1.10457e-07
1.1034e-07
1.10261e-07
1.10201e-07
1.10158e-07
1.10126e-07
1.10104e-07
1.10087e-07
1.10075e-07
1.10064e-07
1.10058e-07
1.10051e-07
1.10049e-07
1.10045e-07
1.10044e-07
1.10041e-07
1.10041e-07
1.10039e-07
1.1004e-07
1.10039e-07
1.10039e-07
1.1004e-07
1.10039e-07
1.10041e-07
1.10041e-07
1.10044e-07
1.10045e-07
1.10049e-07
1.10051e-07
1.10058e-07
1.10064e-07
1.10075e-07
1.10087e-07
1.10104e-07
1.10126e-07
1.10158e-07
1.10201e-07
1.10261e-07
1.1034e-07
1.10457e-07
1.10614e-07
1.10834e-07
1.11097e-07
1.11443e-07
1.11894e-07
1.12346e-07
1.11902e-07
1.11574e-07
1.11316e-07
1.11106e-07
1.10953e-07
1.10842e-07
1.10764e-07
1.10707e-07
1.10665e-07
1.10634e-07
1.10612e-07
1.10596e-07
1.10584e-07
1.10574e-07
1.10568e-07
1.10561e-07
1.10558e-07
1.10555e-07
1.10554e-07
1.10551e-07
1.10551e-07
1.10549e-07
1.1055e-07
1.10549e-07
1.10549e-07
1.1055e-07
1.10549e-07
1.10551e-07
1.10551e-07
1.10553e-07
1.10555e-07
1.10558e-07
1.10561e-07
1.10568e-07
1.10574e-07
1.10584e-07
1.10596e-07
1.10612e-07
1.10634e-07
1.10665e-07
1.10707e-07
1.10764e-07
1.10842e-07
1.10952e-07
1.11105e-07
1.11315e-07
1.11574e-07
1.11899e-07
1.12347e-07
1.12376e-07
1.11932e-07
1.11626e-07
1.11375e-07
1.11172e-07
1.11025e-07
1.10919e-07
1.10843e-07
1.10788e-07
1.10748e-07
1.10718e-07
1.10696e-07
1.1068e-07
1.10669e-07
1.10658e-07
1.10652e-07
1.10646e-07
1.10644e-07
1.1064e-07
1.10639e-07
1.10636e-07
1.10636e-07
1.10635e-07
1.10635e-07
1.10634e-07
1.10634e-07
1.10635e-07
1.10635e-07
1.10636e-07
1.10636e-07
1.10639e-07
1.1064e-07
1.10643e-07
1.10646e-07
1.10652e-07
1.10659e-07
1.10669e-07
1.1068e-07
1.10696e-07
1.10717e-07
1.10747e-07
1.10788e-07
1.10843e-07
1.10919e-07
1.11025e-07
1.11172e-07
1.11374e-07
1.11626e-07
1.11928e-07
1.12377e-07
)
;

boundaryField
{
    fuel
    {
        type            fixedValue;
        value           nonuniform 0();
    }
    wall
    {
        type            zeroGradient;
    }
    outlet
    {
        type            zeroGradient;
    }
    frontAndBack
    {
        type            empty;
    }
    procBoundary3to2
    {
        type            processor;
        value           nonuniform List<scalar> 
51
(
1.46474e-10
1.46564e-10
1.46603e-10
1.46663e-10
1.46677e-10
1.46714e-10
1.46717e-10
1.46741e-10
1.46739e-10
1.46753e-10
1.46751e-10
1.46758e-10
1.46756e-10
1.46759e-10
1.46759e-10
1.46756e-10
1.46758e-10
1.46751e-10
1.46753e-10
1.4674e-10
1.46741e-10
1.46717e-10
1.46714e-10
1.46676e-10
1.46662e-10
1.46603e-10
1.46563e-10
1.46476e-10
1.46379e-10
1.46228e-10
1.45987e-10
1.45745e-10
1.45248e-10
1.44774e-10
1.43801e-10
1.42696e-10
1.41335e-10
1.39109e-10
1.3769e-10
1.54701e-10
1.56423e-10
1.59099e-10
1.60734e-10
1.62041e-10
1.632e-10
1.63756e-10
1.64348e-10
1.6463e-10
1.64916e-10
1.6509e-10
1.6509e-10
)
;
    }
}


// ************************************************************************* //
