/*--------------------------------*- C++ -*----------------------------------*\
| =========                 |                                                 |
| \\      /  F ield         | OpenFOAM: The Open Source CFD Toolbox           |
|  \\    /   O peration     | Version:  dev                                   |
|   \\  /    A nd           | Web:      www.OpenFOAM.org                      |
|    \\/     M anipulation  |                                                 |
\*---------------------------------------------------------------------------*/
FoamFile
{
    version     2.0;
    format      ascii;
    class       volScalarField;
    location    "0.08";
    object      n-A1C2H2;
}
// * * * * * * * * * * * * * * * * * * * * * * * * * * * * * * * * * * * * * //

dimensions      [0 0 0 0 0 0 0];

internalField   nonuniform List<scalar> 
250
(
6.55303e-09
6.5637e-09
6.54208e-09
6.53804e-09
6.53699e-09
6.54394e-09
6.54127e-09
6.57363e-09
6.89692e-09
9.93872e-09
2.13438e-11
3.14274e-09
3.14477e-09
3.14142e-09
3.14005e-09
3.14021e-09
3.14179e-09
3.14291e-09
3.16243e-09
3.34673e-09
5.2174e-09
2.10196e-10
1.50451e-09
1.50517e-09
1.50515e-09
1.50431e-09
1.50484e-09
1.50511e-09
1.5066e-09
1.51973e-09
1.63995e-09
2.98081e-09
4.94788e-10
7.66027e-10
7.67086e-10
7.67621e-10
7.67032e-10
7.67539e-10
7.67526e-10
7.6873e-10
7.77954e-10
8.62323e-10
1.90926e-09
7.41154e-10
4.26062e-10
4.28572e-10
4.2905e-10
4.28647e-10
4.29007e-10
4.28954e-10
4.29747e-10
4.3605e-10
4.98518e-10
1.35258e-09
8.40701e-10
2.59719e-10
2.58305e-10
2.58786e-10
2.58487e-10
2.58835e-10
2.58823e-10
2.59596e-10
2.6556e-10
3.17096e-10
1.0296e-09
8.09921e-10
1.71252e-10
1.72072e-10
1.72312e-10
1.72103e-10
1.72331e-10
1.72298e-10
1.72225e-10
1.76697e-10
2.19109e-10
8.13925e-10
8.94067e-10
1.19439e-10
1.18638e-10
1.18673e-10
1.18525e-10
1.1869e-10
1.18627e-10
1.19837e-10
1.2599e-10
1.62196e-10
6.65803e-10
1.2058e-09
8.77546e-11
8.87e-11
8.86203e-11
8.85104e-11
8.86271e-11
8.85476e-11
8.91173e-11
9.31779e-11
1.23279e-10
5.53812e-10
1.63229e-09
6.75697e-11
6.94588e-11
6.93776e-11
6.92943e-11
6.93849e-11
6.93017e-11
6.97016e-11
7.32463e-11
9.656e-11
4.64767e-10
1.85578e-09
5.53398e-11
5.5306e-11
5.52376e-11
5.53257e-11
5.52411e-11
5.56395e-11
5.91654e-11
8.00058e-11
3.91661e-10
1.88534e-09
4.51863e-11
4.51845e-11
4.51335e-11
4.52139e-11
4.51525e-11
4.55205e-11
4.8605e-11
6.65412e-11
3.30207e-10
1.62112e-09
3.78914e-11
3.79016e-11
3.78611e-11
3.79391e-11
3.79054e-11
3.82569e-11
4.10123e-11
5.72013e-11
2.77895e-10
1.20595e-09
3.24837e-11
3.24925e-11
3.24575e-11
3.2535e-11
3.25274e-11
3.28681e-11
3.53665e-11
4.98097e-11
2.25618e-10
8.39321e-10
2.83524e-11
2.83557e-11
2.83231e-11
2.84004e-11
2.84135e-11
2.87456e-11
3.1031e-11
4.33418e-11
1.87877e-10
5.69699e-10
2.51069e-11
2.51059e-11
2.50741e-11
2.51509e-11
2.51784e-11
2.55023e-11
2.76041e-11
3.81199e-11
1.56511e-10
3.83851e-10
2.24947e-11
2.24926e-11
2.2461e-11
2.25368e-11
2.25731e-11
2.28882e-11
2.48262e-11
3.38312e-11
1.30478e-10
2.61971e-10
2.03516e-11
2.03506e-11
2.03194e-11
2.03934e-11
2.0434e-11
2.07396e-11
2.25271e-11
3.02616e-11
1.08978e-10
1.84805e-10
1.85687e-11
1.857e-11
1.85395e-11
1.86108e-11
1.86529e-11
1.89477e-11
2.05938e-11
2.72611e-11
9.14914e-11
1.36439e-10
1.70729e-11
1.70765e-11
1.70472e-11
1.71148e-11
1.71563e-11
1.74392e-11
1.89496e-11
2.47206e-11
7.52869e-11
1.05714e-10
1.58137e-11
1.58189e-11
1.57915e-11
1.5854e-11
1.58939e-11
1.61636e-11
1.75409e-11
2.25732e-11
6.25106e-11
8.56471e-11
1.47551e-11
1.47608e-11
1.47361e-11
1.47922e-11
1.48297e-11
1.50851e-11
1.63289e-11
2.07654e-11
5.31573e-11
7.20056e-11
1.39802e-11
1.39846e-11
1.3963e-11
1.40125e-11
1.40483e-11
1.42882e-11
1.5427e-11
1.92544e-11
4.52035e-11
6.2264e-11
1.33165e-11
1.33211e-11
1.3301e-11
1.33467e-11
1.33801e-11
1.36059e-11
1.46849e-11
1.8002e-11
3.90932e-11
5.49583e-11
)
;

boundaryField
{
    fuel
    {
        type            fixedValue;
        value           uniform 0;
    }
    wall
    {
        type            zeroGradient;
    }
    outlet
    {
        type            zeroGradient;
    }
    frontAndBack
    {
        type            empty;
    }
    procBoundary3to0
    {
        type            processor;
        value           nonuniform List<scalar> 10(1.28434e-11 1.28451e-11 1.2829e-11 1.28667e-11 1.28985e-11 1.31055e-11 1.40791e-11 1.70993e-11 3.42975e-11 4.92765e-11);
    }
    procBoundary3to2
    {
        type            processor;
        value           nonuniform List<scalar> 
25
(
6.54247e-09
3.14066e-09
1.50381e-09
7.65748e-10
4.26118e-10
2.60286e-10
1.7307e-10
1.18785e-10
8.83031e-11
6.86475e-11
5.39533e-11
5.39533e-11
4.451e-11
3.73936e-11
3.19953e-11
2.79224e-11
2.47458e-11
2.21976e-11
2.01089e-11
1.8371e-11
1.69121e-11
1.56833e-11
1.46508e-11
1.38943e-11
1.3245e-11
)
;
    }
}


// ************************************************************************* //
