/*--------------------------------*- C++ -*----------------------------------*\
| =========                 |                                                 |
| \\      /  F ield         | OpenFOAM: The Open Source CFD Toolbox           |
|  \\    /   O peration     | Version:  dev                                   |
|   \\  /    A nd           | Web:      www.OpenFOAM.org                      |
|    \\/     M anipulation  |                                                 |
\*---------------------------------------------------------------------------*/
FoamFile
{
    version     2.0;
    format      ascii;
    class       volScalarField;
    location    "0.08";
    object      n-A1C2H2;
}
// * * * * * * * * * * * * * * * * * * * * * * * * * * * * * * * * * * * * * //

dimensions      [0 0 0 0 0 0 0];

internalField   nonuniform List<scalar> 
1989
(
2.5578e-11
2.5579e-11
2.55795e-11
2.55802e-11
2.55806e-11
2.55811e-11
2.55813e-11
2.55816e-11
2.55817e-11
2.55818e-11
2.55819e-11
2.5582e-11
2.5582e-11
2.5582e-11
2.5582e-11
2.5582e-11
2.5582e-11
2.55819e-11
2.55818e-11
2.55817e-11
2.55815e-11
2.55813e-11
2.5581e-11
2.55806e-11
2.55802e-11
2.55795e-11
2.55789e-11
2.5578e-11
2.55767e-11
2.55748e-11
2.55722e-11
2.557e-11
2.55642e-11
2.55589e-11
2.5546e-11
2.55313e-11
2.55038e-11
2.54651e-11
2.54286e-11
2.57362e-11
2.57768e-11
2.5821e-11
2.58521e-11
2.58684e-11
2.58835e-11
2.58893e-11
2.58962e-11
2.58986e-11
2.59017e-11
2.59038e-11
2.59052e-11
2.59063e-11
2.5907e-11
2.59078e-11
2.59081e-11
2.59087e-11
2.59088e-11
2.59092e-11
2.59093e-11
2.59095e-11
2.59095e-11
2.59096e-11
2.59096e-11
2.59097e-11
2.59097e-11
2.59096e-11
2.59096e-11
2.59095e-11
2.59095e-11
2.59093e-11
2.59092e-11
2.59088e-11
2.59086e-11
2.59081e-11
2.59077e-11
2.59069e-11
2.59063e-11
2.59052e-11
2.59038e-11
2.59017e-11
2.58987e-11
2.58963e-11
2.58893e-11
2.58837e-11
2.58685e-11
2.58522e-11
2.58211e-11
2.57769e-11
2.57363e-11
2.61094e-11
2.61547e-11
2.62052e-11
2.62406e-11
2.62585e-11
2.62764e-11
2.62825e-11
2.62907e-11
2.62933e-11
2.62969e-11
2.62992e-11
2.63008e-11
2.63021e-11
2.63027e-11
2.63037e-11
2.6304e-11
2.63047e-11
2.63048e-11
2.63052e-11
2.63053e-11
2.63055e-11
2.63056e-11
2.63057e-11
2.63057e-11
2.63057e-11
2.63057e-11
2.63057e-11
2.63057e-11
2.63056e-11
2.63055e-11
2.63053e-11
2.63052e-11
2.63048e-11
2.63046e-11
2.6304e-11
2.63037e-11
2.63027e-11
2.63021e-11
2.63009e-11
2.62993e-11
2.62969e-11
2.62934e-11
2.62908e-11
2.62825e-11
2.62765e-11
2.62586e-11
2.62407e-11
2.62052e-11
2.61548e-11
2.61095e-11
2.6561e-11
2.66121e-11
2.66697e-11
2.67104e-11
2.673e-11
2.67512e-11
2.67576e-11
2.67674e-11
2.67702e-11
2.67743e-11
2.6777e-11
2.67787e-11
2.67802e-11
2.67808e-11
2.67819e-11
2.67823e-11
2.6783e-11
2.67831e-11
2.67836e-11
2.67836e-11
2.67839e-11
2.67839e-11
2.67841e-11
2.67841e-11
2.67841e-11
2.67841e-11
2.67841e-11
2.67841e-11
2.67839e-11
2.67839e-11
2.67836e-11
2.67836e-11
2.67831e-11
2.6783e-11
2.67822e-11
2.67819e-11
2.67808e-11
2.67802e-11
2.67788e-11
2.6777e-11
2.67743e-11
2.67703e-11
2.67675e-11
2.67577e-11
2.67513e-11
2.67301e-11
2.67105e-11
2.66698e-11
2.66122e-11
2.65611e-11
2.70953e-11
2.71524e-11
2.72163e-11
2.72621e-11
2.72832e-11
2.73075e-11
2.7314e-11
2.73253e-11
2.73282e-11
2.73328e-11
2.73358e-11
2.73377e-11
2.73393e-11
2.734e-11
2.73412e-11
2.73415e-11
2.73423e-11
2.73424e-11
2.7343e-11
2.7343e-11
2.73433e-11
2.73433e-11
2.73434e-11
2.73434e-11
2.73435e-11
2.73435e-11
2.73434e-11
2.73435e-11
2.73433e-11
2.73433e-11
2.7343e-11
2.7343e-11
2.73424e-11
2.73423e-11
2.73415e-11
2.73412e-11
2.73399e-11
2.73393e-11
2.73377e-11
2.73358e-11
2.73328e-11
2.73283e-11
2.73255e-11
2.73141e-11
2.73077e-11
2.72833e-11
2.72622e-11
2.72164e-11
2.71525e-11
2.70955e-11
2.77242e-11
2.77876e-11
2.78591e-11
2.79116e-11
2.79352e-11
2.79633e-11
2.797e-11
2.79831e-11
2.79861e-11
2.79914e-11
2.79946e-11
2.79967e-11
2.79985e-11
2.79992e-11
2.80006e-11
2.80009e-11
2.80018e-11
2.80019e-11
2.80025e-11
2.80025e-11
2.80028e-11
2.80028e-11
2.8003e-11
2.80029e-11
2.8003e-11
2.8003e-11
2.80029e-11
2.8003e-11
2.80028e-11
2.80028e-11
2.80025e-11
2.80025e-11
2.80019e-11
2.80018e-11
2.80008e-11
2.80006e-11
2.79992e-11
2.79985e-11
2.79967e-11
2.79946e-11
2.79914e-11
2.79863e-11
2.79832e-11
2.79701e-11
2.79634e-11
2.79353e-11
2.79117e-11
2.78592e-11
2.77877e-11
2.77244e-11
2.84531e-11
2.8523e-11
2.85988e-11
2.86563e-11
2.86808e-11
2.87116e-11
2.87179e-11
2.87323e-11
2.87351e-11
2.87409e-11
2.87443e-11
2.87464e-11
2.87483e-11
2.8749e-11
2.87505e-11
2.87507e-11
2.87517e-11
2.87517e-11
2.87524e-11
2.87523e-11
2.87527e-11
2.87527e-11
2.87529e-11
2.87528e-11
2.87529e-11
2.87529e-11
2.87529e-11
2.87529e-11
2.87527e-11
2.87527e-11
2.87524e-11
2.87524e-11
2.87517e-11
2.87517e-11
2.87507e-11
2.87504e-11
2.87489e-11
2.87483e-11
2.87464e-11
2.87442e-11
2.87409e-11
2.87353e-11
2.87325e-11
2.87181e-11
2.87118e-11
2.8681e-11
2.86564e-11
2.85989e-11
2.85231e-11
2.84533e-11
2.9291e-11
2.9368e-11
2.94474e-11
2.951e-11
2.95357e-11
2.9569e-11
2.95748e-11
2.95905e-11
2.9593e-11
2.95991e-11
2.96026e-11
2.96048e-11
2.96068e-11
2.96074e-11
2.9609e-11
2.96092e-11
2.96103e-11
2.96103e-11
2.9611e-11
2.96109e-11
2.96113e-11
2.96112e-11
2.96115e-11
2.96114e-11
2.96115e-11
2.96115e-11
2.96114e-11
2.96115e-11
2.96113e-11
2.96113e-11
2.96109e-11
2.9611e-11
2.96103e-11
2.96103e-11
2.96092e-11
2.9609e-11
2.96074e-11
2.96068e-11
2.96047e-11
2.96024e-11
2.95992e-11
2.95932e-11
2.95906e-11
2.95749e-11
2.95692e-11
2.95358e-11
2.95102e-11
2.94475e-11
2.93681e-11
2.92911e-11
3.02396e-11
3.03219e-11
3.04028e-11
3.04692e-11
3.04948e-11
3.05297e-11
3.05344e-11
3.05509e-11
3.05528e-11
3.05591e-11
3.05626e-11
3.05647e-11
3.05668e-11
3.05673e-11
3.05689e-11
3.0569e-11
3.05702e-11
3.05701e-11
3.05708e-11
3.05707e-11
3.05712e-11
3.05711e-11
3.05713e-11
3.05712e-11
3.05713e-11
3.05713e-11
3.05712e-11
3.05713e-11
3.05711e-11
3.05712e-11
3.05707e-11
3.05708e-11
3.05701e-11
3.05702e-11
3.0569e-11
3.05689e-11
3.05672e-11
3.05667e-11
3.05646e-11
3.05623e-11
3.05593e-11
3.05531e-11
3.0551e-11
3.05345e-11
3.05298e-11
3.04949e-11
3.04693e-11
3.0403e-11
3.0322e-11
3.02398e-11
3.1289e-11
3.13755e-11
3.14565e-11
3.15268e-11
3.15517e-11
3.15873e-11
3.15906e-11
3.16075e-11
3.16088e-11
3.1615e-11
3.16182e-11
3.16202e-11
3.16222e-11
3.16226e-11
3.16243e-11
3.16243e-11
3.16255e-11
3.16253e-11
3.16261e-11
3.16259e-11
3.16264e-11
3.16263e-11
3.16265e-11
3.16264e-11
3.16265e-11
3.16265e-11
3.16264e-11
3.16265e-11
3.16263e-11
3.16264e-11
3.1626e-11
3.16261e-11
3.16253e-11
3.16255e-11
3.16243e-11
3.16243e-11
3.16226e-11
3.16222e-11
3.16201e-11
3.16179e-11
3.16152e-11
3.1609e-11
3.16077e-11
3.15908e-11
3.15874e-11
3.15518e-11
3.15269e-11
3.14567e-11
3.13756e-11
3.12892e-11
3.2436e-11
3.25252e-11
3.26048e-11
3.26638e-11
3.26871e-11
3.27231e-11
3.27244e-11
3.27415e-11
3.27417e-11
3.27476e-11
3.27505e-11
3.27522e-11
3.27542e-11
3.27544e-11
3.27561e-11
3.2756e-11
3.27571e-11
3.27569e-11
3.27577e-11
3.27575e-11
3.27579e-11
3.27578e-11
3.2758e-11
3.27579e-11
3.2758e-11
3.2758e-11
3.27579e-11
3.2758e-11
3.27578e-11
3.27579e-11
3.27575e-11
3.27577e-11
3.27569e-11
3.27571e-11
3.27559e-11
3.2756e-11
3.27544e-11
3.27542e-11
3.27522e-11
3.27501e-11
3.27479e-11
3.27419e-11
3.27416e-11
3.27246e-11
3.27233e-11
3.26872e-11
3.2664e-11
3.2605e-11
3.25253e-11
3.24362e-11
3.36579e-11
3.37481e-11
3.38249e-11
3.38884e-11
3.39089e-11
3.39445e-11
3.3944e-11
3.39617e-11
3.39612e-11
3.39672e-11
3.39698e-11
3.39714e-11
3.39734e-11
3.39735e-11
3.39751e-11
3.39749e-11
3.39761e-11
3.39758e-11
3.39766e-11
3.39764e-11
3.39768e-11
3.39767e-11
3.39769e-11
3.39768e-11
3.39769e-11
3.39769e-11
3.39768e-11
3.39769e-11
3.39767e-11
3.39769e-11
3.39764e-11
3.39766e-11
3.39758e-11
3.39761e-11
3.39749e-11
3.39751e-11
3.39735e-11
3.39734e-11
3.39713e-11
3.39694e-11
3.39674e-11
3.39614e-11
3.39619e-11
3.39441e-11
3.39447e-11
3.39091e-11
3.38885e-11
3.38251e-11
3.37482e-11
3.36581e-11
3.49746e-11
3.50656e-11
3.51387e-11
3.52043e-11
3.52208e-11
3.52547e-11
3.52513e-11
3.52678e-11
3.52657e-11
3.52708e-11
3.52725e-11
3.52738e-11
3.52754e-11
3.52752e-11
3.52766e-11
3.52763e-11
3.52773e-11
3.5277e-11
3.52777e-11
3.52774e-11
3.52778e-11
3.52776e-11
3.52779e-11
3.52778e-11
3.52779e-11
3.52779e-11
3.52778e-11
3.52779e-11
3.52777e-11
3.52778e-11
3.52774e-11
3.52777e-11
3.5277e-11
3.52773e-11
3.52762e-11
3.52766e-11
3.52752e-11
3.52753e-11
3.52736e-11
3.52721e-11
3.5271e-11
3.52658e-11
3.5268e-11
3.52515e-11
3.52549e-11
3.52209e-11
3.52044e-11
3.51389e-11
3.50657e-11
3.49747e-11
3.63695e-11
3.64567e-11
3.65203e-11
3.65851e-11
3.65962e-11
3.66277e-11
3.66212e-11
3.6636e-11
3.66321e-11
3.66361e-11
3.66368e-11
3.66377e-11
3.66388e-11
3.66384e-11
3.66395e-11
3.6639e-11
3.66399e-11
3.66395e-11
3.66401e-11
3.66398e-11
3.66401e-11
3.66399e-11
3.66401e-11
3.664e-11
3.66401e-11
3.66401e-11
3.66401e-11
3.66401e-11
3.664e-11
3.66401e-11
3.66398e-11
3.66401e-11
3.66395e-11
3.66399e-11
3.6639e-11
3.66395e-11
3.66383e-11
3.66388e-11
3.66375e-11
3.66365e-11
3.66363e-11
3.66322e-11
3.66362e-11
3.66214e-11
3.66278e-11
3.65964e-11
3.65853e-11
3.65205e-11
3.64568e-11
3.63696e-11
3.78097e-11
3.78913e-11
3.79435e-11
3.80061e-11
3.80105e-11
3.80388e-11
3.80289e-11
3.80419e-11
3.80359e-11
3.80388e-11
3.80384e-11
3.80387e-11
3.80393e-11
3.80385e-11
3.80394e-11
3.80387e-11
3.80394e-11
3.80389e-11
3.80394e-11
3.80391e-11
3.80394e-11
3.80392e-11
3.80393e-11
3.80392e-11
3.80393e-11
3.80393e-11
3.80392e-11
3.80393e-11
3.80392e-11
3.80394e-11
3.80391e-11
3.80394e-11
3.80389e-11
3.80394e-11
3.80387e-11
3.80393e-11
3.80385e-11
3.80393e-11
3.80386e-11
3.80381e-11
3.80389e-11
3.8036e-11
3.8042e-11
3.80291e-11
3.8039e-11
3.80106e-11
3.80062e-11
3.79437e-11
3.78914e-11
3.78098e-11
3.93072e-11
3.93803e-11
3.94195e-11
3.94773e-11
3.94755e-11
3.95009e-11
3.94879e-11
3.94994e-11
3.94916e-11
3.94933e-11
3.94919e-11
3.94917e-11
3.94917e-11
3.94906e-11
3.94911e-11
3.94902e-11
3.94907e-11
3.94901e-11
3.94904e-11
3.94901e-11
3.94903e-11
3.94901e-11
3.94902e-11
3.94901e-11
3.94902e-11
3.94902e-11
3.94901e-11
3.94902e-11
3.94901e-11
3.94903e-11
3.94901e-11
3.94905e-11
3.94901e-11
3.94907e-11
3.94902e-11
3.9491e-11
3.94906e-11
3.94917e-11
3.94915e-11
3.94916e-11
3.94934e-11
3.94917e-11
3.94995e-11
3.94881e-11
3.95011e-11
3.94757e-11
3.94774e-11
3.94197e-11
3.93804e-11
3.93073e-11
4.0852e-11
4.09151e-11
4.09394e-11
4.09899e-11
4.09801e-11
4.09995e-11
4.09826e-11
4.09915e-11
4.09814e-11
4.09814e-11
4.09787e-11
4.09778e-11
4.09771e-11
4.09756e-11
4.09756e-11
4.09746e-11
4.09748e-11
4.09742e-11
4.09744e-11
4.0974e-11
4.09741e-11
4.09739e-11
4.0974e-11
4.09739e-11
4.09739e-11
4.09739e-11
4.09739e-11
4.0974e-11
4.09739e-11
4.09741e-11
4.0974e-11
4.09744e-11
4.09742e-11
4.09748e-11
4.09746e-11
4.09756e-11
4.09756e-11
4.09771e-11
4.09776e-11
4.09784e-11
4.09815e-11
4.09815e-11
4.09916e-11
4.09828e-11
4.09996e-11
4.09802e-11
4.099e-11
4.09395e-11
4.09152e-11
4.08521e-11
4.24374e-11
4.24885e-11
4.24958e-11
4.25379e-11
4.25198e-11
4.25324e-11
4.2511e-11
4.25164e-11
4.25038e-11
4.25019e-11
4.24978e-11
4.2496e-11
4.24945e-11
4.24927e-11
4.24922e-11
4.2491e-11
4.2491e-11
4.24903e-11
4.24903e-11
4.24899e-11
4.24899e-11
4.24897e-11
4.24897e-11
4.24897e-11
4.24897e-11
4.24897e-11
4.24897e-11
4.24897e-11
4.24897e-11
4.24899e-11
4.24899e-11
4.24903e-11
4.24903e-11
4.24909e-11
4.2491e-11
4.24922e-11
4.24926e-11
4.24945e-11
4.24959e-11
4.24975e-11
4.25019e-11
4.25038e-11
4.25165e-11
4.25112e-11
4.25325e-11
4.252e-11
4.25381e-11
4.24959e-11
4.24886e-11
4.24375e-11
4.40623e-11
4.41015e-11
4.40919e-11
4.41189e-11
4.40923e-11
4.4097e-11
4.40735e-11
4.40778e-11
4.4064e-11
4.40606e-11
4.40551e-11
4.40525e-11
4.40502e-11
4.4048e-11
4.4047e-11
4.40457e-11
4.40453e-11
4.40446e-11
4.40444e-11
4.4044e-11
4.40439e-11
4.40437e-11
4.40437e-11
4.40436e-11
4.40436e-11
4.40436e-11
4.40436e-11
4.40437e-11
4.40437e-11
4.40439e-11
4.4044e-11
4.40444e-11
4.40446e-11
4.40453e-11
4.40457e-11
4.4047e-11
4.40479e-11
4.40502e-11
4.40524e-11
4.40548e-11
4.40606e-11
4.4064e-11
4.40779e-11
4.40737e-11
4.40972e-11
4.40924e-11
4.4119e-11
4.4092e-11
4.41016e-11
4.40624e-11
4.57238e-11
4.57465e-11
4.57172e-11
4.57351e-11
4.57e-11
4.56962e-11
4.56662e-11
4.56652e-11
4.56479e-11
4.56423e-11
4.56352e-11
4.56318e-11
4.56286e-11
4.56259e-11
4.56244e-11
4.5623e-11
4.56222e-11
4.56215e-11
4.5621e-11
4.56207e-11
4.56204e-11
4.56203e-11
4.56201e-11
4.56201e-11
4.56201e-11
4.56201e-11
4.56201e-11
4.56201e-11
4.56203e-11
4.56204e-11
4.56207e-11
4.5621e-11
4.56215e-11
4.56222e-11
4.5623e-11
4.56244e-11
4.56259e-11
4.56286e-11
4.56317e-11
4.5635e-11
4.56423e-11
4.56479e-11
4.56653e-11
4.56664e-11
4.56964e-11
4.57002e-11
4.57352e-11
4.57173e-11
4.57466e-11
4.57238e-11
4.74355e-11
4.74398e-11
4.73916e-11
4.73985e-11
4.73549e-11
4.7342e-11
4.73058e-11
4.73e-11
4.72795e-11
4.72719e-11
4.72631e-11
4.72589e-11
4.72548e-11
4.72517e-11
4.72496e-11
4.7248e-11
4.72469e-11
4.72461e-11
4.72455e-11
4.72451e-11
4.72447e-11
4.72446e-11
4.72444e-11
4.72444e-11
4.72443e-11
4.72443e-11
4.72444e-11
4.72444e-11
4.72446e-11
4.72447e-11
4.72451e-11
4.72455e-11
4.72461e-11
4.72469e-11
4.7248e-11
4.72496e-11
4.72517e-11
4.72547e-11
4.72587e-11
4.72629e-11
4.72718e-11
4.72795e-11
4.73e-11
4.7306e-11
4.73421e-11
4.73551e-11
4.73986e-11
4.73917e-11
4.744e-11
4.74354e-11
4.92257e-11
4.92101e-11
4.91453e-11
4.9142e-11
4.9091e-11
4.907e-11
4.90282e-11
4.90185e-11
4.89952e-11
4.89859e-11
4.89755e-11
4.89704e-11
4.89656e-11
4.89622e-11
4.89596e-11
4.89579e-11
4.89564e-11
4.89556e-11
4.89547e-11
4.89544e-11
4.89539e-11
4.89538e-11
4.89535e-11
4.89535e-11
4.89534e-11
4.89534e-11
4.89535e-11
4.89535e-11
4.89538e-11
4.89539e-11
4.89544e-11
4.89547e-11
4.89556e-11
4.89564e-11
4.89579e-11
4.89596e-11
4.89622e-11
4.89656e-11
4.89703e-11
4.89752e-11
4.89858e-11
4.89951e-11
4.90185e-11
4.90283e-11
4.90702e-11
4.90911e-11
4.91421e-11
4.91453e-11
4.92102e-11
4.92255e-11
5.11582e-11
5.1125e-11
5.10471e-11
5.10343e-11
5.09762e-11
5.09481e-11
5.09003e-11
5.08878e-11
5.08616e-11
5.08511e-11
5.08391e-11
5.08333e-11
5.08278e-11
5.08241e-11
5.08211e-11
5.08192e-11
5.08175e-11
5.08166e-11
5.08156e-11
5.08153e-11
5.08146e-11
5.08146e-11
5.08142e-11
5.08143e-11
5.08141e-11
5.08141e-11
5.08143e-11
5.08142e-11
5.08146e-11
5.08146e-11
5.08153e-11
5.08156e-11
5.08166e-11
5.08175e-11
5.08192e-11
5.08211e-11
5.08241e-11
5.08278e-11
5.08332e-11
5.08388e-11
5.08509e-11
5.08616e-11
5.08879e-11
5.09004e-11
5.09482e-11
5.09763e-11
5.10344e-11
5.10471e-11
5.11253e-11
5.11579e-11
5.3368e-11
5.33303e-11
5.32474e-11
5.32327e-11
5.31706e-11
5.3141e-11
5.30881e-11
5.30763e-11
5.30475e-11
5.30371e-11
5.30239e-11
5.30178e-11
5.30121e-11
5.30081e-11
5.30049e-11
5.30029e-11
5.30011e-11
5.30002e-11
5.29991e-11
5.29987e-11
5.2998e-11
5.2998e-11
5.29976e-11
5.29976e-11
5.29975e-11
5.29975e-11
5.29976e-11
5.29976e-11
5.2998e-11
5.2998e-11
5.29987e-11
5.29991e-11
5.30002e-11
5.30011e-11
5.30029e-11
5.30049e-11
5.30081e-11
5.3012e-11
5.30177e-11
5.30237e-11
5.30369e-11
5.30475e-11
5.30763e-11
5.30882e-11
5.31411e-11
5.31707e-11
5.32328e-11
5.32474e-11
5.33306e-11
5.33677e-11
5.61167e-11
5.60864e-11
5.60102e-11
5.60039e-11
5.59407e-11
5.5918e-11
5.58597e-11
5.58541e-11
5.58227e-11
5.58141e-11
5.58005e-11
5.57945e-11
5.5789e-11
5.57849e-11
5.5782e-11
5.57798e-11
5.57781e-11
5.57771e-11
5.57761e-11
5.57757e-11
5.5775e-11
5.5775e-11
5.57746e-11
5.57746e-11
5.57745e-11
5.57745e-11
5.57746e-11
5.57746e-11
5.5775e-11
5.5775e-11
5.57757e-11
5.57761e-11
5.57771e-11
5.57781e-11
5.57798e-11
5.5782e-11
5.57849e-11
5.5789e-11
5.57943e-11
5.58002e-11
5.58139e-11
5.58227e-11
5.58542e-11
5.58598e-11
5.59182e-11
5.59408e-11
5.6004e-11
5.60103e-11
5.6087e-11
5.61162e-11
5.98569e-11
5.98598e-11
5.98138e-11
5.98405e-11
5.97847e-11
5.97853e-11
5.97218e-11
5.97324e-11
5.96984e-11
5.96953e-11
5.9682e-11
5.96773e-11
5.96729e-11
5.96689e-11
5.96669e-11
5.96644e-11
5.96635e-11
5.96622e-11
5.96616e-11
5.9661e-11
5.96607e-11
5.96604e-11
5.96602e-11
5.96601e-11
5.96601e-11
5.96601e-11
5.96601e-11
5.96602e-11
5.96604e-11
5.96607e-11
5.9661e-11
5.96617e-11
5.96622e-11
5.96635e-11
5.96644e-11
5.96669e-11
5.96688e-11
5.96729e-11
5.96771e-11
5.96818e-11
5.96951e-11
5.96984e-11
5.97325e-11
5.97219e-11
5.97855e-11
5.97848e-11
5.98405e-11
5.98139e-11
5.98608e-11
5.9856e-11
6.53499e-11
6.54215e-11
6.54356e-11
6.5516e-11
6.54788e-11
6.55169e-11
6.54465e-11
6.54832e-11
6.54456e-11
6.54512e-11
6.54388e-11
6.54362e-11
6.54337e-11
6.54298e-11
6.54294e-11
6.54266e-11
6.54269e-11
6.54251e-11
6.54253e-11
6.54244e-11
6.54244e-11
6.5424e-11
6.5424e-11
6.54238e-11
6.54238e-11
6.54238e-11
6.54238e-11
6.5424e-11
6.5424e-11
6.54245e-11
6.54244e-11
6.54254e-11
6.54251e-11
6.54269e-11
6.54266e-11
6.54294e-11
6.54298e-11
6.54336e-11
6.54361e-11
6.54386e-11
6.5451e-11
6.54456e-11
6.54833e-11
6.54467e-11
6.55171e-11
6.5479e-11
6.55161e-11
6.54357e-11
6.54234e-11
6.53484e-11
7.36274e-11
7.37946e-11
7.38896e-11
7.40484e-11
7.39549e-11
7.40491e-11
7.39656e-11
7.40409e-11
7.39966e-11
7.40149e-11
7.40032e-11
7.40037e-11
7.40036e-11
7.39998e-11
7.40016e-11
7.39982e-11
7.40001e-11
7.39977e-11
7.3999e-11
7.39976e-11
7.39983e-11
7.39975e-11
7.39978e-11
7.39974e-11
7.39976e-11
7.39976e-11
7.39974e-11
7.39978e-11
7.39975e-11
7.39983e-11
7.39976e-11
7.39991e-11
7.39977e-11
7.40001e-11
7.39982e-11
7.40016e-11
7.39997e-11
7.40035e-11
7.40035e-11
7.40029e-11
7.40147e-11
7.39967e-11
7.40412e-11
7.39659e-11
7.40495e-11
7.39552e-11
7.40485e-11
7.38897e-11
7.37975e-11
7.36251e-11
8.57844e-11
8.60567e-11
8.62381e-11
8.64893e-11
8.64111e-11
8.65659e-11
8.646e-11
8.65789e-11
8.65231e-11
8.6555e-11
8.65424e-11
8.65459e-11
8.65478e-11
8.65437e-11
8.65477e-11
8.65434e-11
8.6547e-11
8.65437e-11
8.65462e-11
8.65441e-11
8.65454e-11
8.65443e-11
8.65448e-11
8.65443e-11
8.65446e-11
8.65446e-11
8.65444e-11
8.65449e-11
8.65444e-11
8.65455e-11
8.65442e-11
8.65462e-11
8.65437e-11
8.6547e-11
8.65434e-11
8.65476e-11
8.65436e-11
8.65476e-11
8.65457e-11
8.65421e-11
8.65549e-11
8.65232e-11
8.65793e-11
8.64604e-11
8.65663e-11
8.64114e-11
8.64895e-11
8.62382e-11
8.60604e-11
8.57814e-11
1.02976e-10
1.03307e-10
1.0353e-10
1.03845e-10
1.0375e-10
1.03943e-10
1.03801e-10
1.03953e-10
1.03879e-10
1.0392e-10
1.03903e-10
1.03907e-10
1.03909e-10
1.03904e-10
1.03908e-10
1.03903e-10
1.03907e-10
1.03903e-10
1.03906e-10
1.03903e-10
1.03905e-10
1.03904e-10
1.03904e-10
1.03903e-10
1.03904e-10
1.03904e-10
1.03904e-10
1.03904e-10
1.03904e-10
1.03905e-10
1.03903e-10
1.03906e-10
1.03903e-10
1.03907e-10
1.03903e-10
1.03908e-10
1.03903e-10
1.03908e-10
1.03907e-10
1.03902e-10
1.0392e-10
1.03879e-10
1.03954e-10
1.03802e-10
1.03943e-10
1.0375e-10
1.03845e-10
1.0353e-10
1.0331e-10
1.02973e-10
1.25519e-10
1.25778e-10
1.25947e-10
1.26242e-10
1.26086e-10
1.26258e-10
1.26066e-10
1.26217e-10
1.26118e-10
1.26154e-10
1.26125e-10
1.26125e-10
1.26123e-10
1.26115e-10
1.26117e-10
1.26111e-10
1.26113e-10
1.26109e-10
1.26111e-10
1.26108e-10
1.26109e-10
1.26108e-10
1.26108e-10
1.26107e-10
1.26108e-10
1.26108e-10
1.26108e-10
1.26108e-10
1.26108e-10
1.26109e-10
1.26108e-10
1.26111e-10
1.26109e-10
1.26113e-10
1.26111e-10
1.26117e-10
1.26115e-10
1.26122e-10
1.26125e-10
1.26125e-10
1.26153e-10
1.26118e-10
1.26217e-10
1.26066e-10
1.26258e-10
1.26087e-10
1.26242e-10
1.25947e-10
1.2578e-10
1.25517e-10
1.52517e-10
1.52492e-10
1.52446e-10
1.52567e-10
1.52305e-10
1.52349e-10
1.52102e-10
1.52189e-10
1.52062e-10
1.52071e-10
1.52025e-10
1.52013e-10
1.52e-10
1.51989e-10
1.51983e-10
1.51975e-10
1.51973e-10
1.51969e-10
1.51968e-10
1.51966e-10
1.51964e-10
1.51964e-10
1.51963e-10
1.51963e-10
1.51963e-10
1.51963e-10
1.51963e-10
1.51963e-10
1.51964e-10
1.51964e-10
1.51966e-10
1.51968e-10
1.51969e-10
1.51973e-10
1.51976e-10
1.51983e-10
1.51989e-10
1.52e-10
1.52013e-10
1.52024e-10
1.5207e-10
1.52062e-10
1.52189e-10
1.52102e-10
1.5235e-10
1.52305e-10
1.52567e-10
1.52445e-10
1.5249e-10
1.52518e-10
1.8102e-10
1.8047e-10
1.79832e-10
1.7961e-10
1.79187e-10
1.78993e-10
1.78687e-10
1.78639e-10
1.78486e-10
1.7844e-10
1.7837e-10
1.78339e-10
1.78308e-10
1.78292e-10
1.78273e-10
1.78265e-10
1.78254e-10
1.78251e-10
1.78244e-10
1.78243e-10
1.78239e-10
1.78239e-10
1.78237e-10
1.78237e-10
1.78236e-10
1.78236e-10
1.78237e-10
1.78236e-10
1.78239e-10
1.78239e-10
1.78243e-10
1.78244e-10
1.78251e-10
1.78254e-10
1.78265e-10
1.78273e-10
1.78292e-10
1.78308e-10
1.78339e-10
1.7837e-10
1.7844e-10
1.78485e-10
1.78639e-10
1.78687e-10
1.78993e-10
1.79187e-10
1.79609e-10
1.79831e-10
1.80465e-10
1.81022e-10
2.05998e-10
2.04733e-10
2.03577e-10
2.02855e-10
2.02229e-10
2.01712e-10
2.01365e-10
2.01112e-10
2.00942e-10
2.0082e-10
2.00724e-10
2.00665e-10
2.00614e-10
2.00591e-10
2.00556e-10
2.00547e-10
2.00524e-10
2.00523e-10
2.00509e-10
2.0051e-10
2.00501e-10
2.00503e-10
2.00498e-10
2.005e-10
2.00498e-10
2.00498e-10
2.005e-10
2.00498e-10
2.00503e-10
2.00501e-10
2.0051e-10
2.00508e-10
2.00523e-10
2.00525e-10
2.00547e-10
2.00556e-10
2.00591e-10
2.00614e-10
2.00666e-10
2.00723e-10
2.00819e-10
2.00942e-10
2.01112e-10
2.01364e-10
2.01712e-10
2.02229e-10
2.02854e-10
2.03576e-10
2.04725e-10
2.06001e-10
2.2166e-10
2.19589e-10
2.17858e-10
2.16537e-10
2.15738e-10
2.14822e-10
2.14462e-10
2.13964e-10
2.13794e-10
2.1358e-10
2.13463e-10
2.13374e-10
2.13302e-10
2.13271e-10
2.13219e-10
2.13209e-10
2.13175e-10
2.13175e-10
2.13153e-10
2.13157e-10
2.13143e-10
2.13147e-10
2.13139e-10
2.13142e-10
2.13139e-10
2.13139e-10
2.13142e-10
2.13139e-10
2.13147e-10
2.13143e-10
2.13156e-10
2.13153e-10
2.13175e-10
2.13175e-10
2.13209e-10
2.13219e-10
2.13271e-10
2.13302e-10
2.13374e-10
2.13462e-10
2.13579e-10
2.13793e-10
2.13962e-10
2.14461e-10
2.14821e-10
2.15737e-10
2.16536e-10
2.17857e-10
2.1958e-10
2.21663e-10
2.22499e-10
2.19737e-10
2.17554e-10
2.15707e-10
2.14792e-10
2.13539e-10
2.13201e-10
2.12485e-10
2.12333e-10
2.1204e-10
2.11913e-10
2.11798e-10
2.11712e-10
2.11674e-10
2.1161e-10
2.116e-10
2.11557e-10
2.11558e-10
2.11531e-10
2.11536e-10
2.11519e-10
2.11524e-10
2.11515e-10
2.11518e-10
2.11515e-10
2.11515e-10
2.11518e-10
2.11514e-10
2.11524e-10
2.11519e-10
2.11535e-10
2.11531e-10
2.11558e-10
2.11557e-10
2.116e-10
2.11611e-10
2.11675e-10
2.11713e-10
2.11798e-10
2.11913e-10
2.12038e-10
2.12332e-10
2.12483e-10
2.132e-10
2.13537e-10
2.1479e-10
2.15706e-10
2.17552e-10
2.19728e-10
2.225e-10
2.06839e-10
2.03734e-10
2.01375e-10
1.99249e-10
1.98305e-10
1.96893e-10
1.96597e-10
1.95766e-10
1.95642e-10
1.95307e-10
1.95186e-10
1.95057e-10
1.9497e-10
1.94927e-10
1.94861e-10
1.94849e-10
1.94804e-10
1.94805e-10
1.94776e-10
1.94781e-10
1.94764e-10
1.94769e-10
1.94759e-10
1.94763e-10
1.94759e-10
1.94759e-10
1.94763e-10
1.94759e-10
1.94769e-10
1.94763e-10
1.94781e-10
1.94776e-10
1.94805e-10
1.94804e-10
1.94849e-10
1.94861e-10
1.94928e-10
1.9497e-10
1.95058e-10
1.95185e-10
1.95306e-10
1.9564e-10
1.95764e-10
1.96595e-10
1.96891e-10
1.98303e-10
1.99247e-10
2.01374e-10
2.03725e-10
2.06839e-10
1.78836e-10
1.7583e-10
1.73632e-10
1.71576e-10
1.70698e-10
1.69362e-10
1.69109e-10
1.68309e-10
1.6821e-10
1.67888e-10
1.67782e-10
1.67658e-10
1.67581e-10
1.67538e-10
1.67479e-10
1.67466e-10
1.67426e-10
1.67425e-10
1.674e-10
1.67404e-10
1.67389e-10
1.67393e-10
1.67385e-10
1.67387e-10
1.67384e-10
1.67384e-10
1.67387e-10
1.67384e-10
1.67393e-10
1.67388e-10
1.67403e-10
1.674e-10
1.67425e-10
1.67426e-10
1.67466e-10
1.6748e-10
1.67539e-10
1.67581e-10
1.67659e-10
1.67782e-10
1.67887e-10
1.68208e-10
1.68307e-10
1.69107e-10
1.6936e-10
1.70696e-10
1.71575e-10
1.7363e-10
1.75821e-10
1.78836e-10
1.44658e-10
1.42091e-10
1.40292e-10
1.38573e-10
1.37828e-10
1.36734e-10
1.36519e-10
1.35859e-10
1.35778e-10
1.35509e-10
1.35426e-10
1.3532e-10
1.35259e-10
1.3522e-10
1.35174e-10
1.35161e-10
1.35131e-10
1.35128e-10
1.35109e-10
1.35111e-10
1.35099e-10
1.35102e-10
1.35096e-10
1.35098e-10
1.35095e-10
1.35095e-10
1.35097e-10
1.35095e-10
1.35102e-10
1.35099e-10
1.3511e-10
1.35109e-10
1.35128e-10
1.35131e-10
1.35161e-10
1.35175e-10
1.35221e-10
1.35259e-10
1.35321e-10
1.35425e-10
1.35508e-10
1.35777e-10
1.35857e-10
1.36518e-10
1.36732e-10
1.37827e-10
1.38572e-10
1.40291e-10
1.42082e-10
1.4466e-10
1.1481e-10
1.12772e-10
1.11418e-10
1.10117e-10
1.09515e-10
1.08701e-10
1.08512e-10
1.08022e-10
1.07951e-10
1.07747e-10
1.07682e-10
1.076e-10
1.07554e-10
1.07523e-10
1.07489e-10
1.07477e-10
1.07455e-10
1.07452e-10
1.07438e-10
1.07439e-10
1.0743e-10
1.07432e-10
1.07427e-10
1.07429e-10
1.07427e-10
1.07427e-10
1.07428e-10
1.07427e-10
1.07432e-10
1.0743e-10
1.07438e-10
1.07438e-10
1.07452e-10
1.07455e-10
1.07477e-10
1.07489e-10
1.07523e-10
1.07554e-10
1.07601e-10
1.07682e-10
1.07747e-10
1.0795e-10
1.08021e-10
1.08511e-10
1.087e-10
1.09514e-10
1.10116e-10
1.11417e-10
1.1276e-10
1.14815e-10
)
;

boundaryField
{
    fuel
    {
        type            fixedValue;
        value           nonuniform 0();
    }
    wall
    {
        type            zeroGradient;
    }
    outlet
    {
        type            zeroGradient;
    }
    frontAndBack
    {
        type            empty;
    }
    procBoundary3to2
    {
        type            processor;
        value           nonuniform List<scalar> 
51
(
2.53099e-11
2.53108e-11
2.53114e-11
2.5312e-11
2.53124e-11
2.53128e-11
2.5313e-11
2.53132e-11
2.53134e-11
2.53135e-11
2.53136e-11
2.53137e-11
2.53137e-11
2.53137e-11
2.53137e-11
2.53137e-11
2.53137e-11
2.53136e-11
2.53135e-11
2.53134e-11
2.53132e-11
2.5313e-11
2.53128e-11
2.53124e-11
2.5312e-11
2.53114e-11
2.53108e-11
2.531e-11
2.53088e-11
2.53071e-11
2.53049e-11
2.53028e-11
2.52978e-11
2.52929e-11
2.52818e-11
2.52684e-11
2.52438e-11
2.52097e-11
2.51765e-11
2.54285e-11
2.54651e-11
2.55038e-11
2.55312e-11
2.55459e-11
2.55588e-11
2.55642e-11
2.557e-11
2.55722e-11
2.55749e-11
2.55767e-11
2.55767e-11
)
;
    }
}


// ************************************************************************* //
