/*--------------------------------*- C++ -*----------------------------------*\
| =========                 |                                                 |
| \\      /  F ield         | OpenFOAM: The Open Source CFD Toolbox           |
|  \\    /   O peration     | Version:  dev                                   |
|   \\  /    A nd           | Web:      www.OpenFOAM.org                      |
|    \\/     M anipulation  |                                                 |
\*---------------------------------------------------------------------------*/
FoamFile
{
    version     2.0;
    format      ascii;
    class       volScalarField;
    location    "0.08";
    object      N2;
}
// * * * * * * * * * * * * * * * * * * * * * * * * * * * * * * * * * * * * * //

dimensions      [0 0 0 0 0 0 0];

internalField   nonuniform List<scalar> 
250
(
0
0
0
0
0
0
2.51683e-07
3.08546e-06
2.67986e-05
0.000226305
0.00137253
0
0
0
0
0
0
4.40612e-07
5.80883e-06
5.05982e-05
0.000435681
0.00393565
0
0
0
0
0
0
8.12868e-07
9.07169e-06
7.74063e-05
0.00067612
0.00665558
0
0
0
0
0
0
1.30423e-06
1.28262e-05
0.000106703
0.000941985
0.00921418
0
0
0
0
0
2.70933e-08
1.88694e-06
1.70043e-05
0.000137466
0.00122106
0.0112802
0
0
0
0
0
1.87207e-07
2.54066e-06
2.15189e-05
0.00017103
0.00149777
0.0126139
0
0
0
0
0
3.66876e-07
3.24572e-06
2.62518e-05
0.000203479
0.00175522
0.0134977
0
3.79648e-08
4.37525e-08
5.21643e-08
1.10718e-07
5.58705e-07
3.98255e-06
3.10802e-05
0.000240777
0.00198884
0.0141903
0
1.63918e-07
1.66127e-07
1.78252e-07
2.50403e-07
7.91579e-07
4.85566e-06
3.66636e-05
0.000273061
0.00219103
0.0147152
0
3.08742e-07
3.11303e-07
3.27543e-07
4.12809e-07
1.04413e-06
5.75363e-06
4.22837e-05
0.000304404
0.00235462
0.015068
4.50038e-07
4.57444e-07
4.7799e-07
5.76305e-07
1.29725e-06
6.58691e-06
4.70358e-05
0.00033535
0.00249017
0.0152423
6.40407e-07
6.53879e-07
6.79704e-07
7.92439e-07
1.61529e-06
7.54068e-06
5.19438e-05
0.000362794
0.00257543
0.0152349
8.9634e-07
9.02282e-07
9.34057e-07
1.06117e-06
1.98669e-06
8.52954e-06
5.66774e-05
0.000386317
0.00262742
0.0150484
1.21568e-06
1.22008e-06
1.2587e-06
1.39988e-06
2.42822e-06
9.55941e-06
6.1019e-05
0.000405635
0.00264154
0.0146937
1.62279e-06
1.62826e-06
1.67473e-06
1.82922e-06
2.95893e-06
1.06381e-05
6.48882e-05
0.000417831
0.00262228
0.0142086
2.14703e-06
2.15257e-06
2.20801e-06
2.3745e-06
3.6024e-06
1.17787e-05
6.8254e-05
0.000426969
0.00257351
0.0134957
2.82128e-06
2.8246e-06
2.89026e-06
3.06686e-06
4.38803e-06
1.30016e-05
7.11031e-05
0.000431485
0.00249437
0.0127516
3.68468e-06
3.68287e-06
3.76018e-06
3.94436e-06
5.35214e-06
1.43354e-05
7.34496e-05
0.000431442
0.00239322
0.0119099
4.78438e-06
4.7741e-06
4.8647e-06
5.05331e-06
6.53928e-06
1.58193e-05
7.53344e-05
0.000427788
0.00227462
0.0110245
6.17688e-06
6.15441e-06
6.26021e-06
6.44967e-06
8.00347e-06
1.7505e-05
7.68175e-05
0.000419874
0.00214316
0.010062
7.92916e-06
7.89037e-06
8.01364e-06
8.20038e-06
9.80938e-06
1.94605e-05
7.79822e-05
0.000408662
0.00200451
0.00917413
1.01202e-05
1.00605e-05
1.0204e-05
1.03855e-05
1.20337e-05
2.1776e-05
7.8927e-05
0.000394784
0.00186025
0.00817281
1.24993e-05
1.24142e-05
1.25813e-05
1.2752e-05
1.44219e-05
2.41899e-05
7.96579e-05
0.00037886
0.00171988
0.00732111
1.56955e-05
1.5572e-05
1.57713e-05
1.59248e-05
1.75954e-05
2.73606e-05
8.04728e-05
0.000361385
0.0015776
0.00649825
)
;

boundaryField
{
    fuel
    {
        type            fixedValue;
        value           uniform 0;
    }
    wall
    {
        type            zeroGradient;
    }
    outlet
    {
        type            zeroGradient;
    }
    frontAndBack
    {
        type            empty;
    }
    procBoundary3to0
    {
        type            processor;
        value           nonuniform List<scalar> 10(1.92514e-05 1.90893e-05 1.93187e-05 1.9442e-05 2.1119e-05 3.07339e-05 8.15562e-05 0.000342464 0.00143695 0.00572296);
    }
    procBoundary3to2
    {
        type            processor;
        value           nonuniform List<scalar> 
25
(
0
0
0
0
0
0
0
0
2.83831e-08
2.81434e-07
0
0
0
2.99218e-07
8.75684e-07
1.39953e-06
1.9745e-06
2.67489e-06
3.55567e-06
4.66959e-06
6.07594e-06
7.8447e-06
1.00602e-05
1.24751e-05
1.57266e-05
)
;
    }
}


// ************************************************************************* //
