/*--------------------------------*- C++ -*----------------------------------*\
| =========                 |                                                 |
| \\      /  F ield         | OpenFOAM: The Open Source CFD Toolbox           |
|  \\    /   O peration     | Version:  dev                                   |
|   \\  /    A nd           | Web:      www.OpenFOAM.org                      |
|    \\/     M anipulation  |                                                 |
\*---------------------------------------------------------------------------*/
FoamFile
{
    version     2.0;
    format      ascii;
    class       volScalarField;
    location    "0.115";
    object      A1;
}
// * * * * * * * * * * * * * * * * * * * * * * * * * * * * * * * * * * * * * //

dimensions      [0 0 0 0 0 0 0];

internalField   nonuniform List<scalar> 
250
(
0.000334036
0.000333984
0.000334003
0.000333906
0.000333876
0.000333923
0.000334013
0.00033485
0.000337283
0.000353697
8.27541e-05
0.000275292
0.000275297
0.000275264
0.000275264
0.000275186
0.000275283
0.000275308
0.000276537
0.000279912
0.000305538
0.000131419
0.000197114
0.00019713
0.000197096
0.000197122
0.00019703
0.000197148
0.000197146
0.000198672
0.000202039
0.000228502
0.000127809
0.000138494
0.000138511
0.000138485
0.000138485
0.000138445
0.000138506
0.000138575
0.000140258
0.00014355
0.000167099
9.95654e-05
9.84704e-05
9.84993e-05
9.8471e-05
9.84179e-05
9.84814e-05
9.84262e-05
9.8676e-05
0.000100333
0.000103832
0.000123378
7.02818e-05
7.15749e-05
7.1607e-05
7.15985e-05
7.14895e-05
7.16746e-05
7.1547e-05
7.20046e-05
7.34738e-05
7.62555e-05
9.32096e-05
4.88439e-05
5.36211e-05
5.35409e-05
5.36972e-05
5.3539e-05
5.28917e-05
5.32631e-05
5.39252e-05
5.5277e-05
5.84416e-05
7.31162e-05
3.49972e-05
4.00248e-05
3.99374e-05
4.0128e-05
3.99504e-05
4.06133e-05
4.00581e-05
4.04969e-05
4.15491e-05
4.65099e-05
5.86857e-05
2.64426e-05
3.18875e-05
3.18205e-05
3.19946e-05
3.17992e-05
3.23005e-05
3.18634e-05
3.2463e-05
3.32859e-05
3.73917e-05
4.99608e-05
2.11431e-05
2.57108e-05
2.56611e-05
2.58115e-05
2.56032e-05
2.60231e-05
2.56204e-05
2.63608e-05
2.6969e-05
3.17194e-05
4.41024e-05
1.77371e-05
2.1288e-05
2.14106e-05
2.12112e-05
2.15609e-05
2.1206e-05
2.19872e-05
2.23817e-05
2.75057e-05
4.01249e-05
1.54447e-05
1.81941e-05
1.82962e-05
1.81038e-05
1.83973e-05
1.81003e-05
1.88731e-05
1.91472e-05
2.42437e-05
3.78557e-05
1.3905e-05
1.59573e-05
1.60436e-05
1.58501e-05
1.60811e-05
1.58671e-05
1.66039e-05
1.68166e-05
2.18222e-05
3.63784e-05
1.35253e-05
1.42964e-05
1.43699e-05
1.416e-05
1.45626e-05
1.42175e-05
1.49051e-05
1.50919e-05
1.99619e-05
3.53323e-05
1.48952e-05
1.30269e-05
1.30896e-05
1.30128e-05
1.32555e-05
1.29598e-05
1.3596e-05
1.37775e-05
1.84874e-05
3.46382e-05
1.86001e-05
1.20287e-05
1.20816e-05
1.20035e-05
1.22269e-05
1.19727e-05
1.25588e-05
1.27465e-05
1.72843e-05
3.41463e-05
2.52887e-05
1.12248e-05
1.12686e-05
1.11874e-05
1.13977e-05
1.11786e-05
1.17167e-05
1.1917e-05
1.62758e-05
3.37068e-05
3.55434e-05
1.05657e-05
1.06009e-05
1.05119e-05
1.07173e-05
1.05281e-05
1.10202e-05
1.12363e-05
1.54089e-05
3.32633e-05
4.95204e-05
1.002e-05
1.00469e-05
1.00128e-05
1.01538e-05
9.98983e-06
1.04375e-05
1.06714e-05
1.46476e-05
3.27683e-05
6.6633e-05
9.56808e-06
9.58561e-06
9.58396e-06
9.686e-06
9.54433e-06
9.94812e-06
1.0205e-05
1.40638e-05
3.21537e-05
8.55128e-05
9.19817e-06
9.25401e-06
9.21046e-06
9.30144e-06
9.17988e-06
9.53983e-06
9.82928e-06
1.35188e-05
3.14299e-05
0.000104282
8.94013e-06
8.96152e-06
8.94895e-06
8.99393e-06
8.92425e-06
9.2059e-06
9.56061e-06
1.30118e-05
3.05676e-05
0.000120996
8.75413e-06
8.77157e-06
8.75971e-06
8.79187e-06
8.73906e-06
8.98031e-06
9.35775e-06
1.25619e-05
2.9525e-05
0.000134059
8.63067e-06
8.64082e-06
8.63395e-06
8.64899e-06
8.61866e-06
8.81284e-06
9.21493e-06
1.21679e-05
2.83031e-05
0.000142486
)
;

boundaryField
{
    fuel
    {
        type            fixedValue;
        value           uniform 0;
    }
    wall
    {
        type            zeroGradient;
    }
    outlet
    {
        type            zeroGradient;
    }
    frontAndBack
    {
        type            empty;
    }
    procBoundary3to0
    {
        type            processor;
        value           nonuniform List<scalar> 10(8.5955e-06 8.59732e-06 8.59727e-06 8.59406e-06 8.58677e-06 8.73047e-06 9.16231e-06 1.1882e-05 2.69985e-05 0.000145964);
    }
    procBoundary3to2
    {
        type            processor;
        value           nonuniform List<scalar> 
25
(
0.000334063
0.000275328
0.000197147
0.000138515
9.84772e-05
7.15708e-05
5.36094e-05
4.0009e-05
3.18697e-05
2.56942e-05
2.13249e-05
2.13249e-05
1.82236e-05
1.59824e-05
1.43191e-05
1.30484e-05
1.205e-05
1.12464e-05
1.05877e-05
1.00423e-05
9.59006e-06
9.21857e-06
8.95873e-06
8.7698e-06
8.65332e-06
)
;
    }
}


// ************************************************************************* //
