/*--------------------------------*- C++ -*----------------------------------*\
| =========                 |                                                 |
| \\      /  F ield         | OpenFOAM: The Open Source CFD Toolbox           |
|  \\    /   O peration     | Version:  dev                                   |
|   \\  /    A nd           | Web:      www.OpenFOAM.org                      |
|    \\/     M anipulation  |                                                 |
\*---------------------------------------------------------------------------*/
FoamFile
{
    version     2.0;
    format      ascii;
    class       volScalarField;
    location    "0.115";
    object      A1-;
}
// * * * * * * * * * * * * * * * * * * * * * * * * * * * * * * * * * * * * * //

dimensions      [0 0 0 0 0 0 0];

internalField   nonuniform List<scalar> 
250
(
2.45563e-05
2.45782e-05
2.45539e-05
2.45553e-05
2.4566e-05
2.45685e-05
2.45572e-05
2.45924e-05
2.46554e-05
2.38045e-05
4.07681e-08
2.27176e-05
2.27235e-05
2.2716e-05
2.27184e-05
2.27152e-05
2.27234e-05
2.2722e-05
2.28003e-05
2.29587e-05
2.31339e-05
1.48835e-07
1.55909e-05
1.5594e-05
1.55899e-05
1.55934e-05
1.55858e-05
1.55961e-05
1.55936e-05
1.56973e-05
1.58401e-05
1.63471e-05
2.02254e-07
9.91014e-06
9.91245e-06
9.91006e-06
9.91061e-06
9.90757e-06
9.9126e-06
9.91533e-06
1.00236e-05
1.01386e-05
1.06557e-05
1.85726e-07
6.31211e-06
6.31483e-06
6.31279e-06
6.309e-06
6.3144e-06
6.30982e-06
6.32553e-06
6.42119e-06
6.54084e-06
6.93947e-06
1.60037e-07
4.17179e-06
4.17445e-06
4.17393e-06
4.16642e-06
4.18078e-06
4.17081e-06
4.19956e-06
4.27312e-06
4.33354e-06
4.69684e-06
1.47946e-07
2.91013e-06
2.9054e-06
2.9153e-06
2.90514e-06
2.86422e-06
2.88686e-06
2.92725e-06
2.98802e-06
3.07597e-06
3.39133e-06
1.5194e-07
2.05434e-06
2.04939e-06
2.06068e-06
2.05004e-06
2.08982e-06
2.05609e-06
2.08053e-06
2.12023e-06
2.31792e-06
2.55678e-06
1.73677e-07
1.58102e-06
1.57742e-06
1.58729e-06
1.5761e-06
1.60492e-06
1.57964e-06
1.6121e-06
1.63815e-06
1.78491e-06
2.08922e-06
2.16851e-07
1.24121e-06
1.23867e-06
1.24689e-06
1.23539e-06
1.25869e-06
1.23632e-06
1.2754e-06
1.29008e-06
1.47077e-06
1.78389e-06
2.84939e-07
1.00656e-06
1.01313e-06
1.00234e-06
1.02136e-06
1.00212e-06
1.04248e-06
1.04652e-06
1.24528e-06
1.57067e-06
3.80341e-07
8.45634e-07
8.51046e-07
8.40773e-07
8.56627e-07
8.40677e-07
8.79983e-07
8.78449e-07
1.07417e-06
1.43874e-06
4.99357e-07
7.30293e-07
7.34863e-07
7.24633e-07
7.37205e-07
7.25599e-07
7.62671e-07
7.58495e-07
9.4829e-07
1.33862e-06
6.31536e-07
6.4463e-07
6.48544e-07
6.37547e-07
6.58876e-07
6.40555e-07
6.74923e-07
6.69728e-07
8.51674e-07
1.2524e-06
7.97514e-07
5.78637e-07
5.82037e-07
5.77897e-07
5.91015e-07
5.75187e-07
6.06896e-07
6.01556e-07
7.74768e-07
1.18326e-06
1.02652e-06
5.25984e-07
5.28937e-07
5.2465e-07
5.36901e-07
5.23095e-07
5.5233e-07
5.4729e-07
7.11523e-07
1.12796e-06
1.33391e-06
4.82641e-07
4.85202e-07
4.8066e-07
4.92398e-07
4.80231e-07
5.07206e-07
5.02669e-07
6.57943e-07
1.0774e-06
1.7085e-06
4.46014e-07
4.48227e-07
4.43131e-07
4.54846e-07
4.44005e-07
4.68914e-07
4.64947e-07
6.1129e-07
1.03028e-06
2.11061e-06
4.14408e-07
4.16295e-07
4.14137e-07
4.22521e-07
4.1273e-07
4.35734e-07
4.32376e-07
5.69644e-07
9.85237e-07
2.48471e-06
3.86685e-07
3.88184e-07
3.87723e-07
3.9422e-07
3.85275e-07
4.06511e-07
4.03954e-07
5.36813e-07
9.38549e-07
2.77985e-06
3.62034e-07
3.66159e-07
3.62777e-07
3.69124e-07
3.60834e-07
3.80444e-07
3.79068e-07
5.05136e-07
8.92636e-07
2.96539e-06
3.424e-07
3.44271e-07
3.42864e-07
3.46655e-07
3.41228e-07
3.56937e-07
3.58874e-07
4.74395e-07
8.45187e-07
3.03516e-06
3.24951e-07
3.2686e-07
3.25143e-07
3.28835e-07
3.23663e-07
3.38302e-07
3.40442e-07
4.4541e-07
7.93832e-07
3.00184e-06
3.08061e-07
3.09834e-07
3.08057e-07
3.11504e-07
3.0683e-07
3.20396e-07
3.2241e-07
4.17727e-07
7.38028e-07
2.88771e-06
)
;

boundaryField
{
    fuel
    {
        type            fixedValue;
        value           uniform 0;
    }
    wall
    {
        type            zeroGradient;
    }
    outlet
    {
        type            zeroGradient;
    }
    frontAndBack
    {
        type            empty;
    }
    procBoundary3to0
    {
        type            processor;
        value           nonuniform List<scalar> 10(2.94268e-07 2.95886e-07 2.94103e-07 2.97268e-07 2.93073e-07 3.05384e-07 3.07541e-07 3.94604e-07 6.81115e-07 2.71409e-06);
    }
    procBoundary3to2
    {
        type            processor;
        value           nonuniform List<scalar> 
25
(
2.45595e-05
2.27237e-05
1.55951e-05
9.9128e-06
6.31332e-06
4.17201e-06
2.90976e-06
2.05368e-06
1.58026e-06
1.24053e-06
1.00841e-06
1.00841e-06
8.47089e-07
7.31544e-07
6.45777e-07
5.79744e-07
5.27092e-07
4.83772e-07
4.4717e-07
4.1557e-07
3.87806e-07
3.63028e-07
3.43245e-07
3.25536e-07
3.09699e-07
)
;
    }
}


// ************************************************************************* //
