/*--------------------------------*- C++ -*----------------------------------*\
| =========                 |                                                 |
| \\      /  F ield         | OpenFOAM: The Open Source CFD Toolbox           |
|  \\    /   O peration     | Version:  dev                                   |
|   \\  /    A nd           | Web:      www.OpenFOAM.org                      |
|    \\/     M anipulation  |                                                 |
\*---------------------------------------------------------------------------*/
FoamFile
{
    version     2.0;
    format      ascii;
    class       volScalarField;
    location    "0.115";
    object      A1C2H*;
}
// * * * * * * * * * * * * * * * * * * * * * * * * * * * * * * * * * * * * * //

dimensions      [0 0 0 0 0 0 0];

internalField   nonuniform List<scalar> 
250
(
6.44972e-07
6.45637e-07
6.44915e-07
6.4486e-07
6.452e-07
6.45255e-07
6.45074e-07
6.46103e-07
6.48099e-07
6.14354e-07
5.92825e-10
5.75013e-07
5.7519e-07
5.74987e-07
5.75001e-07
5.74902e-07
5.7508e-07
5.7531e-07
5.77627e-07
5.83432e-07
5.78194e-07
1.34002e-09
3.76652e-07
3.76743e-07
3.76657e-07
3.76683e-07
3.76541e-07
3.76709e-07
3.77037e-07
3.79837e-07
3.85741e-07
3.89257e-07
1.50944e-09
2.29485e-07
2.29551e-07
2.29515e-07
2.29456e-07
2.29463e-07
2.29458e-07
2.29975e-07
2.32678e-07
2.37915e-07
2.42711e-07
1.28498e-09
1.40794e-07
1.40869e-07
1.40842e-07
1.40676e-07
1.40893e-07
1.40651e-07
1.41475e-07
1.43705e-07
1.48813e-07
1.52491e-07
1.08906e-09
8.99273e-08
8.99972e-08
9.0008e-08
8.97638e-08
9.01749e-08
8.98259e-08
9.09083e-08
9.25169e-08
9.58725e-08
1.00387e-07
1.04216e-09
6.06906e-08
6.05857e-08
6.08394e-08
6.05464e-08
5.96719e-08
6.00962e-08
6.1374e-08
6.2641e-08
6.63029e-08
7.09686e-08
1.14782e-09
4.12054e-08
4.1098e-08
4.1373e-08
4.10837e-08
4.20421e-08
4.12018e-08
4.20339e-08
4.28061e-08
4.8637e-08
5.24909e-08
1.43345e-09
3.05633e-08
3.04866e-08
3.0722e-08
3.04323e-08
3.1126e-08
3.04995e-08
3.14494e-08
3.19139e-08
3.62379e-08
4.21704e-08
1.98131e-09
2.29887e-08
2.29352e-08
2.3128e-08
2.28428e-08
2.33969e-08
2.28584e-08
2.3891e-08
2.41127e-08
2.89336e-08
3.53545e-08
2.92513e-09
1.7816e-08
1.79673e-08
1.77083e-08
1.81528e-08
1.77038e-08
1.87064e-08
1.87105e-08
2.36833e-08
3.04731e-08
4.45159e-09
1.43116e-08
1.44337e-08
1.41947e-08
1.45574e-08
1.41966e-08
1.51282e-08
1.50278e-08
1.97029e-08
2.73479e-08
6.64615e-09
1.18352e-08
1.19358e-08
1.17056e-08
1.19882e-08
1.17314e-08
1.25767e-08
1.24336e-08
1.67863e-08
2.48665e-08
9.42464e-09
1.00238e-08
1.01078e-08
9.86926e-09
1.03277e-08
9.93693e-09
1.06944e-08
1.05404e-08
1.45627e-08
2.26428e-08
1.31094e-08
8.65121e-09
8.72235e-09
8.63208e-09
8.91032e-09
8.57993e-09
9.25715e-09
9.10829e-09
1.28093e-08
2.08203e-08
1.82057e-08
7.57584e-09
7.63611e-09
7.54648e-09
7.79948e-09
7.51779e-09
8.12379e-09
7.98725e-09
1.13844e-08
1.9347e-08
2.49808e-08
6.7081e-09
6.75915e-09
6.66747e-09
6.90345e-09
6.66093e-09
7.2041e-09
7.08246e-09
1.01946e-08
1.80018e-08
3.31146e-08
5.99051e-09
6.03365e-09
5.93395e-09
6.16315e-09
5.95216e-09
6.43966e-09
6.33312e-09
9.17659e-09
1.67613e-08
4.1619e-08
5.3853e-09
5.42133e-09
5.37978e-09
5.54002e-09
5.35401e-09
5.79183e-09
5.70027e-09
8.28602e-09
1.56001e-08
4.91538e-08
4.86682e-09
4.89479e-09
4.88588e-09
5.00696e-09
4.84111e-09
5.23435e-09
5.16062e-09
7.59909e-09
1.44376e-08
5.45558e-08
4.41646e-09
4.49144e-09
4.4298e-09
4.54521e-09
4.39505e-09
4.74871e-09
4.69878e-09
6.95104e-09
1.33455e-08
5.72247e-08
4.06552e-09
4.09886e-09
4.07364e-09
4.14111e-09
4.04498e-09
4.32084e-09
4.3321e-09
6.33769e-09
1.22744e-08
5.71941e-08
3.75958e-09
3.79293e-09
3.76282e-09
3.82734e-09
3.73739e-09
3.98899e-09
4.00403e-09
5.77496e-09
1.11785e-08
5.49458e-08
3.46853e-09
3.49892e-09
3.46839e-09
3.52759e-09
3.44774e-09
3.67609e-09
3.68907e-09
5.25256e-09
1.00565e-08
5.11478e-08
)
;

boundaryField
{
    fuel
    {
        type            fixedValue;
        value           uniform 0;
    }
    wall
    {
        type            zeroGradient;
    }
    outlet
    {
        type            zeroGradient;
    }
    frontAndBack
    {
        type            empty;
    }
    procBoundary3to0
    {
        type            processor;
        value           nonuniform List<scalar> 10(3.23494e-09 3.26222e-09 3.23215e-09 3.2857e-09 3.21514e-09 3.41851e-09 3.43441e-09 4.82857e-09 8.97904e-09 4.6386e-08);
    }
    procBoundary3to2
    {
        type            processor;
        value           nonuniform List<scalar> 
25
(
6.45075e-07
5.75159e-07
3.76764e-07
2.29553e-07
1.40824e-07
8.99326e-08
6.06823e-08
4.11908e-08
3.05466e-08
2.2974e-08
1.78545e-08
1.78545e-08
1.43419e-08
1.18611e-08
1.00475e-08
8.67389e-09
7.59824e-09
6.73055e-09
6.01293e-09
5.40726e-09
4.88743e-09
4.43417e-09
4.08013e-09
3.76924e-09
3.49606e-09
)
;
    }
}


// ************************************************************************* //
