/*--------------------------------*- C++ -*----------------------------------*\
| =========                 |                                                 |
| \\      /  F ield         | OpenFOAM: The Open Source CFD Toolbox           |
|  \\    /   O peration     | Version:  dev                                   |
|   \\  /    A nd           | Web:      www.OpenFOAM.org                      |
|    \\/     M anipulation  |                                                 |
\*---------------------------------------------------------------------------*/
FoamFile
{
    version     2.0;
    format      ascii;
    class       volScalarField;
    location    "0.115";
    object      A2C2HB*;
}
// * * * * * * * * * * * * * * * * * * * * * * * * * * * * * * * * * * * * * //

dimensions      [0 0 0 0 0 0 0];

internalField   nonuniform List<scalar> 
250
(
1.64901e-09
1.65124e-09
1.64869e-09
1.64863e-09
1.64928e-09
1.64953e-09
1.64935e-09
1.65598e-09
1.67553e-09
1.61978e-09
9.41104e-13
1.19941e-09
1.19997e-09
1.19923e-09
1.19928e-09
1.19888e-09
1.19945e-09
1.20031e-09
1.20908e-09
1.23686e-09
1.30255e-09
1.51617e-12
6.32105e-10
6.32327e-10
6.32068e-10
6.32154e-10
6.31768e-10
6.32175e-10
6.3304e-10
6.40354e-10
6.61215e-10
7.1059e-10
1.38165e-12
3.29125e-10
3.29236e-10
3.2917e-10
3.29083e-10
3.29066e-10
3.29059e-10
3.30142e-10
3.3555e-10
3.50877e-10
3.74888e-10
1.05104e-12
1.83226e-10
1.8332e-10
1.83305e-10
1.83056e-10
1.83388e-10
1.82987e-10
1.84434e-10
1.88175e-10
2.00985e-10
2.10953e-10
8.25021e-13
1.11045e-10
1.11125e-10
1.11163e-10
1.10816e-10
1.11418e-10
1.10864e-10
1.12575e-10
1.14994e-10
1.24081e-10
1.31207e-10
7.37706e-13
7.30815e-11
7.2947e-11
7.32777e-11
7.28779e-11
7.18707e-11
7.22724e-11
7.41793e-11
7.59307e-11
8.45541e-11
9.12572e-11
7.6405e-13
4.88879e-11
4.87503e-11
4.91029e-11
4.87166e-11
4.99575e-11
4.88216e-11
5.0118e-11
5.11487e-11
6.1774e-11
6.80932e-11
9.18058e-13
3.57761e-11
3.56747e-11
3.59782e-11
3.55977e-11
3.65048e-11
3.56453e-11
3.70386e-11
3.76589e-11
4.57868e-11
5.5587e-11
1.29142e-12
2.63134e-11
2.62393e-11
2.64905e-11
2.61218e-11
2.68521e-11
2.61102e-11
2.75563e-11
2.78741e-11
3.6158e-11
4.72387e-11
2.11588e-12
1.96995e-11
1.98984e-11
1.95698e-11
2.01554e-11
1.95358e-11
2.08966e-11
2.09518e-11
2.9018e-11
4.09455e-11
3.96052e-12
1.51434e-11
1.53036e-11
1.50083e-11
1.54777e-11
1.49838e-11
1.62097e-11
1.61466e-11
2.34509e-11
3.66501e-11
7.85942e-12
1.19101e-11
1.20404e-11
1.17643e-11
1.21134e-11
1.17713e-11
1.2845e-11
1.27416e-11
1.93054e-11
3.30151e-11
1.49665e-11
9.57672e-12
9.68305e-12
9.40215e-12
9.96098e-12
9.4647e-12
1.03882e-11
1.02841e-11
1.61452e-11
2.96409e-11
2.58657e-11
7.86301e-12
7.95036e-12
7.85668e-12
8.17589e-12
7.775e-12
8.56384e-12
8.47732e-12
1.3694e-11
2.6885e-11
4.01627e-11
6.58013e-12
6.65159e-12
6.56156e-12
6.83633e-12
6.51204e-12
7.18477e-12
7.12227e-12
1.17618e-11
2.47224e-11
5.66376e-11
5.5995e-12
5.65778e-12
5.56825e-12
5.81135e-12
5.54728e-12
6.12228e-12
6.08367e-12
1.0212e-11
2.28356e-11
7.3568e-11
4.83291e-12
4.88023e-12
4.78389e-12
5.01056e-12
4.79303e-12
5.28689e-12
5.26865e-12
8.94353e-12
2.11864e-11
8.90743e-11
4.21932e-12
4.25714e-12
4.21934e-12
4.37138e-12
4.18885e-12
4.61589e-12
4.61372e-12
7.88039e-12
1.97169e-11
1.01442e-10
3.71595e-12
3.74377e-12
3.73714e-12
3.84891e-12
3.69257e-12
4.06489e-12
4.07724e-12
7.0889e-12
1.82948e-11
1.09424e-10
3.29198e-12
3.3619e-12
3.306e-12
3.4116e-12
3.27384e-12
3.60206e-12
3.63044e-12
6.36458e-12
1.69728e-11
1.12495e-10
2.96679e-12
2.9975e-12
2.97512e-12
3.03682e-12
2.95025e-12
3.20375e-12
3.2808e-12
5.69459e-12
1.56585e-11
1.10932e-10
2.6847e-12
2.71528e-12
2.68815e-12
2.74781e-12
2.66715e-12
2.89765e-12
2.96912e-12
5.08813e-12
1.42728e-11
1.05606e-10
2.41527e-12
2.44328e-12
2.41551e-12
2.47105e-12
2.39929e-12
2.60891e-12
2.66846e-12
4.52788e-12
1.27969e-11
9.76485e-11
)
;

boundaryField
{
    fuel
    {
        type            fixedValue;
        value           uniform 0;
    }
    wall
    {
        type            zeroGradient;
    }
    outlet
    {
        type            zeroGradient;
    }
    frontAndBack
    {
        type            empty;
    }
    procBoundary3to0
    {
        type            processor;
        value           nonuniform List<scalar> 10(2.1968e-12 2.22217e-12 2.19465e-12 2.24553e-12 2.18182e-12 2.3692e-12 2.42283e-12 4.07204e-12 1.132e-11 8.80347e-11);
    }
    procBoundary3to2
    {
        type            processor;
        value           nonuniform List<scalar> 
25
(
1.64947e-09
1.19993e-09
6.3239e-10
3.29263e-10
1.83279e-10
1.11056e-10
7.30716e-11
4.88695e-11
3.57548e-11
2.62945e-11
1.97549e-11
1.97549e-11
1.51878e-11
1.19475e-11
9.60894e-12
7.89139e-12
6.60562e-12
5.62278e-12
4.85438e-12
4.23902e-12
3.7335e-12
3.30632e-12
2.97804e-12
2.69128e-12
2.43834e-12
)
;
    }
}


// ************************************************************************* //
