/*--------------------------------*- C++ -*----------------------------------*\
| =========                 |                                                 |
| \\      /  F ield         | OpenFOAM: The Open Source CFD Toolbox           |
|  \\    /   O peration     | Version:  dev                                   |
|   \\  /    A nd           | Web:      www.OpenFOAM.org                      |
|    \\/     M anipulation  |                                                 |
\*---------------------------------------------------------------------------*/
FoamFile
{
    version     2.0;
    format      ascii;
    class       volScalarField;
    location    "0.115";
    object      A2C2HB;
}
// * * * * * * * * * * * * * * * * * * * * * * * * * * * * * * * * * * * * * //

dimensions      [0 0 0 0 0 0 0];

internalField   nonuniform List<scalar> 
250
(
5.78651e-08
5.78761e-08
5.78714e-08
5.78649e-08
5.78683e-08
5.7875e-08
5.78759e-08
5.82643e-08
6.09851e-08
8.13371e-08
2.05825e-09
4.27759e-08
4.27731e-08
4.27807e-08
4.27763e-08
4.27714e-08
4.27876e-08
4.2812e-08
4.32623e-08
4.6666e-08
7.5808e-08
4.40606e-09
2.76005e-08
2.75872e-08
2.76059e-08
2.75985e-08
2.75913e-08
2.76102e-08
2.76409e-08
2.80522e-08
3.12631e-08
6.08463e-08
5.81739e-09
1.85701e-08
1.85439e-08
1.8576e-08
1.85667e-08
1.85501e-08
1.85779e-08
1.86088e-08
1.89768e-08
2.1949e-08
5.06709e-08
6.67901e-09
1.31858e-08
1.31354e-08
1.31913e-08
1.31813e-08
1.3139e-08
1.31913e-08
1.32195e-08
1.35364e-08
1.63343e-08
4.42858e-08
7.29195e-09
9.64922e-09
9.67756e-09
9.65405e-09
9.63934e-09
9.67479e-09
9.65294e-09
9.68985e-09
1.00639e-08
1.27218e-08
4.01327e-08
7.82692e-09
7.31306e-09
7.32812e-09
7.31728e-09
7.30173e-09
7.31987e-09
7.31536e-09
7.3515e-09
7.71145e-09
1.02481e-08
3.67757e-08
8.36133e-09
5.65498e-09
5.66156e-09
5.66092e-09
5.64272e-09
5.65186e-09
5.65839e-09
5.69575e-09
6.06042e-09
8.3863e-09
3.44204e-08
8.92054e-09
4.42314e-09
4.44841e-09
4.43908e-09
4.43486e-09
4.41985e-09
4.43715e-09
4.46126e-09
4.76827e-09
7.05092e-09
3.2209e-08
9.48579e-09
3.52085e-09
3.55511e-09
3.55062e-09
3.54531e-09
3.52372e-09
3.54875e-09
3.57092e-09
3.76211e-09
5.95111e-09
3.01972e-08
1.00204e-08
2.86961e-09
2.86753e-09
2.85916e-09
2.83339e-09
2.8657e-09
2.89182e-09
3.09718e-09
5.02043e-09
2.81678e-08
1.04804e-08
2.30973e-09
2.30898e-09
2.2994e-09
2.3181e-09
2.30845e-09
2.33167e-09
2.5331e-09
4.35572e-09
2.60799e-08
1.08364e-08
1.88537e-09
1.88512e-09
1.87267e-09
1.8991e-09
1.88583e-09
1.90619e-09
2.09588e-09
3.77967e-09
2.39306e-08
1.10815e-08
1.56075e-09
1.56061e-09
1.54226e-09
1.57513e-09
1.5623e-09
1.58018e-09
1.75605e-09
3.25831e-09
2.17465e-08
1.12207e-08
1.31007e-09
1.30993e-09
1.31608e-09
1.32262e-09
1.31228e-09
1.32818e-09
1.48919e-09
2.86837e-09
1.9576e-08
1.12585e-08
1.11465e-09
1.11432e-09
1.11824e-09
1.12465e-09
1.11723e-09
1.13158e-09
1.27727e-09
2.51748e-09
1.72e-08
1.11946e-08
9.60852e-10
9.60253e-10
9.62131e-10
9.6853e-10
9.63634e-10
9.76744e-10
1.10702e-09
2.19493e-09
1.48086e-08
1.10314e-08
8.3869e-10
8.37802e-10
8.37431e-10
8.44521e-10
8.41577e-10
8.53654e-10
9.68568e-10
1.91736e-09
1.25931e-08
1.0768e-08
7.40765e-10
7.39667e-10
7.36238e-10
7.45261e-10
7.4371e-10
7.54904e-10
8.54203e-10
1.67865e-09
1.07949e-08
1.03962e-08
6.61557e-10
6.6048e-10
6.62847e-10
6.6523e-10
6.64546e-10
6.74998e-10
7.70664e-10
1.47289e-09
9.06472e-09
9.90387e-09
5.96904e-10
5.96192e-10
6.01623e-10
6.0008e-10
5.99953e-10
6.09739e-10
6.97289e-10
1.29606e-09
7.59056e-09
9.29659e-09
5.4361e-10
5.43632e-10
5.47307e-10
5.46502e-10
5.46772e-10
5.55961e-10
6.32666e-10
1.14456e-09
6.33408e-09
8.58937e-09
5.04517e-10
5.0535e-10
5.07778e-10
5.07361e-10
5.07885e-10
5.16556e-10
5.84587e-10
1.01537e-09
5.16514e-09
7.80701e-09
4.73078e-10
4.72316e-10
4.73834e-10
4.737e-10
4.74407e-10
4.82691e-10
5.44855e-10
9.06105e-10
4.26581e-09
6.98393e-09
)
;

boundaryField
{
    fuel
    {
        type            fixedValue;
        value           uniform 0;
    }
    wall
    {
        type            zeroGradient;
    }
    outlet
    {
        type            zeroGradient;
    }
    frontAndBack
    {
        type            empty;
    }
    procBoundary3to0
    {
        type            processor;
        value           nonuniform List<scalar> 10(4.48545e-10 4.48005e-10 4.49022e-10 4.48924e-10 4.49724e-10 4.57614e-10 5.12932e-10 8.14227e-10 3.51194e-09 6.15707e-09);
    }
    procBoundary3to2
    {
        type            processor;
        value           nonuniform List<scalar> 
25
(
5.783e-08
4.27548e-08
2.75856e-08
1.85582e-08
1.31767e-08
9.64916e-09
7.31724e-09
5.66253e-09
4.4456e-09
3.5565e-09
2.84244e-09
2.84244e-09
2.29278e-09
1.87479e-09
1.55388e-09
1.30523e-09
1.11086e-09
9.57635e-10
8.35837e-10
7.38225e-10
6.59359e-10
5.95125e-10
5.4238e-10
5.03908e-10
4.70713e-10
)
;
    }
}


// ************************************************************************* //
