/*--------------------------------*- C++ -*----------------------------------*\
| =========                 |                                                 |
| \\      /  F ield         | OpenFOAM: The Open Source CFD Toolbox           |
|  \\    /   O peration     | Version:  dev                                   |
|   \\  /    A nd           | Web:      www.OpenFOAM.org                      |
|    \\/     M anipulation  |                                                 |
\*---------------------------------------------------------------------------*/
FoamFile
{
    version     2.0;
    format      ascii;
    class       volScalarField;
    location    "0.115";
    object      A4-;
}
// * * * * * * * * * * * * * * * * * * * * * * * * * * * * * * * * * * * * * //

dimensions      [0 0 0 0 0 0 0];

internalField   nonuniform List<scalar> 
50
(
5.50584e-21
5.24793e-21
4.99943e-21
4.75995e-21
4.5289e-21
4.30565e-21
4.09297e-21
3.8845e-21
3.68453e-21
3.48908e-21
3.30021e-21
3.11645e-21
2.93574e-21
2.76149e-21
2.59067e-21
2.42539e-21
2.26453e-21
2.10619e-21
1.95407e-21
1.80641e-21
1.66333e-21
1.52499e-21
1.38995e-21
1.26158e-21
1.13853e-21
1.01964e-21
9.07968e-22
8.01136e-22
6.99655e-22
6.06749e-22
5.20488e-22
4.41071e-22
3.68669e-22
3.03401e-22
2.45322e-22
1.94404e-22
1.5053e-22
1.13461e-22
8.28991e-23
5.83896e-23
3.93721e-23
2.51956e-23
1.51358e-23
8.42155e-24
4.27245e-24
1.94565e-24
7.88655e-25
2.89046e-25
1.02494e-25
4.29031e-26
)
;

boundaryField
{
    wall
    {
        type            zeroGradient;
    }
    fuel
    {
        type            fixedValue;
        value           nonuniform 0();
    }
    outlet
    {
        type            inletOutlet;
        inletValue      uniform 0;
        value           uniform 4.29031e-26;
    }
    procBoundary3to2
    {
        type            processor;
        value           uniform 5.77456e-21;
    }
}


// ************************************************************************* //
