/*--------------------------------*- C++ -*----------------------------------*\
| =========                 |                                                 |
| \\      /  F ield         | OpenFOAM: The Open Source CFD Toolbox           |
|  \\    /   O peration     | Version:  dev                                   |
|   \\  /    A nd           | Web:      www.OpenFOAM.org                      |
|    \\/     M anipulation  |                                                 |
\*---------------------------------------------------------------------------*/
FoamFile
{
    version     2.0;
    format      ascii;
    class       volScalarField;
    location    "0.115";
    object      CH2;
}
// * * * * * * * * * * * * * * * * * * * * * * * * * * * * * * * * * * * * * //

dimensions      [0 0 0 0 0 0 0];

internalField   nonuniform List<scalar> 
50
(
5.12294e-13
5.17435e-13
5.21583e-13
5.24645e-13
5.26496e-13
5.27012e-13
5.26094e-13
5.23647e-13
5.19642e-13
5.13962e-13
5.06626e-13
4.97569e-13
4.86663e-13
4.74108e-13
4.59725e-13
4.43731e-13
4.26103e-13
4.06703e-13
3.86096e-13
3.64233e-13
3.4133e-13
3.17654e-13
2.93239e-13
2.69042e-13
2.45252e-13
2.22134e-13
2.00877e-13
1.81732e-13
1.65686e-13
1.54286e-13
1.48562e-13
1.50326e-13
1.62054e-13
1.87158e-13
2.303e-13
2.97612e-13
3.96656e-13
5.35962e-13
7.23614e-13
9.65383e-13
1.26181e-12
1.60467e-12
1.974e-12
2.33635e-12
2.64433e-12
2.83758e-12
2.84556e-12
2.59494e-12
2.0438e-12
1.35331e-12
)
;

boundaryField
{
    wall
    {
        type            zeroGradient;
    }
    fuel
    {
        type            fixedValue;
        value           nonuniform 0();
    }
    outlet
    {
        type            inletOutlet;
        inletValue      uniform 0;
        value           uniform 1.35331e-12;
    }
    procBoundary3to2
    {
        type            processor;
        value           uniform 5.06604e-13;
    }
}


// ************************************************************************* //
