/*--------------------------------*- C++ -*----------------------------------*\
| =========                 |                                                 |
| \\      /  F ield         | OpenFOAM: The Open Source CFD Toolbox           |
|  \\    /   O peration     | Version:  dev                                   |
|   \\  /    A nd           | Web:      www.OpenFOAM.org                      |
|    \\/     M anipulation  |                                                 |
\*---------------------------------------------------------------------------*/
FoamFile
{
    version     2.0;
    format      ascii;
    class       volScalarField;
    location    "0.115";
    object      H2C4O;
}
// * * * * * * * * * * * * * * * * * * * * * * * * * * * * * * * * * * * * * //

dimensions      [0 0 0 0 0 0 0];

internalField   nonuniform List<scalar> 
50
(
4.23954e-22
3.74109e-22
3.27911e-22
2.85409e-22
2.46611e-22
2.11481e-22
1.80434e-22
1.52474e-22
1.28089e-22
1.06635e-22
8.81671e-23
7.2323e-23
5.87219e-23
4.73918e-23
3.78904e-23
3.01019e-23
2.37389e-23
1.85267e-23
1.43943e-23
1.1108e-23
8.51611e-24
6.48776e-24
4.89313e-24
3.67711e-24
2.74525e-24
2.02725e-24
1.49088e-24
1.08384e-24
7.78068e-25
5.57531e-25
3.96897e-25
2.81522e-25
2.00032e-25
1.43569e-25
1.05243e-25
7.97227e-26
6.29292e-26
5.18197e-26
4.42446e-26
3.8768e-26
3.44842e-26
3.08203e-26
2.74064e-26
2.40161e-26
2.05425e-26
1.69842e-26
1.34182e-26
9.94377e-27
6.6633e-27
4.0284e-27
)
;

boundaryField
{
    wall
    {
        type            zeroGradient;
    }
    fuel
    {
        type            fixedValue;
        value           nonuniform 0();
    }
    outlet
    {
        type            inletOutlet;
        inletValue      uniform 0;
        value           uniform 4.0284e-27;
    }
    procBoundary3to2
    {
        type            processor;
        value           uniform 4.77078e-22;
    }
}


// ************************************************************************* //
