/*--------------------------------*- C++ -*----------------------------------*\
| =========                 |                                                 |
| \\      /  F ield         | OpenFOAM: The Open Source CFD Toolbox           |
|  \\    /   O peration     | Version:  dev                                   |
|   \\  /    A nd           | Web:      www.OpenFOAM.org                      |
|    \\/     M anipulation  |                                                 |
\*---------------------------------------------------------------------------*/
FoamFile
{
    version     2.0;
    format      ascii;
    class       volScalarField;
    location    "0.115";
    object      H2C4O;
}
// * * * * * * * * * * * * * * * * * * * * * * * * * * * * * * * * * * * * * //

dimensions      [0 0 0 0 0 0 0];

internalField   nonuniform List<scalar> 
250
(
1.26311e-05
1.26341e-05
1.26318e-05
1.26318e-05
1.26332e-05
1.26317e-05
1.26321e-05
1.26494e-05
1.27584e-05
1.33834e-05
2.79319e-06
9.40836e-06
9.40772e-06
9.40929e-06
9.40813e-06
9.40797e-06
9.40927e-06
9.41065e-06
9.4356e-06
9.59015e-06
1.05128e-05
5.00702e-06
7.15046e-06
7.1481e-06
7.1518e-06
7.14972e-06
7.14865e-06
7.1516e-06
7.15409e-06
7.18433e-06
7.36457e-06
8.37157e-06
5.53084e-06
5.8813e-06
5.87701e-06
5.88292e-06
5.88015e-06
5.87689e-06
5.88258e-06
5.88611e-06
5.92155e-06
6.12409e-06
7.16456e-06
5.44942e-06
5.10662e-06
5.09887e-06
5.10834e-06
5.10495e-06
5.09703e-06
5.10787e-06
5.1123e-06
5.15144e-06
5.37462e-06
6.42232e-06
5.24191e-06
4.55154e-06
4.5572e-06
4.55347e-06
4.54865e-06
4.55277e-06
4.55288e-06
4.56033e-06
4.62044e-06
4.86016e-06
5.9019e-06
5.06812e-06
4.13406e-06
4.13838e-06
4.13661e-06
4.13088e-06
4.1315e-06
4.1359e-06
4.14489e-06
4.21469e-06
4.46718e-06
5.43292e-06
4.96782e-06
3.78742e-06
3.79142e-06
3.79166e-06
3.78457e-06
3.78273e-06
3.79084e-06
3.80169e-06
3.88426e-06
4.12795e-06
5.07975e-06
4.9228e-06
3.48195e-06
3.49279e-06
3.49055e-06
3.48627e-06
3.47743e-06
3.48995e-06
3.49874e-06
3.57746e-06
3.84683e-06
4.74503e-06
4.78509e-06
3.21591e-06
3.23135e-06
3.23022e-06
3.22478e-06
3.21344e-06
3.22982e-06
3.23915e-06
3.29233e-06
3.5781e-06
4.45496e-06
4.11578e-06
2.99154e-06
2.99092e-06
2.98326e-06
2.97128e-06
2.99083e-06
3.00275e-06
3.06966e-06
3.31655e-06
4.18607e-06
2.76869e-06
2.75653e-06
2.75609e-06
2.74656e-06
2.75675e-06
2.75705e-06
2.76893e-06
2.84429e-06
3.10595e-06
3.93632e-06
1.55128e-06
2.5445e-06
2.54397e-06
2.53171e-06
2.54951e-06
2.5461e-06
2.55773e-06
2.63748e-06
2.90175e-06
3.70394e-06
9.3299e-07
2.35308e-06
2.35232e-06
2.33588e-06
2.35995e-06
2.35557e-06
2.36693e-06
2.44898e-06
2.69764e-06
3.48765e-06
7.54338e-07
2.1802e-06
2.1792e-06
2.18058e-06
2.18732e-06
2.18342e-06
2.19456e-06
2.27704e-06
2.53232e-06
3.28725e-06
7.89044e-07
2.02403e-06
2.02268e-06
2.02286e-06
2.03065e-06
2.02785e-06
2.03879e-06
2.11996e-06
2.37223e-06
3.07835e-06
9.16534e-07
1.88289e-06
1.88115e-06
1.87981e-06
1.88885e-06
1.88721e-06
1.89795e-06
1.97611e-06
2.21451e-06
2.87285e-06
1.07826e-06
1.75525e-06
1.75316e-06
1.7497e-06
1.76064e-06
1.76002e-06
1.77051e-06
1.84393e-06
2.06937e-06
2.68169e-06
1.24138e-06
1.63969e-06
1.63744e-06
1.63071e-06
1.64473e-06
1.64489e-06
1.65509e-06
1.72184e-06
1.93595e-06
2.52199e-06
1.3859e-06
1.53489e-06
1.53294e-06
1.53464e-06
1.53992e-06
1.54052e-06
1.55045e-06
1.62337e-06
1.81355e-06
2.36067e-06
1.50065e-06
1.4396e-06
1.43863e-06
1.44558e-06
1.44481e-06
1.4457e-06
1.45534e-06
1.52792e-06
1.70115e-06
2.21409e-06
1.58211e-06
1.35253e-06
1.35323e-06
1.35787e-06
1.35806e-06
1.35919e-06
1.36858e-06
1.43541e-06
1.59802e-06
2.07875e-06
1.63128e-06
1.28194e-06
1.28438e-06
1.2872e-06
1.28795e-06
1.28928e-06
1.29839e-06
1.36012e-06
1.50369e-06
1.94008e-06
1.65168e-06
1.21842e-06
1.21764e-06
1.21905e-06
1.22034e-06
1.22184e-06
1.2309e-06
1.29152e-06
1.41733e-06
1.82137e-06
1.64832e-06
)
;

boundaryField
{
    fuel
    {
        type            fixedValue;
        value           uniform 0;
    }
    wall
    {
        type            zeroGradient;
    }
    outlet
    {
        type            zeroGradient;
    }
    frontAndBack
    {
        type            empty;
    }
    procBoundary3to0
    {
        type            processor;
        value           nonuniform List<scalar> 10(1.16135e-06 1.16114e-06 1.16172e-06 1.16321e-06 1.16481e-06 1.17365e-06 1.22963e-06 1.33787e-06 1.70998e-06 1.62606e-06);
    }
    procBoundary3to2
    {
        type            processor;
        value           nonuniform List<scalar> 
25
(
1.26297e-05
9.40699e-06
7.14932e-06
5.88067e-06
5.10699e-06
4.55432e-06
4.13875e-06
3.79435e-06
3.49479e-06
3.23476e-06
2.97835e-06
2.97835e-06
2.74708e-06
2.53749e-06
2.34747e-06
2.17531e-06
2.01949e-06
1.87855e-06
1.75112e-06
1.63586e-06
1.53151e-06
1.43684e-06
1.35063e-06
1.28102e-06
1.21352e-06
)
;
    }
}


// ************************************************************************* //
