/*--------------------------------*- C++ -*----------------------------------*\
| =========                 |                                                 |
| \\      /  F ield         | OpenFOAM: The Open Source CFD Toolbox           |
|  \\    /   O peration     | Version:  dev                                   |
|   \\  /    A nd           | Web:      www.OpenFOAM.org                      |
|    \\/     M anipulation  |                                                 |
\*---------------------------------------------------------------------------*/
FoamFile
{
    version     2.0;
    format      ascii;
    class       volScalarField;
    location    "0.115";
    object      H2O;
}
// * * * * * * * * * * * * * * * * * * * * * * * * * * * * * * * * * * * * * //

dimensions      [0 0 0 0 0 0 0];

internalField   nonuniform List<scalar> 
250
(
0.0602259
0.0602276
0.0602271
0.0602268
0.0602268
0.0602261
0.060226
0.0602261
0.0602096
0.0598955
0.00427554
0.0674054
0.0674053
0.0674062
0.0674057
0.0674051
0.0674061
0.0674069
0.067419
0.0674894
0.0677274
0.011574
0.0677267
0.0677246
0.0677278
0.0677263
0.067725
0.0677276
0.0677295
0.0677514
0.0678765
0.0683716
0.0189357
0.0670421
0.0670373
0.0670437
0.067041
0.0670373
0.0670432
0.0670461
0.0670765
0.0672409
0.0678479
0.0259644
0.0663144
0.0663049
0.0663162
0.0663125
0.0663032
0.0663154
0.0663193
0.066356
0.0665525
0.0672099
0.0323735
0.0656524
0.0656595
0.0656546
0.0656488
0.0656546
0.0656536
0.0656614
0.0657259
0.065948
0.066637
0.0379898
0.0650931
0.0650987
0.0650962
0.0650888
0.0650904
0.065095
0.065105
0.0651846
0.0654275
0.0660641
0.0427651
0.0645985
0.0646039
0.0646042
0.0645945
0.0645928
0.0646027
0.0646156
0.0647157
0.0649496
0.0656218
0.0467531
0.0641446
0.0641604
0.064157
0.0641513
0.0641389
0.0641558
0.0641659
0.0642631
0.06454
0.065201
0.0500637
0.0637359
0.0637595
0.0637577
0.0637499
0.0637331
0.0637567
0.063768
0.0638286
0.0641388
0.0648377
0.0528082
0.0633798
0.0633788
0.0633671
0.0633485
0.0633783
0.0633941
0.063479
0.0637387
0.0645008
0.0550449
0.0629943
0.0629936
0.0629781
0.0629958
0.0629948
0.0630113
0.0631138
0.0634084
0.0641841
0.0568256
0.0626323
0.0626315
0.0626104
0.062642
0.0626348
0.0626516
0.0627664
0.0630793
0.0638823
0.0581972
0.0622913
0.06229
0.0622603
0.0623045
0.0622955
0.0623126
0.0624371
0.0627398
0.0635924
0.0592195
0.0619691
0.0619673
0.0619703
0.0619832
0.0619749
0.0619925
0.062124
0.0624558
0.0633138
0.0599589
0.0616641
0.0616615
0.0616621
0.0616778
0.0616715
0.0616895
0.0618253
0.0621713
0.0630113
0.0604729
0.061375
0.0613715
0.0613686
0.061388
0.0613839
0.0614024
0.0615391
0.0618803
0.0627004
0.0608088
0.0611004
0.061096
0.0610881
0.0611127
0.0611108
0.0611297
0.0612636
0.0616015
0.0623979
0.0610061
0.0608391
0.0608341
0.0608182
0.0608512
0.0608511
0.0608703
0.0609967
0.0613343
0.0621342
0.0610977
0.0605895
0.0605852
0.0605893
0.0606024
0.0606033
0.0606229
0.0607713
0.0610784
0.0618569
0.0611093
0.0603503
0.0603485
0.0603663
0.0603644
0.0603662
0.0603861
0.060542
0.0608325
0.0615947
0.0610622
0.0601196
0.0601225
0.0601346
0.0601354
0.060138
0.0601583
0.0603082
0.0605961
0.061343
0.0609723
0.0599225
0.0599305
0.0599378
0.0599405
0.0599437
0.0599643
0.0601083
0.0603691
0.0610743
0.0608514
0.0597355
0.0597338
0.0597372
0.0597418
0.0597457
0.0597674
0.0599166
0.0601505
0.0608343
0.0607091
)
;

boundaryField
{
    fuel
    {
        type            fixedValue;
        value           uniform 0;
    }
    wall
    {
        type            zeroGradient;
    }
    outlet
    {
        type            zeroGradient;
    }
    frontAndBack
    {
        type            empty;
    }
    procBoundary3to0
    {
        type            processor;
        value           nonuniform List<scalar> 10(0.0595579 0.059558 0.059559 0.0595644 0.0595688 0.059591 0.0597344 0.0599384 0.0605995 0.0605523);
    }
    procBoundary3to2
    {
        type            processor;
        value           nonuniform List<scalar> 
25
(
0.0602259
0.0674049
0.0677258
0.0670413
0.0663145
0.0656554
0.0650987
0.0646076
0.0641629
0.0637642
0.063359
0.063359
0.0629788
0.0626203
0.0622812
0.0619598
0.0616551
0.061366
0.0610914
0.0608303
0.0605815
0.0603435
0.0601148
0.0599202
0.0597207
)
;
    }
}


// ************************************************************************* //
