/*--------------------------------*- C++ -*----------------------------------*\
| =========                 |                                                 |
| \\      /  F ield         | OpenFOAM: The Open Source CFD Toolbox           |
|  \\    /   O peration     | Version:  dev                                   |
|   \\  /    A nd           | Web:      www.OpenFOAM.org                      |
|    \\/     M anipulation  |                                                 |
\*---------------------------------------------------------------------------*/
FoamFile
{
    version     2.0;
    format      ascii;
    class       volScalarField;
    location    "0.115";
    object      i-C4H5;
}
// * * * * * * * * * * * * * * * * * * * * * * * * * * * * * * * * * * * * * //

dimensions      [0 0 0 0 0 0 0];

internalField   nonuniform List<scalar> 
250
(
1.28512e-07
1.30362e-07
1.28237e-07
1.28201e-07
1.30832e-07
1.30826e-07
1.28251e-07
1.28961e-07
1.31809e-07
1.80809e-07
2.4327e-08
3.43032e-08
3.46139e-08
3.42523e-08
3.42583e-08
3.47857e-08
3.48048e-08
3.43634e-08
3.44514e-08
3.50359e-08
4.77765e-08
4.48494e-07
9.56287e-09
9.61922e-09
9.55249e-09
9.55931e-09
9.64268e-09
9.6565e-09
9.56934e-09
9.62923e-09
9.72972e-09
1.42684e-08
4.77226e-07
2.99024e-09
3.00096e-09
2.98822e-09
2.99085e-09
3.00323e-09
3.00917e-09
2.98998e-09
3.02447e-09
3.03305e-09
5.11081e-09
2.78563e-07
1.1503e-09
1.15263e-09
1.15009e-09
1.15043e-09
1.1529e-09
1.15422e-09
1.151e-09
1.16946e-09
1.17181e-09
2.12884e-09
1.40964e-07
5.73195e-10
5.73914e-10
5.73448e-10
5.72884e-10
5.75147e-10
5.7471e-10
5.76014e-10
5.85338e-10
5.78591e-10
1.02442e-09
6.90976e-08
3.62842e-10
3.62496e-10
3.63395e-10
3.62478e-10
3.57489e-10
3.6029e-10
3.64049e-10
3.69619e-10
3.69788e-10
5.71134e-10
3.23622e-08
2.62495e-10
2.62106e-10
2.63117e-10
2.6216e-10
2.65949e-10
2.62733e-10
2.64898e-10
2.672e-10
2.8015e-10
3.59506e-10
1.38019e-08
2.17388e-10
2.17133e-10
2.17997e-10
2.16973e-10
2.19539e-10
2.1731e-10
2.20393e-10
2.21134e-10
2.3029e-10
2.68603e-10
5.09909e-09
1.88435e-10
1.88285e-10
1.89015e-10
1.87911e-10
1.90013e-10
1.88029e-10
1.91901e-10
1.91558e-10
2.04401e-10
2.24337e-10
1.70632e-09
1.68969e-10
1.69588e-10
1.68461e-10
1.70307e-10
1.68506e-10
1.72744e-10
1.71477e-10
1.86683e-10
2.00221e-10
5.98267e-10
1.54925e-10
1.55482e-10
1.54299e-10
1.56009e-10
1.54392e-10
1.58814e-10
1.57053e-10
1.72962e-10
1.86447e-10
2.73478e-10
1.43854e-10
1.44374e-10
1.43085e-10
1.44652e-10
1.4332e-10
1.47816e-10
1.45791e-10
1.62142e-10
1.75878e-10
1.9583e-10
1.34591e-10
1.35083e-10
1.33611e-10
1.36369e-10
1.34093e-10
1.38591e-10
1.36428e-10
1.5299e-10
1.66076e-10
1.8653e-10
1.26513e-10
1.26983e-10
1.26338e-10
1.28233e-10
1.26058e-10
1.30521e-10
1.28293e-10
1.44887e-10
1.57735e-10
1.94756e-10
1.19272e-10
1.1972e-10
1.19009e-10
1.2094e-10
1.1886e-10
1.23262e-10
1.21013e-10
1.37493e-10
1.50622e-10
2.05267e-10
1.12662e-10
1.13086e-10
1.12281e-10
1.14284e-10
1.1229e-10
1.1661e-10
1.14366e-10
1.30603e-10
1.43823e-10
2.1323e-10
1.06551e-10
1.06949e-10
1.05994e-10
1.08134e-10
1.06217e-10
1.10436e-10
1.08213e-10
1.24082e-10
1.37291e-10
2.17323e-10
1.00846e-10
1.01213e-10
1.00789e-10
1.02402e-10
1.00544e-10
1.04651e-10
1.02463e-10
1.17836e-10
1.3097e-10
2.17609e-10
9.54703e-11
9.57905e-11
9.56925e-11
9.70137e-11
9.51963e-11
9.91838e-11
9.70852e-11
1.12679e-10
1.24554e-10
2.14726e-10
9.03572e-11
9.1308e-11
9.05168e-11
9.19025e-11
9.01055e-11
9.39751e-11
9.2081e-11
1.07439e-10
1.18495e-10
2.09477e-10
8.60704e-11
8.65045e-11
8.61649e-11
8.70144e-11
8.58052e-11
8.89652e-11
8.7803e-11
1.02094e-10
1.12578e-10
2.02625e-10
8.20144e-11
8.24814e-11
8.20426e-11
8.29393e-11
8.17e-11
8.48003e-11
8.36545e-11
9.6825e-11
1.06529e-10
1.94778e-10
7.77503e-11
7.82141e-11
7.77311e-11
7.86475e-11
7.74338e-11
8.04963e-11
7.9276e-11
9.15638e-11
1.00341e-10
1.86331e-10
)
;

boundaryField
{
    fuel
    {
        type            fixedValue;
        value           uniform 0;
    }
    wall
    {
        type            zeroGradient;
    }
    outlet
    {
        type            zeroGradient;
    }
    frontAndBack
    {
        type            empty;
    }
    procBoundary3to0
    {
        type            processor;
        value           nonuniform List<scalar> 10(7.40729e-11 7.45238e-11 7.40138e-11 7.49216e-11 7.37518e-11 7.6682e-11 7.54916e-11 8.70679e-11 9.43789e-11 1.77133e-10);
    }
    procBoundary3to2
    {
        type            processor;
        value           nonuniform List<scalar> 
25
(
1.28416e-07
3.43995e-08
9.58188e-09
2.99446e-09
1.15133e-09
5.73457e-10
3.62894e-10
2.62485e-10
2.17364e-10
1.88425e-10
1.69077e-10
1.69077e-10
1.55027e-10
1.43964e-10
1.34715e-10
1.26657e-10
1.19437e-10
1.12848e-10
1.06755e-10
1.01061e-10
9.5684e-11
9.05441e-11
8.62185e-11
8.20932e-11
7.81438e-11
)
;
    }
}


// ************************************************************************* //
