/*--------------------------------*- C++ -*----------------------------------*\
| =========                 |                                                 |
| \\      /  F ield         | OpenFOAM: The Open Source CFD Toolbox           |
|  \\    /   O peration     | Version:  dev                                   |
|   \\  /    A nd           | Web:      www.OpenFOAM.org                      |
|    \\/     M anipulation  |                                                 |
\*---------------------------------------------------------------------------*/
FoamFile
{
    version     2.0;
    format      ascii;
    class       volScalarField;
    location    "0.115";
    object      n-C4H3;
}
// * * * * * * * * * * * * * * * * * * * * * * * * * * * * * * * * * * * * * //

dimensions      [0 0 0 0 0 0 0];

internalField   nonuniform List<scalar> 
250
(
9.22124e-07
9.22109e-07
9.22033e-07
9.21961e-07
9.21907e-07
9.21953e-07
9.22062e-07
9.23256e-07
9.28102e-07
9.86909e-07
9.32035e-08
4.67132e-07
4.6717e-07
4.67085e-07
4.67158e-07
4.67223e-07
4.6738e-07
4.67422e-07
4.68175e-07
4.70696e-07
5.0257e-07
2.27815e-07
2.33163e-07
2.33209e-07
2.33145e-07
2.33223e-07
2.33116e-07
2.33269e-07
2.33284e-07
2.34235e-07
2.35555e-07
2.54034e-07
2.36186e-07
1.28797e-07
1.28832e-07
1.28804e-07
1.2882e-07
1.28778e-07
1.28836e-07
1.28943e-07
1.29824e-07
1.30818e-07
1.42166e-07
2.02053e-07
8.12927e-08
8.13259e-08
8.13148e-08
8.12704e-08
8.13282e-08
8.12729e-08
8.15366e-08
8.223e-08
8.34565e-08
9.02897e-08
1.66138e-07
5.79414e-08
5.79714e-08
5.79807e-08
5.78914e-08
5.80475e-08
5.79312e-08
5.83414e-08
5.88047e-08
5.96164e-08
6.43577e-08
1.3836e-07
4.55052e-08
4.54693e-08
4.55737e-08
4.54516e-08
4.51008e-08
4.52707e-08
4.58285e-08
4.61706e-08
4.73901e-08
5.0555e-08
1.14804e-07
3.7423e-08
3.73848e-08
3.75055e-08
3.73674e-08
3.77861e-08
3.74159e-08
3.78679e-08
3.80123e-08
4.03759e-08
4.20024e-08
9.19445e-08
3.28949e-08
3.28678e-08
3.29811e-08
3.28254e-08
3.31601e-08
3.28525e-08
3.34216e-08
3.34374e-08
3.54614e-08
3.71182e-08
6.94098e-08
2.94251e-08
2.94057e-08
2.95117e-08
2.9336e-08
2.96461e-08
2.93437e-08
3.00251e-08
2.99318e-08
3.24372e-08
3.37322e-08
4.9773e-08
2.67557e-08
2.68531e-08
2.66661e-08
2.69606e-08
2.66703e-08
2.74131e-08
2.7211e-08
3.00628e-08
3.11327e-08
3.58465e-08
2.46374e-08
2.47294e-08
2.4528e-08
2.48125e-08
2.45441e-08
2.53215e-08
2.50562e-08
2.80218e-08
2.93094e-08
2.83496e-08
2.28608e-08
2.29487e-08
2.27266e-08
2.29946e-08
2.27683e-08
2.35611e-08
2.32595e-08
2.62917e-08
2.76898e-08
2.6175e-08
2.13191e-08
2.14031e-08
2.11494e-08
2.16194e-08
2.1233e-08
2.20266e-08
2.17048e-08
2.47603e-08
2.60709e-08
2.6434e-08
1.99496e-08
2.003e-08
1.99165e-08
2.02423e-08
1.9871e-08
2.06567e-08
2.03254e-08
2.33685e-08
2.46442e-08
2.75748e-08
1.87142e-08
1.87903e-08
1.86673e-08
1.89983e-08
1.86433e-08
1.94144e-08
1.90807e-08
2.20817e-08
2.34147e-08
2.87951e-08
1.75879e-08
1.76592e-08
1.75224e-08
1.7863e-08
1.75244e-08
1.82757e-08
1.79443e-08
2.08775e-08
2.22384e-08
2.96495e-08
1.65533e-08
1.66195e-08
1.64598e-08
1.68196e-08
1.64967e-08
1.7224e-08
1.68981e-08
1.97396e-08
2.11137e-08
2.99121e-08
1.55971e-08
1.56575e-08
1.5587e-08
1.58564e-08
1.55467e-08
1.62469e-08
1.59298e-08
1.86563e-08
2.00364e-08
2.95322e-08
1.47081e-08
1.47599e-08
1.47439e-08
1.49616e-08
1.46631e-08
1.53343e-08
1.50353e-08
1.77669e-08
1.89559e-08
2.85932e-08
1.38758e-08
1.40265e-08
1.39021e-08
1.41255e-08
1.3835e-08
1.44772e-08
1.42145e-08
1.68741e-08
1.79534e-08
2.72519e-08
1.31873e-08
1.32566e-08
1.32036e-08
1.33397e-08
1.31451e-08
1.36666e-08
1.35227e-08
1.59771e-08
1.69931e-08
2.56809e-08
1.25479e-08
1.26213e-08
1.25539e-08
1.26939e-08
1.24988e-08
1.30017e-08
1.28642e-08
1.51072e-08
1.60345e-08
2.40275e-08
1.18924e-08
1.19639e-08
1.1891e-08
1.20302e-08
1.18435e-08
1.23299e-08
1.21856e-08
1.42541e-08
1.50773e-08
2.23942e-08
)
;

boundaryField
{
    fuel
    {
        type            fixedValue;
        value           uniform 0;
    }
    wall
    {
        type            zeroGradient;
    }
    outlet
    {
        type            zeroGradient;
    }
    frontAndBack
    {
        type            empty;
    }
    procBoundary3to0
    {
        type            processor;
        value           nonuniform List<scalar> 10(1.13366e-08 1.14048e-08 1.13289e-08 1.14638e-08 1.12876e-08 1.17449e-08 1.16083e-08 1.35336e-08 1.41777e-08 2.08239e-08);
    }
    procBoundary3to2
    {
        type            processor;
        value           nonuniform List<scalar> 
25
(
9.22124e-07
4.67415e-07
2.33252e-07
1.28838e-07
8.13117e-08
5.79487e-08
4.5506e-08
3.74204e-08
3.28908e-08
2.94213e-08
2.67726e-08
2.67726e-08
2.46538e-08
2.2879e-08
2.13401e-08
1.99741e-08
1.87424e-08
1.76197e-08
1.6588e-08
1.56336e-08
1.47442e-08
1.39077e-08
1.32134e-08
1.25635e-08
1.19542e-08
)
;
    }
}


// ************************************************************************* //
