/*--------------------------------*- C++ -*----------------------------------*\
| =========                 |                                                 |
| \\      /  F ield         | OpenFOAM: The Open Source CFD Toolbox           |
|  \\    /   O peration     | Version:  dev                                   |
|   \\  /    A nd           | Web:      www.OpenFOAM.org                      |
|    \\/     M anipulation  |                                                 |
\*---------------------------------------------------------------------------*/
FoamFile
{
    version     2.0;
    format      ascii;
    class       volScalarField;
    location    "0.115";
    object      n-C4H3;
}
// * * * * * * * * * * * * * * * * * * * * * * * * * * * * * * * * * * * * * //

dimensions      [0 0 0 0 0 0 0];

internalField   nonuniform List<scalar> 
250
(
8.40755e-07
8.40923e-07
8.40788e-07
8.40864e-07
8.40793e-07
8.40806e-07
8.4093e-07
8.42434e-07
8.54012e-07
9.41202e-07
2.61802e-08
4.49175e-07
4.49162e-07
4.49204e-07
4.49168e-07
4.49161e-07
4.49189e-07
4.49253e-07
4.50323e-07
4.57445e-07
5.12474e-07
5.06392e-08
2.31047e-07
2.3096e-07
2.31073e-07
2.31e-07
2.31004e-07
2.31043e-07
2.31083e-07
2.31881e-07
2.36621e-07
2.76829e-07
3.76244e-08
1.29341e-07
1.29193e-07
1.29363e-07
1.2929e-07
1.29234e-07
1.29332e-07
1.29362e-07
1.29971e-07
1.33455e-07
1.6683e-07
2.15006e-08
8.21365e-08
8.18435e-08
8.21528e-08
8.20924e-08
8.18605e-08
8.21255e-08
8.21406e-08
8.24881e-08
8.5332e-08
1.14752e-07
1.4144e-08
5.81456e-08
5.83352e-08
5.81617e-08
5.80858e-08
5.83189e-08
5.81395e-08
5.82151e-08
5.89656e-08
6.13911e-08
8.79982e-08
1.26932e-08
4.55424e-08
4.56343e-08
4.55602e-08
4.54884e-08
4.55921e-08
4.55417e-08
4.56174e-08
4.63091e-08
4.84805e-08
7.05365e-08
1.62607e-08
3.81048e-08
3.81488e-08
3.81341e-08
3.80534e-08
3.80961e-08
3.8118e-08
3.82062e-08
3.89527e-08
4.05948e-08
6.03785e-08
3.03754e-08
3.32397e-08
3.33514e-08
3.33112e-08
3.32809e-08
3.32202e-08
3.33009e-08
3.33493e-08
3.39441e-08
3.57719e-08
5.25276e-08
7.47023e-08
2.98882e-08
3.00326e-08
3.00139e-08
2.99733e-08
2.9885e-08
3.00067e-08
3.00596e-08
3.03253e-08
3.22127e-08
4.67017e-08
1.45867e-07
2.7482e-08
2.74727e-08
2.74129e-08
2.73127e-08
2.74689e-08
2.75475e-08
2.79507e-08
2.93655e-08
4.18693e-08
1.6641e-07
2.52706e-08
2.52654e-08
2.5191e-08
2.52849e-08
2.5271e-08
2.53496e-08
2.583e-08
2.7352e-08
3.77685e-08
1.54313e-07
2.34154e-08
2.34105e-08
2.33133e-08
2.34643e-08
2.34263e-08
2.35035e-08
2.40265e-08
2.5561e-08
3.42721e-08
1.37147e-07
2.18025e-08
2.17963e-08
2.16627e-08
2.18642e-08
2.18217e-08
2.18979e-08
2.24485e-08
2.38612e-08
3.12957e-08
1.20899e-07
2.03674e-08
2.03595e-08
2.03732e-08
2.04298e-08
2.03935e-08
2.04692e-08
2.10343e-08
2.25233e-08
2.87816e-08
1.04737e-07
1.9072e-08
1.90613e-08
1.90638e-08
1.91299e-08
1.91039e-08
1.91794e-08
1.97461e-08
2.12443e-08
2.64145e-08
8.85695e-08
1.78918e-08
1.78778e-08
1.78665e-08
1.79444e-08
1.79289e-08
1.80042e-08
1.85588e-08
1.99873e-08
2.4301e-08
7.30219e-08
1.68099e-08
1.67928e-08
1.67621e-08
1.68583e-08
1.68519e-08
1.69267e-08
1.74544e-08
1.8826e-08
2.24905e-08
5.88985e-08
1.58135e-08
1.57949e-08
1.57339e-08
1.58597e-08
1.58604e-08
1.59342e-08
1.64174e-08
1.77489e-08
2.10771e-08
4.68604e-08
1.48915e-08
1.48758e-08
1.48902e-08
1.49389e-08
1.49436e-08
1.50166e-08
1.55689e-08
1.6748e-08
1.97383e-08
3.71954e-08
1.40336e-08
1.40275e-08
1.40909e-08
1.40843e-08
1.40916e-08
1.41636e-08
1.47286e-08
1.5814e-08
1.85722e-08
2.9818e-08
1.32294e-08
1.32401e-08
1.32817e-08
1.32848e-08
1.32947e-08
1.3366e-08
1.38929e-08
1.49404e-08
1.75277e-08
2.43934e-08
1.25635e-08
1.25918e-08
1.2616e-08
1.26252e-08
1.26371e-08
1.27073e-08
1.31993e-08
1.41238e-08
1.64778e-08
2.05001e-08
1.19475e-08
1.19423e-08
1.19528e-08
1.19682e-08
1.19819e-08
1.20535e-08
1.25509e-08
1.33566e-08
1.55817e-08
1.77358e-08
)
;

boundaryField
{
    fuel
    {
        type            fixedValue;
        value           uniform 0;
    }
    wall
    {
        type            zeroGradient;
    }
    outlet
    {
        type            zeroGradient;
    }
    frontAndBack
    {
        type            empty;
    }
    procBoundary3to0
    {
        type            processor;
        value           nonuniform List<scalar> 10(1.13767e-08 1.13772e-08 1.13794e-08 1.13975e-08 1.14125e-08 1.14834e-08 1.19488e-08 1.26292e-08 1.47366e-08 1.57833e-08);
    }
    procBoundary3to2
    {
        type            processor;
        value           nonuniform List<scalar> 
25
(
8.40746e-07
4.49128e-07
2.30988e-07
1.2929e-07
8.20992e-08
5.81562e-08
4.55718e-08
3.81514e-08
3.33483e-08
3.00509e-08
2.73662e-08
2.73662e-08
2.5191e-08
2.33579e-08
2.17571e-08
2.03279e-08
1.9035e-08
1.78561e-08
1.67755e-08
1.57811e-08
1.48626e-08
1.40102e-08
1.32141e-08
1.25577e-08
1.18995e-08
)
;
    }
}


// ************************************************************************* //
