/*--------------------------------*- C++ -*----------------------------------*\
| =========                 |                                                 |
| \\      /  F ield         | OpenFOAM: The Open Source CFD Toolbox           |
|  \\    /   O peration     | Version:  dev                                   |
|   \\  /    A nd           | Web:      www.OpenFOAM.org                      |
|    \\/     M anipulation  |                                                 |
\*---------------------------------------------------------------------------*/
FoamFile
{
    version     2.0;
    format      ascii;
    class       volScalarField;
    location    "0.01";
    object      A1;
}
// * * * * * * * * * * * * * * * * * * * * * * * * * * * * * * * * * * * * * //

dimensions      [0 0 0 0 0 0 0];

internalField   nonuniform List<scalar> 
250
(
3.43608e-07
7.2174e-07
4.55226e-06
4.69493e-05
0.000168125
0.000266947
0.000287346
0.000223163
0.000142807
0.000117565
2.74587e-07
6.18962e-07
4.45929e-06
4.81063e-05
0.000167806
0.000258096
0.000269842
0.00020637
0.000134141
0.000112135
0.000105081
0.000123465
0.000189378
0.000252523
0.000247656
0.000165113
4.81807e-05
4.30254e-06
5.30572e-07
2.21364e-07
2.21186e-07
5.30549e-07
4.29917e-06
4.80902e-05
0.000165087
0.000247959
0.000253398
0.000191244
0.000125488
0.00010649
9.93728e-05
0.000115205
0.000175673
0.000237248
0.000236664
0.000160207
4.69462e-05
4.06556e-06
4.57655e-07
1.80531e-07
1.80289e-07
4.57844e-07
4.06509e-06
4.68838e-05
0.000160193
0.000236952
0.000238079
0.000177417
0.00011705
0.000100683
9.3567e-05
0.000107525
0.000162894
0.000223054
0.000225105
0.000153396
4.45858e-05
3.75793e-06
4.05763e-07
1.5551e-07
1.55318e-07
4.06092e-07
3.76139e-06
4.45459e-05
0.000153378
0.000225357
0.000223814
0.000164492
0.000109191
9.47752e-05
8.77793e-05
0.000100789
0.000150608
0.000209746
0.000213131
0.000144937
4.13341e-05
3.36794e-06
3.65828e-07
1.40859e-07
1.40678e-07
3.66176e-07
3.37355e-06
4.13189e-05
0.00014491
0.000213324
0.000210412
0.000152046
0.000102267
8.88802e-05
8.21086e-05
9.46408e-05
0.000139033
0.000196993
0.000200774
0.000135071
3.741e-05
3.00444e-06
3.44558e-07
1.40069e-07
1.3984e-07
3.44315e-07
3.00699e-06
3.74194e-05
0.000135051
0.000200886
0.000197538
0.000140305
9.59237e-05
8.30957e-05
7.66222e-05
8.8812e-05
0.000128564
0.000184283
0.000187979
0.000124018
3.26933e-05
2.68331e-06
3.50662e-07
1.5772e-07
1.5736e-07
3.49843e-07
2.68444e-06
3.27061e-05
0.00012403
0.000187989
0.000184678
0.000129663
8.99003e-05
7.74916e-05
7.13595e-05
8.31298e-05
0.000119286
0.000171653
0.000174623
0.000112074
2.83224e-05
2.45479e-06
3.94597e-07
2.05897e-07
2.05277e-07
3.92846e-07
2.45345e-06
2.83547e-05
0.000112094
0.000174539
0.000171924
0.000120201
8.40316e-05
7.21122e-05
6.62861e-05
7.7528e-05
0.000109274
0.000156232
0.00016045
9.97906e-05
2.44257e-05
2.34802e-06
4.9836e-07
3.06742e-07
3.05657e-07
4.95031e-07
2.34222e-06
2.44537e-05
9.98344e-05
0.000160397
0.000156141
0.000109918
7.82596e-05
6.69178e-05
6.15185e-05
7.18184e-05
0.000100937
0.000142519
0.000145053
8.76336e-05
2.10395e-05
2.38979e-06
6.96641e-07
4.96371e-07
4.94531e-07
6.9084e-07
2.37827e-06
2.10615e-05
8.77141e-05
0.000144601
0.000142291
0.000101382
7.23904e-05
6.20464e-05
5.7016e-05
6.64292e-05
9.27087e-05
0.000128784
0.000129641
7.59687e-05
1.82252e-05
2.60399e-06
1.03814e-06
8.26781e-07
8.23819e-07
1.02877e-06
2.58489e-06
1.82367e-05
7.60609e-05
0.000129239
0.000128433
9.29618e-05
6.6855e-05
5.74468e-05
5.27764e-05
6.10862e-05
8.45112e-05
0.000115065
0.000114319
6.5093e-05
1.59565e-05
3.03227e-06
1.58209e-06
1.36217e-06
1.3577e-06
1.56801e-06
3.00371e-06
1.59611e-05
6.51654e-05
0.000113907
0.00011461
8.46116e-05
6.13551e-05
5.31141e-05
2.16067e-06
2.36791e-06
3.67692e-06
1.41105e-05
5.52862e-05
9.89412e-05
0.000101
7.63531e-05
5.59907e-05
4.9053e-05
)
;

boundaryField
{
    fuel
    {
        type            fixedValue;
        value           nonuniform 0();
    }
    wall
    {
        type            zeroGradient;
    }
    outlet
    {
        type            zeroGradient;
    }
    frontAndBack
    {
        type            empty;
    }
    procBoundary0to1
    {
        type            processor;
        value           nonuniform List<scalar> 
21
(
4.8801e-05
5.58455e-05
7.63842e-05
0.000101539
9.93944e-05
5.52536e-05
1.41245e-05
3.71658e-06
2.38755e-06
2.1669e-06
2.1669e-06
3.27889e-06
3.4716e-06
4.63717e-06
1.30123e-05
4.66279e-05
8.47574e-05
8.78794e-05
6.82024e-05
5.0924e-05
4.52896e-05
)
;
    }
    procBoundary0to2
    {
        type            processor;
        value           nonuniform List<scalar> 
12
(
3.43633e-07
0.000110623
0.000131941
0.000204389
0.000268942
0.000257795
0.000167857
4.82232e-05
4.4654e-06
6.19204e-07
2.74271e-07
2.74271e-07
)
;
    }
    procBoundary0to3
    {
        type            processor;
        value           nonuniform List<scalar> 10(4.35675e-07 8.43832e-07 4.59823e-06 4.47444e-05 0.000165883 0.000273979 0.000305642 0.000241956 0.00015172 0.000122579);
    }
}


// ************************************************************************* //
