/*--------------------------------*- C++ -*----------------------------------*\
| =========                 |                                                 |
| \\      /  F ield         | OpenFOAM: The Open Source CFD Toolbox           |
|  \\    /   O peration     | Version:  dev                                   |
|   \\  /    A nd           | Web:      www.OpenFOAM.org                      |
|    \\/     M anipulation  |                                                 |
\*---------------------------------------------------------------------------*/
FoamFile
{
    version     2.0;
    format      ascii;
    class       volScalarField;
    location    "0.01";
    object      A2;
}
// * * * * * * * * * * * * * * * * * * * * * * * * * * * * * * * * * * * * * //

dimensions      [0 0 0 0 0 0 0];

internalField   nonuniform List<scalar> 
250
(
2.69703e-10
1.74541e-09
9.07389e-08
1.54128e-06
3.18495e-06
2.06788e-06
3.82299e-07
2.81034e-07
2.80922e-07
2.69911e-07
2.40052e-10
1.89406e-09
1.03234e-07
1.5919e-06
3.0421e-06
1.99847e-06
3.89005e-07
2.96483e-07
2.86767e-07
2.8128e-07
2.93303e-07
2.9413e-07
3.1735e-07
3.72968e-07
1.82915e-06
2.96644e-06
1.72195e-06
1.29651e-07
2.38327e-09
2.25245e-10
2.1609e-10
2.02942e-09
1.13385e-07
1.61276e-06
2.90189e-06
1.93843e-06
3.97726e-07
3.14022e-07
2.9204e-07
2.89967e-07
2.99139e-07
2.99245e-07
3.36989e-07
3.86987e-07
1.78027e-06
2.82429e-06
1.70329e-06
1.3657e-07
2.5127e-09
2.1029e-10
2.00385e-10
2.12361e-09
1.19714e-07
1.60518e-06
2.76521e-06
1.88446e-06
4.10797e-07
3.34198e-07
2.97531e-07
2.95853e-07
3.02175e-07
3.04981e-07
3.59259e-07
4.13758e-07
1.73607e-06
2.68384e-06
1.66026e-06
1.38463e-07
2.57207e-09
2.00815e-10
1.90402e-10
2.15837e-09
1.21432e-07
1.57142e-06
2.63133e-06
1.83302e-06
4.3553e-07
3.56976e-07
3.03596e-07
2.99035e-07
3.02742e-07
3.11369e-07
3.83927e-07
4.53013e-07
1.69407e-06
2.55025e-06
1.59571e-06
1.35264e-07
2.55445e-09
1.98213e-10
1.87242e-10
2.12926e-09
1.18452e-07
1.5142e-06
2.50034e-06
1.78333e-06
4.7164e-07
3.81976e-07
3.1026e-07
2.99817e-07
3.01253e-07
3.18167e-07
4.10534e-07
5.0242e-07
1.65358e-06
2.42115e-06
1.51253e-06
1.27152e-07
2.465e-09
2.04813e-10
1.93664e-10
2.04262e-09
1.1107e-07
1.43655e-06
2.37213e-06
1.73466e-06
5.1715e-07
4.08646e-07
3.17281e-07
2.98591e-07
2.98094e-07
3.24905e-07
4.38104e-07
5.58898e-07
1.61387e-06
2.29462e-06
1.4139e-06
1.14871e-07
2.32979e-09
2.27693e-10
2.16543e-10
1.92707e-09
9.98236e-08
1.34199e-06
2.24599e-06
1.68617e-06
5.69381e-07
4.36062e-07
3.24201e-07
2.95728e-07
2.93542e-07
3.30939e-07
4.65149e-07
6.18728e-07
1.57402e-06
2.1686e-06
1.30412e-06
1.00426e-07
2.21563e-09
2.84266e-10
2.7298e-10
1.85166e-09
8.66968e-08
1.23563e-06
2.11974e-06
1.63707e-06
6.25035e-07
4.62863e-07
3.30396e-07
2.91494e-07
2.87721e-07
3.35535e-07
4.8981e-07
6.77744e-07
1.53303e-06
2.04153e-06
1.1879e-06
8.55634e-08
2.23014e-09
4.15528e-10
4.02941e-10
1.92314e-09
7.32983e-08
1.11877e-06
1.99011e-06
1.58652e-06
6.80352e-07
4.87275e-07
3.35159e-07
2.86004e-07
2.80581e-07
3.3799e-07
5.10067e-07
7.31573e-07
1.48964e-06
1.91228e-06
1.05324e-06
7.22527e-08
2.50736e-09
7.1126e-10
6.95118e-10
2.23241e-09
6.27569e-08
9.8728e-07
1.86088e-06
1.5335e-06
7.31279e-07
5.07412e-07
3.37794e-07
2.79207e-07
2.71829e-07
3.37811e-07
5.23966e-07
7.75911e-07
1.44227e-06
1.78121e-06
9.26515e-07
6.29517e-08
3.22137e-09
1.35137e-09
1.32827e-09
2.96012e-09
5.48568e-08
8.63186e-07
1.70242e-06
1.47641e-06
7.73658e-07
5.21351e-07
3.37748e-07
2.7085e-07
2.60801e-07
3.34872e-07
5.29843e-07
8.06829e-07
1.38863e-06
1.61236e-06
7.9978e-07
5.55949e-08
4.65205e-09
2.65139e-09
2.61693e-09
4.39504e-09
4.88736e-08
7.41288e-07
1.55589e-06
1.41374e-06
8.03483e-07
5.27377e-07
3.34688e-07
2.60461e-07
5.02387e-09
6.93817e-09
4.54651e-08
6.25656e-07
1.40105e-06
1.34334e-06
8.17228e-07
5.24204e-07
3.26855e-07
2.49446e-07
)
;

boundaryField
{
    fuel
    {
        type            fixedValue;
        value           nonuniform 0();
    }
    wall
    {
        type            zeroGradient;
    }
    outlet
    {
        type            zeroGradient;
    }
    frontAndBack
    {
        type            empty;
    }
    procBoundary0to1
    {
        type            processor;
        value           nonuniform List<scalar> 
21
(
2.50016e-07
3.264e-07
5.26409e-07
8.2109e-07
1.32732e-06
1.46148e-06
6.78456e-07
5.09789e-08
7.19308e-09
5.07464e-09
5.07464e-09
9.08451e-09
1.10313e-08
4.41391e-08
5.19768e-07
1.23985e-06
1.26308e-06
8.12268e-07
5.11092e-07
3.14428e-07
2.37577e-07
)
;
    }
    procBoundary0to2
    {
        type            processor;
        value           nonuniform List<scalar> 
12
(
2.77452e-10
2.84541e-07
2.89277e-07
3.00269e-07
3.64094e-07
1.87908e-06
3.11625e-06
1.71361e-06
1.18518e-07
2.20552e-09
2.48291e-10
2.48291e-10
)
;
    }
    procBoundary0to3
    {
        type            processor;
        value           nonuniform List<scalar> 10(3.087e-10 1.61609e-09 7.80155e-08 1.46149e-06 3.32801e-06 2.14429e-06 3.76742e-07 2.66978e-07 2.73718e-07 2.56153e-07);
    }
}


// ************************************************************************* //
