/*--------------------------------*- C++ -*----------------------------------*\
| =========                 |                                                 |
| \\      /  F ield         | OpenFOAM: The Open Source CFD Toolbox           |
|  \\    /   O peration     | Version:  dev                                   |
|   \\  /    A nd           | Web:      www.OpenFOAM.org                      |
|    \\/     M anipulation  |                                                 |
\*---------------------------------------------------------------------------*/
FoamFile
{
    version     2.0;
    format      ascii;
    class       volScalarField;
    location    "0.01";
    object      A3;
}
// * * * * * * * * * * * * * * * * * * * * * * * * * * * * * * * * * * * * * //

dimensions      [0 0 0 0 0 0 0];

internalField   nonuniform List<scalar> 
250
(
5.97817e-10
1.08011e-09
6.86446e-09
6.26575e-08
2.19547e-07
3.62596e-07
3.69372e-07
1.904e-07
5.96907e-08
5.99472e-08
5.14976e-10
9.90283e-10
6.90265e-09
6.28659e-08
2.10035e-07
3.29427e-07
3.21244e-07
1.61108e-07
5.79655e-08
6.02089e-08
5.92631e-08
5.61525e-08
1.37618e-07
2.81623e-07
2.98989e-07
1.98482e-07
6.16942e-08
6.81767e-09
9.13409e-10
4.50455e-10
4.49781e-10
9.10069e-10
6.79282e-09
6.15868e-08
1.98289e-07
2.97765e-07
2.80136e-07
1.37948e-07
5.67026e-08
5.97504e-08
5.81827e-08
5.51529e-08
1.1923e-07
2.46682e-07
2.69404e-07
1.85168e-07
5.90107e-08
6.55078e-09
8.44908e-10
4.02401e-10
4.01615e-10
8.42031e-10
6.53207e-09
5.89405e-08
1.84994e-07
2.6825e-07
2.45302e-07
1.19526e-07
5.56698e-08
5.86671e-08
5.66298e-08
5.42777e-08
1.04414e-07
2.1713e-07
2.42266e-07
1.70901e-07
5.51401e-08
6.14634e-09
7.96904e-10
3.78308e-10
3.77531e-10
7.94295e-10
6.13523e-09
5.50969e-08
1.70738e-07
2.41186e-07
2.15846e-07
1.04679e-07
5.4771e-08
5.7105e-08
5.4741e-08
5.35539e-08
9.22404e-08
1.92034e-07
2.17617e-07
1.56138e-07
5.04517e-08
5.59472e-09
7.6572e-10
3.76494e-10
3.75634e-10
7.6311e-10
5.58897e-09
5.04391e-08
1.55986e-07
2.1661e-07
1.90835e-07
9.24817e-08
5.40172e-08
5.52002e-08
5.26155e-08
5.2582e-08
8.24908e-08
1.70438e-07
1.95302e-07
1.41187e-07
4.52116e-08
5.05839e-09
7.64726e-10
4.03185e-10
4.02128e-10
7.6161e-10
5.0499e-09
4.52298e-08
1.4107e-07
1.9436e-07
1.69314e-07
8.27131e-08
5.30072e-08
5.30521e-08
5.03253e-08
5.12339e-08
7.51622e-08
1.51337e-07
1.75023e-07
1.26223e-07
3.9206e-08
4.56291e-09
8.06214e-10
4.68433e-10
4.67022e-10
8.02074e-10
4.55443e-09
3.92287e-08
1.26169e-07
1.74134e-07
1.50275e-07
7.53616e-08
5.16153e-08
5.07334e-08
4.79241e-08
4.9518e-08
6.96995e-08
1.3464e-07
1.56383e-07
1.11408e-07
3.37747e-08
4.16871e-09
9.05496e-10
5.87772e-10
5.85807e-10
8.9975e-10
4.15883e-09
3.38228e-08
1.11384e-07
1.55558e-07
1.33685e-07
6.98543e-08
4.98518e-08
4.82997e-08
4.54267e-08
4.7495e-08
6.45154e-08
1.17036e-07
1.38876e-07
9.71057e-08
2.89489e-08
3.91077e-09
1.08311e-09
7.82865e-10
7.80102e-10
1.07507e-09
3.89695e-09
2.89934e-08
9.71271e-08
1.38248e-07
1.15987e-07
6.45768e-08
4.77802e-08
4.57626e-08
4.29195e-08
4.51612e-08
6.04537e-08
1.03223e-07
1.21792e-07
8.36389e-08
2.47331e-08
3.82685e-09
1.3645e-09
1.08106e-09
1.07722e-09
1.35341e-09
3.80786e-09
2.47722e-08
8.37178e-08
1.20886e-07
1.02281e-07
6.04488e-08
4.53951e-08
4.32182e-08
4.04074e-08
4.27385e-08
5.64704e-08
9.09031e-08
1.06105e-07
7.1223e-08
2.11721e-08
3.91038e-09
1.77781e-09
1.51292e-09
1.50772e-09
1.76292e-09
3.8847e-09
2.12007e-08
7.13282e-08
1.0539e-07
9.00636e-08
5.64011e-08
4.29194e-08
4.06669e-08
3.79134e-08
4.01507e-08
5.24001e-08
7.97571e-08
9.15817e-08
6.00073e-08
1.82057e-08
4.17901e-09
2.3499e-09
2.10738e-09
2.10057e-09
2.33059e-09
4.14545e-09
1.82292e-08
6.01e-08
9.09722e-08
7.90065e-08
5.22849e-08
4.02692e-08
3.81312e-08
2.87651e-09
3.07645e-09
4.60377e-09
1.56576e-08
5.01635e-08
7.76531e-08
6.89141e-08
4.80648e-08
3.75215e-08
3.56358e-08
)
;

boundaryField
{
    fuel
    {
        type            fixedValue;
        value           nonuniform 0();
    }
    wall
    {
        type            zeroGradient;
    }
    outlet
    {
        type            zeroGradient;
    }
    frontAndBack
    {
        type            empty;
    }
    procBoundary0to1
    {
        type            processor;
        value           nonuniform List<scalar> 
21
(
3.54596e-08
3.74514e-08
4.82191e-08
6.95894e-08
7.82092e-08
5.01075e-08
1.56528e-08
4.6461e-09
3.10044e-09
2.88496e-09
2.88496e-09
3.84139e-09
4.00744e-09
5.26606e-09
1.39349e-08
4.16192e-08
6.55625e-08
5.97021e-08
4.37555e-08
3.47824e-08
3.3214e-08
)
;
    }
    procBoundary0to2
    {
        type            processor;
        value           nonuniform List<scalar> 
12
(
5.98246e-10
5.97251e-08
5.73668e-08
1.60719e-07
3.22835e-07
3.30711e-07
2.10256e-07
6.30108e-08
6.93319e-09
9.94105e-10
5.15024e-10
5.15024e-10
)
;
    }
    procBoundary0to3
    {
        type            processor;
        value           nonuniform List<scalar> 10(7.04413e-10 1.18431e-09 6.70169e-09 6.09684e-08 2.26103e-07 3.96248e-07 4.24906e-07 2.27407e-07 6.22804e-08 5.89734e-08);
    }
}


// ************************************************************************* //
