/*--------------------------------*- C++ -*----------------------------------*\
| =========                 |                                                 |
| \\      /  F ield         | OpenFOAM: The Open Source CFD Toolbox           |
|  \\    /   O peration     | Version:  dev                                   |
|   \\  /    A nd           | Web:      www.OpenFOAM.org                      |
|    \\/     M anipulation  |                                                 |
\*---------------------------------------------------------------------------*/
FoamFile
{
    version     2.0;
    format      ascii;
    class       volScalarField;
    location    "0.01";
    object      C2H3O;
}
// * * * * * * * * * * * * * * * * * * * * * * * * * * * * * * * * * * * * * //

dimensions      [0 0 0 0 0 0 0];

internalField   nonuniform List<scalar> 
250
(
1.95217e-10
2.18564e-10
2.56745e-10
2.66082e-10
5.83032e-10
4.50718e-09
6.67207e-08
2.28327e-06
6.06997e-06
8.51002e-07
1.80088e-10
2.04026e-10
2.43729e-10
2.55688e-10
6.1051e-10
4.826e-09
6.41013e-08
1.45498e-06
2.24287e-06
1.34434e-07
1.52265e-08
4.1829e-07
7.84502e-07
5.76375e-08
4.99296e-09
6.26469e-10
2.44629e-10
2.30168e-10
1.8907e-10
1.65537e-10
1.65613e-10
1.89453e-10
2.31062e-10
2.453e-10
6.18453e-10
4.89022e-09
5.59905e-08
7.63292e-07
4.34755e-07
1.60923e-08
3.5953e-09
7.34784e-08
3.57149e-07
4.6608e-08
4.82018e-09
6.12007e-10
2.33891e-10
2.17637e-10
1.75042e-10
1.51587e-10
1.51618e-10
1.75446e-10
2.1855e-10
2.34543e-10
6.03501e-10
4.7102e-09
4.50562e-08
3.46383e-07
7.62222e-08
3.73025e-09
1.6193e-09
1.74742e-08
1.50659e-07
3.52649e-08
4.447e-09
5.75043e-10
2.22462e-10
2.04918e-10
1.63202e-10
1.40334e-10
1.40376e-10
1.63641e-10
2.05901e-10
2.23105e-10
5.66626e-10
4.33647e-09
3.39591e-08
1.45944e-07
1.80174e-08
1.65996e-09
9.67741e-10
6.28517e-09
6.30194e-08
2.55037e-08
3.94143e-09
5.20491e-10
2.10581e-10
1.90741e-10
1.51456e-10
1.29673e-10
1.29724e-10
1.51929e-10
1.91744e-10
2.11259e-10
5.12748e-10
3.83585e-09
2.44964e-08
6.11053e-08
6.42632e-09
9.86225e-10
6.50065e-10
3.07538e-09
2.77718e-08
1.80519e-08
3.3681e-09
4.55809e-10
1.98324e-10
1.77896e-10
1.40344e-10
1.20851e-10
1.20906e-10
1.40635e-10
1.78765e-10
1.99066e-10
4.49224e-10
3.27144e-09
1.73174e-08
2.6978e-08
3.1178e-09
6.59701e-10
4.69034e-10
1.80231e-09
1.33164e-08
1.27376e-08
2.78152e-09
3.89096e-10
1.84901e-10
1.65409e-10
1.30897e-10
1.13058e-10
1.13116e-10
1.31174e-10
1.66275e-10
1.85669e-10
3.83917e-10
2.69662e-09
1.22149e-08
1.29532e-08
1.81408e-09
4.74254e-10
3.56434e-10
1.17396e-09
7.07581e-09
9.03553e-09
2.22887e-09
3.27611e-10
1.7254e-10
1.52624e-10
1.22133e-10
1.06279e-10
1.06335e-10
1.22421e-10
1.53482e-10
1.73393e-10
3.2373e-10
2.15808e-09
8.66743e-09
6.88975e-09
1.17517e-09
3.5927e-10
2.81271e-10
8.12604e-10
3.8244e-09
6.04596e-09
1.73932e-09
2.77646e-10
1.60799e-10
1.39854e-10
1.14172e-10
1.00461e-10
1.00515e-10
1.14453e-10
1.40662e-10
1.61666e-10
2.749e-10
1.68512e-09
5.77335e-09
3.71723e-09
8.10242e-10
2.82688e-10
2.29894e-10
5.80292e-10
2.33674e-09
4.11609e-09
1.31056e-09
2.37217e-10
1.49459e-10
1.29153e-10
1.07099e-10
9.55557e-11
9.56053e-11
1.07359e-10
1.29901e-10
1.50327e-10
2.35411e-10
1.26206e-09
3.92635e-09
2.27155e-09
5.76914e-10
2.30593e-10
1.94437e-10
4.33704e-10
1.49055e-09
2.75166e-09
9.68903e-10
2.04532e-10
1.38674e-10
1.19447e-10
1.01001e-10
9.15468e-11
9.15907e-11
1.01233e-10
1.20122e-10
1.39515e-10
2.03433e-10
9.35001e-10
2.62298e-09
1.44861e-09
4.30269e-10
1.94741e-10
1.70704e-10
3.33769e-10
9.82788e-10
1.8115e-09
7.08263e-10
1.78187e-10
1.28486e-10
1.11014e-10
9.60048e-11
8.84775e-11
8.8515e-11
9.62074e-11
1.11607e-10
1.29309e-10
1.77556e-10
6.85179e-10
1.72757e-09
9.55783e-10
3.30373e-10
1.70755e-10
8.65062e-11
9.24743e-11
1.04697e-10
1.19204e-10
1.5687e-10
5.02468e-10
1.13248e-09
6.5362e-10
2.63125e-10
1.56435e-10
)
;

boundaryField
{
    fuel
    {
        type            fixedValue;
        value           nonuniform 0();
    }
    wall
    {
        type            zeroGradient;
    }
    outlet
    {
        type            zeroGradient;
    }
    frontAndBack
    {
        type            empty;
    }
    procBoundary0to1
    {
        type            processor;
        value           nonuniform List<scalar> 
21
(
1.56685e-10
2.66539e-10
6.72729e-10
1.18816e-09
5.18768e-10
1.57276e-10
1.18463e-10
1.04188e-10
9.22975e-11
8.64687e-11
8.64687e-11
8.58024e-11
9.03162e-11
9.98068e-11
1.12058e-10
1.41037e-10
3.74782e-10
7.52205e-10
4.67351e-10
2.20787e-10
1.51341e-10
)
;
    }
    procBoundary0to2
    {
        type            processor;
        value           nonuniform List<scalar> 
12
(
1.95076e-10
1.25982e-07
2.1729e-06
1.48844e-06
6.56451e-08
4.91437e-09
6.17461e-10
2.54951e-10
2.42852e-10
2.0365e-10
1.79861e-10
1.79861e-10
)
;
    }
    procBoundary0to3
    {
        type            processor;
        value           nonuniform List<scalar> 10(2.11733e-10 2.33437e-10 2.70456e-10 2.76956e-10 5.42644e-10 3.97538e-09 6.25786e-08 2.8955e-06 9.53481e-06 2.11958e-06);
    }
}


// ************************************************************************* //
