/*--------------------------------*- C++ -*----------------------------------*\
| =========                 |                                                 |
| \\      /  F ield         | OpenFOAM: The Open Source CFD Toolbox           |
|  \\    /   O peration     | Version:  dev                                   |
|   \\  /    A nd           | Web:      www.OpenFOAM.org                      |
|    \\/     M anipulation  |                                                 |
\*---------------------------------------------------------------------------*/
FoamFile
{
    version     2.0;
    format      ascii;
    class       volScalarField;
    location    "0.01";
    object      C2O;
}
// * * * * * * * * * * * * * * * * * * * * * * * * * * * * * * * * * * * * * //

dimensions      [0 0 0 0 0 0 0];

internalField   nonuniform List<scalar> 
25
(
1.47113e-05
1.90087e-05
1.78145e-05
1.48148e-05
1.1444e-05
8.43529e-06
6.07252e-06
4.35201e-06
3.14984e-06
2.33037e-06
1.77379e-06
1.3909e-06
1.11988e-06
9.20048e-07
7.65744e-07
6.41416e-07
5.37983e-07
4.50317e-07
3.75573e-07
3.12117e-07
2.58872e-07
2.14455e-07
1.78571e-07
1.49684e-07
1.26611e-07
)
;

boundaryField
{
    wall
    {
        type            zeroGradient;
    }
    fuel
    {
        type            fixedValue;
        value           uniform 0;
    }
    outlet
    {
        type            inletOutlet;
        inletValue      nonuniform 0();
        value           nonuniform 0();
    }
    procBoundary0to1
    {
        type            processor;
        value           uniform 1.08217e-07;
    }
}


// ************************************************************************* //
