/*--------------------------------*- C++ -*----------------------------------*\
| =========                 |                                                 |
| \\      /  F ield         | OpenFOAM: The Open Source CFD Toolbox           |
|  \\    /   O peration     | Version:  dev                                   |
|   \\  /    A nd           | Web:      www.OpenFOAM.org                      |
|    \\/     M anipulation  |                                                 |
\*---------------------------------------------------------------------------*/
FoamFile
{
    version     2.0;
    format      ascii;
    class       volScalarField;
    location    "0.01";
    object      CH;
}
// * * * * * * * * * * * * * * * * * * * * * * * * * * * * * * * * * * * * * //

dimensions      [0 0 0 0 0 0 0];

internalField   nonuniform List<scalar> 
2014
(
9.31549e-10
1.25183e-09
1.97195e-09
3.00808e-09
4.35762e-09
5.86807e-09
7.39048e-09
8.76606e-09
9.89117e-09
1.07028e-08
1.12761e-08
1.16978e-08
1.20165e-08
1.2268e-08
1.24849e-08
1.26696e-08
1.28244e-08
1.29561e-08
1.30621e-08
1.3144e-08
1.32053e-08
1.32498e-08
1.32796e-08
1.32978e-08
1.33064e-08
1.33064e-08
1.32978e-08
1.32796e-08
1.32501e-08
1.32061e-08
1.3145e-08
1.30634e-08
1.2957e-08
1.28246e-08
1.26694e-08
1.24838e-08
1.22659e-08
1.20134e-08
1.16931e-08
1.127e-08
1.06946e-08
9.88102e-09
8.75362e-09
7.37694e-09
5.85489e-09
4.34508e-09
2.99915e-09
1.96575e-09
1.24791e-09
9.28824e-10
8.16334e-10
1.10706e-09
1.77687e-09
2.76575e-09
4.08049e-09
5.58961e-09
7.09961e-09
8.4894e-09
9.6338e-09
1.04625e-08
1.10588e-08
1.14811e-08
1.18068e-08
1.20644e-08
1.22852e-08
1.24773e-08
1.26302e-08
1.27659e-08
1.28746e-08
1.29583e-08
1.30211e-08
1.30666e-08
1.30971e-08
1.31157e-08
1.31245e-08
1.31244e-08
1.31156e-08
1.30971e-08
1.30668e-08
1.30219e-08
1.29594e-08
1.28759e-08
1.27669e-08
1.26306e-08
1.2477e-08
1.22842e-08
1.20624e-08
1.18036e-08
1.14762e-08
1.10527e-08
1.0454e-08
9.62333e-09
8.47672e-09
7.08599e-09
5.57555e-09
4.06847e-09
2.7572e-09
1.77102e-09
1.10346e-09
8.13844e-10
7.14611e-10
9.77756e-10
1.59836e-09
2.53961e-09
3.81694e-09
5.31126e-09
6.83101e-09
8.21887e-09
9.38186e-09
1.0227e-08
1.08394e-08
1.12689e-08
1.16015e-08
1.18655e-08
1.20895e-08
1.22852e-08
1.24466e-08
1.25794e-08
1.26906e-08
1.27763e-08
1.28407e-08
1.2887e-08
1.29183e-08
1.29373e-08
1.29463e-08
1.29462e-08
1.29372e-08
1.29182e-08
1.28873e-08
1.28415e-08
1.27774e-08
1.2692e-08
1.25805e-08
1.24476e-08
1.2285e-08
1.20886e-08
1.18634e-08
1.15983e-08
1.12639e-08
1.08328e-08
1.02184e-08
9.37109e-09
8.20596e-09
6.81734e-09
5.29716e-09
3.80559e-09
2.53144e-09
1.59286e-09
9.7448e-10
7.1234e-10
6.25307e-10
8.65637e-10
1.44161e-09
2.3299e-09
3.5796e-09
5.0419e-09
6.57193e-09
7.96837e-09
9.13544e-09
9.99607e-09
1.06213e-08
1.10603e-08
1.13993e-08
1.16762e-08
1.18961e-08
1.20955e-08
1.22647e-08
1.23949e-08
1.25082e-08
1.2596e-08
1.2662e-08
1.2709e-08
1.2741e-08
1.27606e-08
1.27697e-08
1.27697e-08
1.27605e-08
1.2741e-08
1.27093e-08
1.26628e-08
1.25971e-08
1.25097e-08
1.2396e-08
1.22659e-08
1.20954e-08
1.18952e-08
1.16741e-08
1.13961e-08
1.10553e-08
1.06146e-08
9.98722e-09
9.12439e-09
7.95526e-09
6.55824e-09
5.03164e-09
3.56795e-09
2.32211e-09
1.43643e-09
8.62655e-10
6.23244e-10
5.47122e-10
7.66368e-10
1.29752e-09
2.13582e-09
3.34547e-09
4.79697e-09
6.31383e-09
7.71586e-09
8.89411e-09
9.76908e-09
1.04064e-08
1.08541e-08
1.11991e-08
1.14813e-08
1.17039e-08
1.19067e-08
1.20792e-08
1.22181e-08
1.23262e-08
1.2416e-08
1.24836e-08
1.25313e-08
1.25639e-08
1.25842e-08
1.25935e-08
1.25934e-08
1.2584e-08
1.25639e-08
1.25316e-08
1.24845e-08
1.24173e-08
1.23278e-08
1.22193e-08
1.20804e-08
1.19068e-08
1.1703e-08
1.1479e-08
1.11958e-08
1.08493e-08
1.03995e-08
9.76002e-09
8.8828e-09
7.70297e-09
6.30024e-09
4.78725e-09
3.33223e-09
2.12848e-09
1.29277e-09
7.63665e-10
5.45256e-10
4.77862e-10
6.78214e-10
1.16512e-09
1.95638e-09
3.12447e-09
4.55304e-09
6.06005e-09
7.4664e-09
8.6574e-09
9.54543e-09
1.01939e-08
1.0658e-08
1.10001e-08
1.12866e-08
1.15192e-08
1.17179e-08
1.18935e-08
1.20377e-08
1.21506e-08
1.22355e-08
1.23047e-08
1.23528e-08
1.23858e-08
1.2407e-08
1.24165e-08
1.24164e-08
1.24068e-08
1.23857e-08
1.23531e-08
1.23056e-08
1.22368e-08
1.21522e-08
1.20391e-08
1.18948e-08
1.17181e-08
1.15185e-08
1.12843e-08
1.09968e-08
1.06533e-08
1.01869e-08
9.53619e-09
8.64585e-09
7.45341e-09
6.04647e-09
4.54215e-09
3.11934e-09
1.94972e-09
1.16069e-09
6.75699e-10
4.76181e-10
4.18365e-10
6.00834e-10
1.04983e-09
1.7906e-09
2.92526e-09
4.31832e-09
5.8149e-09
7.22287e-09
8.42489e-09
9.3246e-09
9.98326e-09
1.04557e-08
1.08015e-08
1.10918e-08
1.13316e-08
1.15282e-08
1.17069e-08
1.18532e-08
1.19719e-08
1.20605e-08
1.21242e-08
1.21726e-08
1.22053e-08
1.22282e-08
1.22379e-08
1.22378e-08
1.22279e-08
1.22052e-08
1.21729e-08
1.21251e-08
1.20619e-08
1.19736e-08
1.18548e-08
1.17082e-08
1.15286e-08
1.13309e-08
1.10896e-08
1.07982e-08
1.04507e-08
9.97604e-09
9.31519e-09
8.41312e-09
7.20984e-09
5.80137e-09
4.30701e-09
2.91826e-09
1.78529e-09
1.04567e-09
5.98557e-10
4.16847e-10
3.66244e-10
5.31409e-10
9.45974e-10
1.64354e-09
2.73723e-09
4.09424e-09
5.57804e-09
6.98476e-09
8.19619e-09
9.10614e-09
9.7739e-09
1.02529e-08
1.06027e-08
1.08965e-08
1.11388e-08
1.13442e-08
1.15186e-08
1.16667e-08
1.1787e-08
1.18805e-08
1.19483e-08
1.19969e-08
1.20287e-08
1.2047e-08
1.20569e-08
1.20568e-08
1.20468e-08
1.20286e-08
1.19972e-08
1.19493e-08
1.1882e-08
1.17888e-08
1.16684e-08
1.15199e-08
1.13447e-08
1.11382e-08
1.08943e-08
1.05994e-08
1.02477e-08
9.76652e-09
9.09658e-09
8.18425e-09
6.97176e-09
5.56462e-09
4.08267e-09
2.72902e-09
1.63544e-09
9.42328e-10
5.29352e-10
3.64804e-10
3.20625e-10
4.70253e-10
8.53043e-10
1.50794e-09
2.55619e-09
3.88044e-09
5.34913e-09
6.76382e-09
7.97102e-09
8.88968e-09
9.56541e-09
1.005e-08
1.04113e-08
1.07e-08
1.09443e-08
1.11571e-08
1.13278e-08
1.14774e-08
1.15994e-08
1.16945e-08
1.17644e-08
1.18154e-08
1.18491e-08
1.18698e-08
1.18798e-08
1.18797e-08
1.18695e-08
1.1849e-08
1.18158e-08
1.17655e-08
1.16961e-08
1.16014e-08
1.14793e-08
1.13293e-08
1.11577e-08
1.09439e-08
1.06979e-08
1.0408e-08
1.00447e-08
9.5579e-09
8.87997e-09
7.95891e-09
6.75091e-09
5.33587e-09
3.86878e-09
2.54809e-09
1.50118e-09
8.49489e-10
4.68395e-10
3.19253e-10
2.81124e-10
4.16523e-10
7.6717e-10
1.37926e-09
2.38276e-09
3.67655e-09
5.1277e-09
6.5449e-09
7.74904e-09
8.67488e-09
9.35743e-09
9.84676e-09
1.02143e-08
1.05019e-08
1.07477e-08
1.09621e-08
1.11413e-08
1.1285e-08
1.14085e-08
1.1505e-08
1.15757e-08
1.16269e-08
1.16609e-08
1.16835e-08
1.16939e-08
1.16938e-08
1.16832e-08
1.16608e-08
1.16273e-08
1.15768e-08
1.15068e-08
1.14106e-08
1.12871e-08
1.1143e-08
1.09628e-08
1.07474e-08
1.04999e-08
1.02108e-08
9.84134e-09
9.3498e-09
8.66504e-09
7.73682e-09
6.5309e-09
5.11467e-09
3.66493e-09
2.3743e-09
1.37323e-09
7.63888e-10
4.14844e-10
2.80126e-10
2.47044e-10
3.70194e-10
6.92579e-10
1.26567e-09
2.22746e-09
3.48222e-09
4.92492e-09
6.32366e-09
7.53e-09
8.46149e-09
9.14964e-09
9.64274e-09
1.0013e-08
1.03016e-08
1.05485e-08
1.07641e-08
1.09474e-08
1.10963e-08
1.12137e-08
1.13116e-08
1.13827e-08
1.14341e-08
1.14684e-08
1.14922e-08
1.15027e-08
1.15026e-08
1.14919e-08
1.14683e-08
1.14345e-08
1.13839e-08
1.13134e-08
1.12159e-08
1.10985e-08
1.09492e-08
1.07651e-08
1.05483e-08
1.02998e-08
1.00096e-08
9.63724e-09
9.1419e-09
8.45154e-09
7.51771e-09
6.30974e-09
4.91214e-09
3.47071e-09
2.21861e-09
1.26004e-09
6.89555e-10
3.68673e-10
2.46055e-10
2.17383e-10
3.29158e-10
6.24612e-10
1.16198e-09
2.07885e-09
3.29698e-09
4.72086e-09
6.10738e-09
7.31371e-09
8.24927e-09
8.94177e-09
9.43767e-09
9.81002e-09
1.01066e-08
1.03464e-08
1.05629e-08
1.07471e-08
1.09008e-08
1.10218e-08
1.11137e-08
1.1185e-08
1.12365e-08
1.1271e-08
1.12962e-08
1.13067e-08
1.13066e-08
1.1296e-08
1.12709e-08
1.1237e-08
1.11863e-08
1.11156e-08
1.10242e-08
1.09033e-08
1.07491e-08
1.05641e-08
1.03464e-08
1.01049e-08
9.8066e-09
9.43212e-09
8.93393e-09
8.23922e-09
7.30138e-09
6.09354e-09
4.7075e-09
3.28563e-09
2.07036e-09
1.1567e-09
6.21651e-10
3.27712e-10
2.16473e-10
1.91381e-10
2.92803e-10
5.62884e-10
1.06699e-09
1.93668e-09
3.12056e-09
4.52158e-09
5.89585e-09
7.09996e-09
8.03805e-09
8.73357e-09
9.23128e-09
9.6049e-09
9.90221e-09
1.0141e-08
1.03581e-08
1.05426e-08
1.0697e-08
1.08214e-08
1.09184e-08
1.09898e-08
1.10412e-08
1.10759e-08
1.10951e-08
1.11055e-08
1.11054e-08
1.10949e-08
1.10758e-08
1.10417e-08
1.0991e-08
1.09205e-08
1.08239e-08
1.06997e-08
1.05448e-08
1.03594e-08
1.01411e-08
9.90068e-09
9.6015e-09
9.22569e-09
8.72564e-09
8.0279e-09
7.08767e-09
5.88211e-09
4.5084e-09
3.1094e-09
1.9282e-09
1.06181e-09
5.60148e-10
2.91486e-10
1.90553e-10
1.68752e-10
2.61388e-10
5.09271e-10
9.78002e-10
1.80994e-09
2.95262e-09
4.32896e-09
5.68889e-09
6.88859e-09
7.82763e-09
8.52482e-09
9.02332e-09
9.39729e-09
9.69404e-09
9.93974e-09
1.01492e-08
1.03337e-08
1.04883e-08
1.06129e-08
1.07118e-08
1.07852e-08
1.08387e-08
1.08756e-08
1.0896e-08
1.09064e-08
1.09063e-08
1.08959e-08
1.08755e-08
1.08393e-08
1.07866e-08
1.0714e-08
1.06156e-08
1.04912e-08
1.03361e-08
1.01507e-08
9.93997e-09
9.69265e-09
9.39392e-09
9.01771e-09
8.51682e-09
7.81738e-09
6.87637e-09
5.67529e-09
4.31593e-09
2.94167e-09
1.80157e-09
9.73122e-10
5.06727e-10
2.60186e-10
1.68003e-10
1.49229e-10
2.33595e-10
4.60885e-10
8.99636e-10
1.68812e-09
2.79281e-09
4.14281e-09
5.48636e-09
6.67941e-09
7.6179e-09
8.31534e-09
8.81358e-09
9.18707e-09
9.4824e-09
9.72903e-09
9.93607e-09
1.01199e-08
1.02746e-08
1.0399e-08
1.04987e-08
1.05719e-08
1.06253e-08
1.06629e-08
1.06845e-08
1.0695e-08
1.06949e-08
1.06844e-08
1.06628e-08
1.06259e-08
1.05733e-08
1.0501e-08
1.04019e-08
1.02777e-08
1.01225e-08
9.93775e-09
9.72937e-09
9.48115e-09
9.18374e-09
8.80795e-09
8.30727e-09
7.6075e-09
6.6673e-09
5.47291e-09
4.12991e-09
2.78207e-09
1.6805e-09
8.95028e-10
4.58617e-10
2.32475e-10
1.48551e-10
1.32131e-10
2.08975e-10
4.16834e-10
8.26156e-10
1.57778e-09
2.64075e-09
3.96294e-09
5.28812e-09
6.48304e-09
7.4087e-09
8.10495e-09
8.60186e-09
8.97402e-09
9.26706e-09
9.51234e-09
9.7264e-09
9.901e-09
1.00555e-08
1.01793e-08
1.02796e-08
1.03525e-08
1.04057e-08
1.04439e-08
1.0466e-08
1.04765e-08
1.04764e-08
1.04659e-08
1.04437e-08
1.04063e-08
1.03541e-08
1.02821e-08
1.01824e-08
1.00588e-08
9.90378e-09
9.72827e-09
9.51283e-09
9.26597e-09
8.97074e-09
8.59623e-09
8.09682e-09
7.39809e-09
6.47107e-09
5.27486e-09
3.95017e-09
2.63024e-09
1.57041e-09
8.21922e-10
4.14731e-10
2.07955e-10
1.31526e-10
1.17312e-10
1.87346e-10
3.77488e-10
7.58501e-10
1.4751e-09
2.49603e-09
3.78919e-09
5.094e-09
6.28144e-09
7.19989e-09
7.8935e-09
8.38799e-09
8.75795e-09
9.04787e-09
9.29141e-09
9.50507e-09
9.68513e-09
9.83071e-09
9.95353e-09
1.00545e-08
1.01269e-08
1.01797e-08
1.02186e-08
1.02411e-08
1.02515e-08
1.02514e-08
1.02409e-08
1.02185e-08
1.01803e-08
1.01285e-08
1.0057e-08
9.95683e-09
9.83424e-09
9.68811e-09
9.50714e-09
9.29206e-09
9.04695e-09
8.75474e-09
8.38238e-09
7.88532e-09
7.18889e-09
6.2689e-09
5.08095e-09
3.77654e-09
2.48576e-09
1.468e-09
7.54531e-10
3.75538e-10
1.86414e-10
1.16764e-10
1.04366e-10
1.68328e-10
3.43278e-10
6.96866e-10
1.37964e-09
2.35815e-09
3.62137e-09
4.90383e-09
6.07979e-09
6.99133e-09
7.68083e-09
8.17183e-09
8.53868e-09
8.8247e-09
9.0661e-09
9.27772e-09
9.45836e-09
9.60863e-09
9.7301e-09
9.8229e-09
9.89466e-09
9.94695e-09
9.98689e-09
1.00094e-08
1.00198e-08
1.00196e-08
1.00092e-08
9.98674e-09
9.94764e-09
9.89636e-09
9.82561e-09
9.73359e-09
9.61239e-09
9.46161e-09
9.28e-09
9.06693e-09
8.82394e-09
8.53557e-09
8.16625e-09
7.67262e-09
6.97966e-09
6.06734e-09
4.89099e-09
3.60885e-09
2.34815e-09
1.37282e-09
6.93148e-10
3.41459e-10
1.67476e-10
1.03862e-10
9.3029e-11
1.51582e-10
3.12687e-10
6.42692e-10
1.28819e-09
2.2334e-09
3.45931e-09
4.72762e-09
5.88021e-09
6.78292e-09
7.46682e-09
7.95325e-09
8.31608e-09
8.59761e-09
8.83615e-09
9.04514e-09
9.22378e-09
9.37443e-09
9.50043e-09
9.59361e-09
9.66455e-09
9.71617e-09
9.74847e-09
9.77081e-09
9.78113e-09
9.78099e-09
9.77056e-09
9.74832e-09
9.71691e-09
9.66634e-09
9.59645e-09
9.50441e-09
9.37858e-09
9.2273e-09
9.04765e-09
8.83721e-09
8.59699e-09
8.31307e-09
7.94772e-09
7.45862e-09
6.77014e-09
5.86784e-09
4.71496e-09
3.44695e-09
2.22366e-09
1.28171e-09
6.39203e-10
3.10987e-10
1.508e-10
9.2573e-11
8.31277e-11
1.3681e-10
2.84671e-10
5.92238e-10
1.20197e-09
2.11488e-09
3.30272e-09
4.54709e-09
5.68255e-09
6.57457e-09
7.25135e-09
7.73217e-09
8.09006e-09
8.36652e-09
8.60147e-09
8.80724e-09
8.98358e-09
9.13261e-09
9.25725e-09
9.35238e-09
9.42504e-09
9.47854e-09
9.51216e-09
9.53428e-09
9.54451e-09
9.54437e-09
9.534e-09
9.51202e-09
9.4794e-09
9.42699e-09
9.35542e-09
9.26145e-09
9.13702e-09
8.98736e-09
8.81e-09
8.60278e-09
8.36605e-09
8.08717e-09
7.7267e-09
7.24321e-09
6.56013e-09
5.67024e-09
4.5337e-09
3.29054e-09
2.10543e-09
1.19576e-09
5.88827e-10
2.83049e-10
1.3609e-10
8.27133e-11
7.44669e-11
1.23886e-10
2.60115e-10
5.45693e-10
1.12191e-09
2.00118e-09
3.15135e-09
4.3694e-09
5.48664e-09
6.36617e-09
7.03434e-09
7.50851e-09
7.86056e-09
8.13139e-09
8.36202e-09
8.56403e-09
8.73771e-09
8.88485e-09
9.00768e-09
9.10198e-09
9.17366e-09
9.22661e-09
9.26133e-09
9.28357e-09
9.29386e-09
9.29371e-09
9.28326e-09
9.26118e-09
9.22756e-09
9.17572e-09
9.1052e-09
9.0121e-09
8.88952e-09
8.74176e-09
8.56705e-09
8.3636e-09
8.13109e-09
7.8578e-09
7.50313e-09
7.02632e-09
6.35996e-09
5.47441e-09
4.35614e-09
3.13938e-09
1.99173e-09
1.11594e-09
5.42487e-10
2.58599e-10
1.23221e-10
7.40897e-11
6.6877e-11
1.12434e-10
2.38101e-10
5.04661e-10
1.04754e-09
1.89433e-09
3.00495e-09
4.19519e-09
5.29234e-09
6.16789e-09
6.81569e-09
7.28225e-09
7.62756e-09
7.89224e-09
8.11782e-09
8.31556e-09
8.48618e-09
8.63118e-09
8.75195e-09
8.8451e-09
8.91567e-09
8.96775e-09
9.00274e-09
9.02474e-09
9.03492e-09
9.03476e-09
9.02443e-09
9.00259e-09
8.96879e-09
8.91786e-09
8.84853e-09
8.75662e-09
8.63608e-09
8.49049e-09
8.31885e-09
8.11967e-09
7.89213e-09
7.62494e-09
7.27696e-09
6.80784e-09
6.1605e-09
5.28018e-09
4.18212e-09
2.9932e-09
1.88514e-09
1.04182e-09
5.01636e-10
2.36677e-10
1.1182e-10
6.6536e-11
6.02168e-11
1.022e-10
2.17904e-10
4.67224e-10
9.78429e-10
1.79313e-09
2.86325e-09
4.0243e-09
5.09938e-09
5.96111e-09
6.59531e-09
7.05338e-09
7.39107e-09
7.6491e-09
7.86891e-09
8.0619e-09
8.22908e-09
8.37161e-09
8.49018e-09
8.58182e-09
8.65116e-09
8.70226e-09
8.73732e-09
8.75908e-09
8.76913e-09
8.76897e-09
8.75876e-09
8.73718e-09
8.70342e-09
8.65348e-09
8.58552e-09
8.49502e-09
8.3768e-09
8.23366e-09
8.06548e-09
7.87103e-09
7.6492e-09
7.38861e-09
7.04821e-09
6.58768e-09
5.95248e-09
5.08738e-09
4.01148e-09
2.85172e-09
1.78419e-09
9.72933e-10
4.64365e-10
2.16566e-10
1.01629e-10
5.9905e-11
5.43481e-11
9.30879e-11
1.99751e-10
4.32256e-10
9.14117e-10
1.69295e-09
2.73354e-09
3.85658e-09
4.90758e-09
5.75367e-09
6.37314e-09
6.82193e-09
7.15114e-09
7.40208e-09
7.6154e-09
7.80318e-09
7.96657e-09
8.10629e-09
8.22245e-09
8.31235e-09
8.38027e-09
8.43029e-09
8.46524e-09
8.48674e-09
8.49665e-09
8.49648e-09
8.48642e-09
8.46511e-09
8.43159e-09
8.38273e-09
8.3163e-09
8.22745e-09
8.11179e-09
7.97144e-09
7.80707e-09
7.6178e-09
7.40239e-09
7.14884e-09
6.81692e-09
6.36578e-09
5.74459e-09
4.8959e-09
3.84404e-09
2.72221e-09
1.68416e-09
9.08844e-10
4.29599e-10
1.98508e-10
9.25604e-11
5.40625e-11
4.91695e-11
8.49705e-11
1.83426e-10
3.99968e-10
8.54133e-10
1.59734e-09
2.60429e-09
3.69181e-09
4.7168e-09
5.54634e-09
6.15947e-09
6.588e-09
6.90785e-09
7.15129e-09
7.35748e-09
7.53957e-09
7.69887e-09
7.83544e-09
7.94894e-09
8.03688e-09
8.10319e-09
8.15205e-09
8.18675e-09
8.20794e-09
8.21768e-09
8.21752e-09
8.20763e-09
8.18664e-09
8.15352e-09
8.10583e-09
8.04105e-09
7.95411e-09
7.84126e-09
7.70405e-09
7.54377e-09
7.36014e-09
7.15183e-09
6.90573e-09
6.58314e-09
6.15242e-09
5.53709e-09
4.70572e-09
3.67958e-09
2.59297e-09
1.58884e-09
8.49084e-10
3.9747e-10
1.8227e-10
8.44825e-11
4.89081e-11
4.45912e-11
7.77609e-11
1.68711e-10
3.71333e-10
8.00459e-10
1.50655e-09
2.47714e-09
3.53855e-09
4.53721e-09
5.33909e-09
5.94246e-09
6.35161e-09
6.66133e-09
6.89689e-09
7.09542e-09
7.27128e-09
7.42629e-09
7.55932e-09
7.66993e-09
7.75572e-09
7.82021e-09
7.86781e-09
7.90216e-09
7.92299e-09
7.93254e-09
7.93238e-09
7.92268e-09
7.90208e-09
7.86949e-09
7.82306e-09
7.76007e-09
7.67528e-09
7.56546e-09
7.43175e-09
7.27581e-09
7.09831e-09
6.89766e-09
6.6594e-09
6.34694e-09
5.93487e-09
5.32988e-09
4.52688e-09
3.52666e-09
2.4662e-09
1.49833e-09
7.95619e-10
3.68985e-10
1.67635e-10
7.73084e-11
4.43517e-11
4.05305e-11
7.12985e-11
1.55404e-10
3.4506e-10
7.50253e-10
1.42019e-09
2.35427e-09
3.38717e-09
4.35507e-09
5.1319e-09
5.7169e-09
6.11283e-09
6.41179e-09
6.63897e-09
6.82949e-09
6.99866e-09
7.14917e-09
7.27829e-09
7.38576e-09
7.46917e-09
7.53172e-09
7.57793e-09
7.61187e-09
7.63225e-09
7.64159e-09
7.64142e-09
7.63195e-09
7.61182e-09
7.57992e-09
7.53477e-09
7.4737e-09
7.39131e-09
7.28475e-09
7.1549e-09
7.00346e-09
6.83263e-09
6.64007e-09
6.41002e-09
6.10838e-09
5.70962e-09
5.12287e-09
4.34382e-09
3.37524e-09
2.34414e-09
1.41223e-09
7.45613e-10
3.42743e-10
1.54401e-10
7.08785e-11
4.03109e-11
3.69126e-11
6.54793e-11
1.43572e-10
3.20246e-10
7.02635e-10
1.33784e-09
2.24136e-09
3.2328e-09
4.17947e-09
4.92482e-09
5.48991e-09
5.88208e-09
6.15936e-09
6.37796e-09
6.55989e-09
6.72208e-09
6.86789e-09
6.99273e-09
7.09687e-09
7.17767e-09
7.23812e-09
7.28283e-09
7.31633e-09
7.33618e-09
7.34526e-09
7.3451e-09
7.33588e-09
7.31631e-09
7.28526e-09
7.24138e-09
7.18237e-09
7.10261e-09
6.99953e-09
6.87386e-09
6.72717e-09
6.56335e-09
6.37926e-09
6.15778e-09
5.87786e-09
5.48296e-09
4.91606e-09
4.16869e-09
3.22112e-09
2.23166e-09
1.3301e-09
6.98169e-10
3.18047e-10
1.42637e-10
6.50879e-11
3.6711e-11
3.36907e-11
6.02426e-11
1.32792e-10
2.97354e-10
6.56777e-10
1.26286e-09
2.12765e-09
3.08095e-09
4.00003e-09
4.72805e-09
5.27201e-09
5.64102e-09
5.91451e-09
6.1142e-09
6.28692e-09
6.44192e-09
6.5829e-09
6.70314e-09
6.80373e-09
6.88169e-09
6.93993e-09
6.98301e-09
7.01604e-09
7.03528e-09
7.04408e-09
7.04392e-09
7.03499e-09
7.01607e-09
6.98608e-09
6.94337e-09
6.88658e-09
6.80967e-09
6.71026e-09
6.58908e-09
6.44731e-09
6.29066e-09
6.11571e-09
5.91313e-09
5.63686e-09
5.26539e-09
4.7196e-09
3.98943e-09
3.06968e-09
2.11802e-09
1.25527e-09
6.52488e-10
2.95293e-10
1.31894e-10
5.98784e-11
3.35065e-11
3.08115e-11
5.55046e-11
1.22791e-10
2.76807e-10
6.13818e-10
1.19032e-09
2.01566e-09
2.93184e-09
3.81899e-09
4.52811e-09
5.05176e-09
5.40749e-09
5.66822e-09
5.85829e-09
6.02129e-09
6.16903e-09
6.29464e-09
6.41001e-09
6.50686e-09
6.58177e-09
6.63767e-09
6.67899e-09
6.71156e-09
6.73011e-09
6.7386e-09
6.73844e-09
6.72983e-09
6.71164e-09
6.68301e-09
6.64128e-09
6.58686e-09
6.513e-09
6.41742e-09
6.30102e-09
6.1747e-09
6.02529e-09
5.86e-09
5.66703e-09
5.40358e-09
5.04525e-09
4.51901e-09
3.80869e-09
2.92101e-09
2.00629e-09
1.18343e-09
6.09673e-10
2.74871e-10
1.21948e-10
5.51657e-11
3.06421e-11
2.82255e-11
5.12011e-11
1.13803e-10
2.57638e-10
5.73516e-10
1.11873e-09
1.90699e-09
2.78524e-09
3.63972e-09
4.32316e-09
4.83366e-09
5.16511e-09
5.41419e-09
5.59629e-09
5.75409e-09
5.89307e-09
6.01425e-09
6.12461e-09
6.21769e-09
6.28945e-09
6.34294e-09
6.38244e-09
6.41461e-09
6.43241e-09
6.44056e-09
6.4404e-09
6.43212e-09
6.41472e-09
6.38774e-09
6.34671e-09
6.29475e-09
6.22399e-09
6.13226e-09
6.02082e-09
5.89953e-09
5.75832e-09
5.59796e-09
5.41323e-09
5.16147e-09
4.82747e-09
4.31434e-09
3.62966e-09
2.77489e-09
1.89789e-09
1.11206e-09
5.69439e-10
2.55793e-10
1.13016e-10
5.08859e-11
2.80701e-11
2.58951e-11
4.72847e-11
1.0555e-10
2.39512e-10
5.35698e-10
1.05036e-09
1.80155e-09
2.64866e-09
3.46233e-09
4.11843e-09
4.60877e-09
4.93007e-09
5.15562e-09
5.32803e-09
5.48133e-09
5.61698e-09
5.73252e-09
5.83033e-09
5.92064e-09
5.99002e-09
6.04179e-09
6.08005e-09
6.11258e-09
6.12996e-09
6.13794e-09
6.13779e-09
6.12969e-09
6.11274e-09
6.08736e-09
6.04594e-09
5.99573e-09
5.92733e-09
5.83837e-09
5.73928e-09
5.62376e-09
5.4855e-09
5.32985e-09
5.15488e-09
4.92671e-09
4.6025e-09
4.10994e-09
3.45256e-09
2.63878e-09
1.79273e-09
1.04393e-09
5.31538e-10
2.37783e-10
1.04817e-10
4.69919e-11
2.57526e-11
2.37874e-11
4.37071e-11
9.7909e-11
2.22663e-10
5.00196e-10
9.87948e-10
1.69921e-09
2.5108e-09
3.28688e-09
3.9141e-09
4.38117e-09
4.68859e-09
4.90673e-09
5.05902e-09
5.20219e-09
5.33255e-09
5.44798e-09
5.54222e-09
5.62863e-09
5.69457e-09
5.74374e-09
5.77997e-09
5.80211e-09
5.81873e-09
5.82638e-09
5.82624e-09
5.81847e-09
5.80229e-09
5.77902e-09
5.74804e-09
5.70047e-09
5.63552e-09
5.55042e-09
5.45553e-09
5.33981e-09
5.20654e-09
5.06097e-09
4.90623e-09
4.68531e-09
4.37523e-09
3.90597e-09
3.27756e-09
2.5011e-09
1.69066e-09
9.81733e-10
4.97198e-10
2.21051e-10
9.72226e-11
4.34359e-11
2.36571e-11
2.18745e-11
4.04279e-11
9.08872e-11
2.07352e-10
4.67845e-10
9.26757e-10
1.59988e-09
2.37254e-09
3.11325e-09
3.71039e-09
4.15386e-09
4.44408e-09
4.64892e-09
4.79991e-09
4.93314e-09
5.04594e-09
5.15509e-09
5.24544e-09
5.32997e-09
5.39494e-09
5.44344e-09
5.47967e-09
5.50107e-09
5.5168e-09
5.52407e-09
5.52393e-09
5.51655e-09
5.50125e-09
5.48012e-09
5.44834e-09
5.40109e-09
5.33717e-09
5.25393e-09
5.16304e-09
5.05353e-09
4.93764e-09
4.80204e-09
4.64885e-09
4.44108e-09
4.14829e-09
3.70265e-09
3.10461e-09
2.36332e-09
1.59149e-09
9.20755e-10
4.64704e-10
2.05845e-10
9.02495e-11
4.01785e-11
2.17557e-11
2.01322e-11
3.74128e-11
8.42901e-11
1.92941e-10
4.36068e-10
8.66869e-10
1.5035e-09
2.23693e-09
2.95007e-09
3.5075e-09
3.92719e-09
4.20051e-09
4.39119e-09
4.53253e-09
4.66181e-09
4.77067e-09
4.87298e-09
4.95791e-09
5.0279e-09
5.08923e-09
5.13516e-09
5.16995e-09
5.19093e-09
5.20602e-09
5.21301e-09
5.21289e-09
5.20578e-09
5.19115e-09
5.17169e-09
5.14039e-09
5.09554e-09
5.0353e-09
4.96647e-09
4.88112e-09
4.77852e-09
4.66589e-09
4.53417e-09
4.39124e-09
4.1978e-09
3.92206e-09
3.50018e-09
2.94195e-09
2.2282e-09
1.49509e-09
8.61139e-10
4.32945e-10
1.91509e-10
8.36969e-11
3.71837e-11
2.00244e-11
1.85257e-11
3.46295e-11
7.82321e-11
1.79163e-10
4.05827e-10
8.0941e-10
1.41005e-09
2.10389e-09
2.78371e-09
3.31533e-09
3.70147e-09
3.95866e-09
4.13471e-09
4.26564e-09
4.38537e-09
4.4889e-09
4.58631e-09
4.67062e-09
4.73791e-09
4.79563e-09
4.83888e-09
4.87169e-09
4.89182e-09
4.90603e-09
4.91261e-09
4.91249e-09
4.9058e-09
4.89205e-09
4.87435e-09
4.84432e-09
4.80208e-09
4.74549e-09
4.67948e-09
4.59489e-09
4.49702e-09
4.38947e-09
4.26752e-09
4.13488e-09
3.95624e-09
3.6969e-09
3.30844e-09
2.77573e-09
2.0957e-09
1.40132e-09
8.04027e-10
4.02839e-10
1.77844e-10
7.76864e-11
3.44212e-11
1.84285e-11
1.70602e-11
3.20485e-11
7.25313e-11
1.66494e-10
3.77143e-10
7.54185e-10
1.31934e-09
1.97339e-09
2.61655e-09
3.12535e-09
3.48706e-09
3.71902e-09
3.88013e-09
4.00082e-09
4.11108e-09
4.20892e-09
4.29845e-09
4.37746e-09
4.44114e-09
4.49644e-09
4.53775e-09
4.56949e-09
4.58925e-09
4.60305e-09
4.60947e-09
4.60937e-09
4.60286e-09
4.58953e-09
4.57278e-09
4.54369e-09
4.50291e-09
4.44902e-09
4.38634e-09
4.30714e-09
4.21698e-09
4.11522e-09
4.00276e-09
3.88043e-09
3.71692e-09
3.48325e-09
3.1189e-09
2.60907e-09
1.96588e-09
1.31475e-09
7.49276e-10
3.7432e-10
1.65302e-10
7.20376e-11
3.18641e-11
1.6977e-11
1.57097e-11
2.96404e-11
6.71537e-11
1.54502e-10
3.49876e-10
7.00912e-10
1.23525e-09
1.84526e-09
2.45156e-09
2.93023e-09
3.27483e-09
3.49124e-09
3.63801e-09
3.7485e-09
3.84986e-09
3.93278e-09
4.01404e-09
4.08776e-09
4.14706e-09
4.19872e-09
4.23731e-09
4.26705e-09
4.28584e-09
4.29877e-09
4.30477e-09
4.30468e-09
4.29858e-09
4.28612e-09
4.27087e-09
4.24342e-09
4.20526e-09
4.15507e-09
4.09651e-09
4.02272e-09
3.94054e-09
3.85392e-09
3.7505e-09
3.63844e-09
3.48955e-09
3.27189e-09
2.92454e-09
2.44492e-09
1.83882e-09
1.22999e-09
6.96705e-10
3.47254e-10
1.53489e-10
6.67391e-11
2.94904e-11
1.56411e-11
1.44473e-11
2.73634e-11
6.20968e-11
1.43021e-10
3.23709e-10
6.51257e-10
1.14905e-09
1.71882e-09
2.28842e-09
2.73573e-09
3.05705e-09
3.26069e-09
3.39933e-09
3.50032e-09
3.59306e-09
3.67071e-09
3.7441e-09
3.81275e-09
3.86771e-09
3.91586e-09
3.95187e-09
3.97972e-09
3.99751e-09
4.00961e-09
4.01522e-09
4.01514e-09
4.00944e-09
3.99779e-09
3.98387e-09
3.95808e-09
3.92244e-09
3.87578e-09
3.82113e-09
3.75238e-09
3.678e-09
3.59693e-09
3.50243e-09
3.39992e-09
3.25972e-09
3.05601e-09
2.73196e-09
2.28368e-09
1.71457e-09
1.14488e-09
6.48367e-10
3.22465e-10
1.4236e-10
6.18335e-11
2.72695e-11
1.4404e-11
3.59443e-09
3.63912e-09
3.67263e-09
3.69863e-09
3.71541e-09
3.72671e-09
3.73192e-09
3.73185e-09
3.72655e-09
3.71567e-09
3.70289e-09
3.67877e-09
3.6456e-09
3.60236e-09
3.55151e-09
3.48734e-09
3.4205e-09
3.34514e-09
3.2592e-09
3.16557e-09
3.03903e-09
2.85204e-09
2.5429e-09
2.12567e-09
1.59931e-09
1.06232e-09
6.00315e-10
2.98895e-10
1.31648e-10
5.72202e-11
2.51945e-11
1.32626e-11
3.42919e-09
3.40672e-09
3.37595e-09
3.33479e-09
3.28822e-09
3.2283e-09
3.16836e-09
3.09947e-09
3.02165e-09
2.93587e-09
2.81533e-09
2.64706e-09
2.36626e-09
1.97107e-09
1.48456e-09
9.82211e-10
5.55811e-10
2.7577e-10
1.21471e-10
5.28443e-11
2.32552e-11
1.22029e-11
2.18717e-09
1.82708e-09
1.36972e-09
9.07805e-10
5.11438e-10
2.53362e-10
1.119e-10
4.86847e-11
2.14199e-11
1.1202e-11
)
;

boundaryField
{
    fuel
    {
        type            fixedValue;
        value           nonuniform 0();
    }
    wall
    {
        type            zeroGradient;
    }
    outlet
    {
        type            zeroGradient;
    }
    frontAndBack
    {
        type            empty;
    }
    procBoundary0to1
    {
        type            processor;
        value           nonuniform List<scalar> 
50
(
1.06741e-09
1.41779e-09
2.19071e-09
3.2754e-09
4.65725e-09
6.18123e-09
7.69811e-09
9.05665e-09
1.01597e-08
1.09522e-08
1.15103e-08
1.19209e-08
1.22266e-08
1.24769e-08
1.26884e-08
1.28628e-08
1.30212e-08
1.31491e-08
1.32524e-08
1.33322e-08
1.33919e-08
1.34354e-08
1.34645e-08
1.34822e-08
1.34906e-08
1.34906e-08
1.34822e-08
1.34644e-08
1.34356e-08
1.33927e-08
1.33332e-08
1.32535e-08
1.31499e-08
1.30214e-08
1.28625e-08
1.26874e-08
1.24748e-08
1.22238e-08
1.19164e-08
1.15042e-08
1.09443e-08
1.01499e-08
9.04447e-09
7.68468e-09
6.16845e-09
4.64458e-09
3.26619e-09
2.18416e-09
1.41353e-09
1.06443e-09
)
;
    }
    procBoundary0to2
    {
        type            processor;
        value           nonuniform List<scalar> 
53
(
1.32897e-11
2.52714e-11
5.74412e-11
1.32245e-10
3.00121e-10
6.03131e-10
1.06647e-09
1.60333e-09
2.13026e-09
2.54607e-09
2.85209e-09
3.03996e-09
3.16545e-09
3.2573e-09
3.34158e-09
3.41365e-09
3.47955e-09
3.54319e-09
3.54319e-09
3.32642e-09
3.369e-09
3.40009e-09
3.42427e-09
3.44e-09
3.4505e-09
3.45533e-09
3.45527e-09
3.45035e-09
3.44021e-09
3.44021e-09
3.15471e-09
3.13378e-09
3.10523e-09
3.06682e-09
3.02437e-09
2.97479e-09
2.92306e-09
2.86093e-09
2.79099e-09
2.7139e-09
2.60438e-09
2.44462e-09
2.44462e-09
2.02088e-09
1.68723e-09
1.26011e-09
8.36822e-10
4.69717e-10
2.33228e-10
1.0305e-10
4.48335e-11
1.97188e-11
1.02828e-11
)
;
    }
}


// ************************************************************************* //
