/*--------------------------------*- C++ -*----------------------------------*\
| =========                 |                                                 |
| \\      /  F ield         | OpenFOAM: The Open Source CFD Toolbox           |
|  \\    /   O peration     | Version:  dev                                   |
|   \\  /    A nd           | Web:      www.OpenFOAM.org                      |
|    \\/     M anipulation  |                                                 |
\*---------------------------------------------------------------------------*/
FoamFile
{
    version     2.0;
    format      ascii;
    class       volScalarField;
    location    "0.01";
    object      CH2O;
}
// * * * * * * * * * * * * * * * * * * * * * * * * * * * * * * * * * * * * * //

dimensions      [0 0 0 0 0 0 0];

internalField   nonuniform List<scalar> 
250
(
2.4214e-06
2.42411e-06
2.1545e-06
1.30726e-06
9.99522e-07
9.11614e-06
5.54684e-05
0.000107331
6.25906e-05
8.46172e-06
2.29712e-06
2.31247e-06
2.0636e-06
1.23495e-06
1.01701e-06
1.00317e-05
5.55069e-05
9.78048e-05
5.12154e-05
6.88961e-06
5.78875e-06
3.98795e-05
8.70021e-05
5.38909e-05
1.04987e-05
1.01894e-06
1.16902e-06
1.96804e-06
2.18702e-06
2.16517e-06
2.16635e-06
2.19151e-06
1.97562e-06
1.17559e-06
1.01304e-06
1.03478e-05
5.35229e-05
8.69157e-05
4.04128e-05
5.95427e-06
5.10501e-06
3.03183e-05
7.53001e-05
5.02872e-05
1.0193e-05
9.85284e-07
1.1208e-06
1.88067e-06
2.06053e-06
2.02569e-06
2.02646e-06
2.06533e-06
1.88842e-06
1.12709e-06
9.78471e-07
1.00204e-05
4.98497e-05
7.51532e-05
3.07693e-05
5.2477e-06
4.38819e-06
2.23901e-05
6.31633e-05
4.53889e-05
9.29933e-06
9.21294e-07
1.08051e-06
1.79024e-06
1.94409e-06
1.90056e-06
1.90146e-06
1.94937e-06
1.79859e-06
1.08656e-06
9.14438e-07
9.11521e-06
4.48913e-05
6.29601e-05
2.27554e-05
4.50882e-06
3.61224e-06
1.63243e-05
5.09227e-05
3.96115e-05
7.96987e-06
8.37281e-07
1.0463e-06
1.68527e-06
1.81707e-06
1.76694e-06
1.76795e-06
1.82279e-06
1.69392e-06
1.0523e-06
8.31278e-07
7.787e-06
3.90702e-05
5.06809e-05
1.65976e-05
3.70971e-06
2.83754e-06
1.17216e-05
3.92769e-05
3.33578e-05
6.41284e-06
7.48197e-07
1.01473e-06
1.58435e-06
1.68333e-06
1.64061e-06
1.64169e-06
1.68712e-06
1.59214e-06
1.02083e-06
7.43751e-07
6.24429e-06
3.27957e-05
3.90203e-05
1.19079e-05
2.91161e-06
2.13196e-06
8.23667e-06
2.88698e-05
2.70117e-05
4.85237e-06
6.67859e-07
9.79158e-07
1.4779e-06
1.55529e-06
1.51198e-06
1.51311e-06
1.55906e-06
1.48594e-06
9.85326e-07
6.65286e-07
4.70902e-06
2.64561e-05
2.86202e-05
8.35092e-06
2.18448e-06
1.54009e-06
5.62233e-06
2.03444e-05
2.0994e-05
3.49203e-06
6.05138e-07
9.4209e-07
1.35711e-06
1.4214e-06
1.38144e-06
1.38259e-06
1.42542e-06
1.36537e-06
9.48587e-07
6.04208e-07
3.38161e-06
2.04885e-05
2.01236e-05
5.68368e-06
1.57481e-06
1.07362e-06
3.70469e-06
1.27505e-05
1.44965e-05
2.44168e-06
5.64058e-07
8.97632e-07
1.22313e-06
1.28347e-06
1.24921e-06
1.25034e-06
1.28752e-06
1.23121e-06
9.04298e-07
5.64386e-07
2.36774e-06
1.40114e-05
1.25517e-05
3.73211e-06
1.09428e-06
7.36397e-07
2.33181e-06
7.99268e-06
9.76858e-06
1.66041e-06
5.33644e-07
8.43276e-07
1.09653e-06
1.14327e-06
1.11577e-06
1.11684e-06
1.14714e-06
1.10429e-06
8.50064e-07
5.34902e-07
1.59829e-06
9.39339e-06
7.84718e-06
2.33984e-06
7.4821e-07
5.05196e-07
1.46362e-06
4.78321e-06
6.22512e-06
1.14063e-06
5.05921e-07
7.78513e-07
9.6634e-07
1.00286e-06
9.82225e-07
9.83219e-07
1.00644e-06
9.73589e-07
7.8527e-07
5.07859e-07
1.10373e-06
5.95991e-06
4.6833e-06
1.46347e-06
5.11602e-07
3.54246e-07
9.06589e-07
2.7647e-06
3.78023e-06
8.08146e-07
4.75468e-07
7.02476e-07
8.35747e-07
8.6482e-07
8.50435e-07
8.5132e-07
8.68009e-07
8.42309e-07
7.09243e-07
4.77827e-07
7.87258e-07
3.61008e-06
2.70262e-06
9.03491e-07
3.576e-07
7.23621e-07
7.34829e-07
7.14232e-07
6.16468e-07
4.41733e-07
5.8795e-07
2.12139e-06
1.54035e-06
5.62949e-07
2.62868e-07
)
;

boundaryField
{
    fuel
    {
        type            fixedValue;
        value           nonuniform 0();
    }
    wall
    {
        type            zeroGradient;
    }
    outlet
    {
        type            zeroGradient;
    }
    frontAndBack
    {
        type            empty;
    }
    procBoundary0to1
    {
        type            processor;
        value           nonuniform List<scalar> 
21
(
2.6165e-07
5.68048e-07
1.58371e-06
2.23112e-06
6.00518e-07
4.39132e-07
6.10085e-07
7.08391e-07
7.31991e-07
7.22777e-07
7.22777e-07
6.02818e-07
6.09815e-07
5.9311e-07
5.29417e-07
3.98987e-07
4.60255e-07
1.24428e-06
8.95521e-07
3.66948e-07
2.10829e-07
)
;
    }
    procBoundary0to2
    {
        type            processor;
        value           nonuniform List<scalar> 
12
(
2.41941e-06
6.69264e-06
5.05923e-05
9.78194e-05
5.58125e-05
1.01575e-05
1.02132e-06
1.22795e-06
2.05609e-06
2.30806e-06
2.29454e-06
2.29454e-06
)
;
    }
    procBoundary0to3
    {
        type            processor;
        value           nonuniform List<scalar> 10(2.54566e-06 2.53044e-06 2.25082e-06 1.39416e-06 9.76926e-07 7.75249e-06 5.32391e-05 0.00011502 7.47009e-05 1.08022e-05);
    }
}


// ************************************************************************* //
