/*--------------------------------*- C++ -*----------------------------------*\
| =========                 |                                                 |
| \\      /  F ield         | OpenFOAM: The Open Source CFD Toolbox           |
|  \\    /   O peration     | Version:  dev                                   |
|   \\  /    A nd           | Web:      www.OpenFOAM.org                      |
|    \\/     M anipulation  |                                                 |
\*---------------------------------------------------------------------------*/
FoamFile
{
    version     2.0;
    format      ascii;
    class       volScalarField;
    location    "0.01";
    object      HCCOH;
}
// * * * * * * * * * * * * * * * * * * * * * * * * * * * * * * * * * * * * * //

dimensions      [0 0 0 0 0 0 0];

internalField   nonuniform List<scalar> 
25
(
8.40238e-06
1.18952e-05
1.13092e-05
9.46839e-06
7.46467e-06
5.71219e-06
4.33613e-06
3.32183e-06
2.60834e-06
2.12443e-06
1.80904e-06
1.61231e-06
1.49552e-06
1.42959e-06
1.39332e-06
1.37177e-06
1.3548e-06
1.33589e-06
1.31121e-06
1.27881e-06
1.23809e-06
1.18881e-06
1.13253e-06
1.06991e-06
1.00222e-06
)
;

boundaryField
{
    wall
    {
        type            zeroGradient;
    }
    fuel
    {
        type            fixedValue;
        value           uniform 0;
    }
    outlet
    {
        type            inletOutlet;
        inletValue      nonuniform 0();
        value           nonuniform 0();
    }
    procBoundary0to1
    {
        type            processor;
        value           uniform 9.30782e-07;
    }
}


// ************************************************************************* //
