/*--------------------------------*- C++ -*----------------------------------*\
| =========                 |                                                 |
| \\      /  F ield         | OpenFOAM: The Open Source CFD Toolbox           |
|  \\    /   O peration     | Version:  dev                                   |
|   \\  /    A nd           | Web:      www.OpenFOAM.org                      |
|    \\/     M anipulation  |                                                 |
\*---------------------------------------------------------------------------*/
FoamFile
{
    version     2.0;
    format      ascii;
    class       volScalarField;
    location    "0.01";
    object      naphthyne;
}
// * * * * * * * * * * * * * * * * * * * * * * * * * * * * * * * * * * * * * //

dimensions      [0 0 0 0 0 0 0];

internalField   nonuniform List<scalar> 
250
(
1.42615e-11
3.2443e-11
4.20781e-10
1.00638e-08
4.44091e-08
7.22879e-08
7.74962e-08
4.66537e-08
2.00239e-08
1.8297e-08
1.13579e-11
2.70929e-11
4.06409e-10
1.00413e-08
4.23399e-08
6.69667e-08
6.93835e-08
4.08899e-08
1.88878e-08
1.7835e-08
1.69167e-08
1.75378e-08
3.58566e-08
6.22586e-08
6.16982e-08
3.97042e-08
9.70047e-09
3.82932e-10
2.279e-11
9.25101e-12
9.24078e-12
2.27639e-11
3.82882e-10
9.71757e-09
3.98701e-08
6.16787e-08
6.22109e-08
3.61031e-08
1.78204e-08
1.71495e-08
1.60494e-08
1.65237e-08
3.18439e-08
5.59584e-08
5.65478e-08
3.69416e-08
9.09646e-09
3.49733e-10
1.93607e-11
7.71042e-12
7.69772e-12
1.9348e-11
3.50039e-10
9.11993e-09
3.71036e-08
5.65205e-08
5.59077e-08
3.20719e-08
1.67888e-08
1.62769e-08
1.50497e-08
1.55527e-08
2.83902e-08
5.0418e-08
5.15841e-08
3.39758e-08
8.26292e-09
3.08656e-10
1.69485e-11
6.80305e-12
6.79226e-12
1.69459e-11
3.09397e-10
8.2888e-09
3.41288e-08
5.15504e-08
5.03607e-08
2.8597e-08
1.58012e-08
1.52689e-08
1.39721e-08
1.46623e-08
2.53204e-08
4.54982e-08
4.68313e-08
3.0878e-08
7.28496e-09
2.59226e-10
1.50509e-11
6.28661e-12
6.27625e-12
1.50527e-11
2.60153e-10
7.31275e-09
3.10192e-08
4.67923e-08
4.54312e-08
2.55058e-08
1.48914e-08
1.41795e-08
1.28625e-08
1.37643e-08
2.26264e-08
4.10361e-08
4.2288e-08
2.77001e-08
6.22671e-09
2.14846e-10
1.38957e-11
6.24389e-12
6.23194e-12
1.38747e-11
2.15391e-10
6.25551e-09
2.78329e-08
4.22442e-08
4.0957e-08
2.27913e-08
1.39708e-08
1.30551e-08
1.17593e-08
1.28256e-08
2.03509e-08
3.68423e-08
3.79371e-08
2.44774e-08
5.06035e-09
1.76419e-10
1.38144e-11
6.79294e-12
6.77659e-12
1.3772e-11
1.76772e-10
5.08408e-09
2.46067e-08
3.78887e-08
3.67483e-08
2.04951e-08
1.30075e-08
1.19346e-08
1.06924e-08
1.18465e-08
1.84347e-08
3.29192e-08
3.37532e-08
2.12527e-08
4.05764e-09
1.48853e-10
1.51652e-11
8.3415e-12
8.3157e-12
1.5087e-11
1.49e-10
4.08086e-09
2.13704e-08
3.37059e-08
3.28232e-08
1.85551e-08
1.20029e-08
1.08488e-08
9.67184e-09
1.08467e-08
1.64296e-08
2.8447e-08
2.96851e-08
1.81241e-08
3.22209e-09
1.32163e-10
1.8953e-11
1.17912e-11
1.17466e-11
1.8807e-11
1.31988e-10
3.24032e-09
1.82326e-08
2.96723e-08
2.82954e-08
1.65112e-08
1.09782e-08
9.80719e-09
8.73218e-09
9.81809e-09
1.47912e-08
2.47221e-08
2.5619e-08
1.51739e-08
2.54077e-09
1.27515e-10
2.70335e-11
1.89021e-11
1.88226e-11
2.67686e-11
1.26961e-10
2.55478e-09
1.52755e-08
2.55267e-08
2.45763e-08
1.48469e-08
9.92513e-09
8.84861e-09
7.87137e-09
8.85417e-09
1.32042e-08
2.12512e-08
2.184e-08
1.24603e-08
2.00413e-09
1.3462e-10
4.22679e-11
3.25679e-11
3.24301e-11
4.18148e-11
1.33584e-10
2.01414e-09
1.25491e-08
2.17801e-08
2.11151e-08
1.32351e-08
8.93803e-09
7.96944e-09
7.09311e-09
7.91601e-09
1.16606e-08
1.80389e-08
1.83318e-08
1.00254e-08
1.58607e-09
1.54761e-10
6.79531e-11
5.63774e-11
5.61559e-11
6.72439e-11
1.53174e-10
1.5937e-09
1.00953e-08
1.82828e-08
1.79136e-08
1.16725e-08
7.97497e-09
7.17336e-09
9.23187e-11
1.0488e-10
1.85365e-10
1.25024e-09
7.95013e-09
1.50667e-08
1.49877e-08
1.01709e-08
7.06109e-09
6.46489e-09
)
;

boundaryField
{
    fuel
    {
        type            fixedValue;
        value           nonuniform 0();
    }
    wall
    {
        type            zeroGradient;
    }
    outlet
    {
        type            zeroGradient;
    }
    frontAndBack
    {
        type            empty;
    }
    procBoundary0to1
    {
        type            processor;
        value           nonuniform List<scalar> 
21
(
6.40112e-09
7.02211e-09
1.01753e-08
1.51031e-08
1.51178e-08
7.90144e-09
1.24612e-09
1.87503e-10
1.05869e-10
9.26338e-11
9.26338e-11
1.38813e-10
1.52287e-10
2.26558e-10
1.02427e-09
6.13821e-09
1.21776e-08
1.23559e-08
8.74189e-09
6.22853e-09
5.85139e-09
)
;
    }
    procBoundary0to2
    {
        type            processor;
        value           nonuniform List<scalar> 
12
(
1.42653e-11
1.75995e-08
1.85857e-08
4.0624e-08
6.94302e-08
6.69766e-08
4.21759e-08
1.00325e-08
4.0684e-10
2.71333e-11
1.13481e-11
1.13481e-11
)
;
    }
    procBoundary0to3
    {
        type            processor;
        value           nonuniform List<scalar> 10(1.84313e-11 3.93142e-11 4.28412e-10 9.78749e-09 4.59607e-08 7.75101e-08 8.6542e-08 5.3627e-08 2.13191e-08 1.85178e-08);
    }
}


// ************************************************************************* //
