/*--------------------------------*- C++ -*----------------------------------*\
| =========                 |                                                 |
| \\      /  F ield         | OpenFOAM: The Open Source CFD Toolbox           |
|  \\    /   O peration     | Version:  dev                                   |
|   \\  /    A nd           | Web:      www.OpenFOAM.org                      |
|    \\/     M anipulation  |                                                 |
\*---------------------------------------------------------------------------*/
FoamFile
{
    version     2.0;
    format      ascii;
    class       volScalarField;
    location    "0.01";
    object      O;
}
// * * * * * * * * * * * * * * * * * * * * * * * * * * * * * * * * * * * * * //

dimensions      [0 0 0 0 0 0 0];

internalField   nonuniform List<scalar> 
250
(
2.40946e-07
1.28518e-07
2.26738e-08
1.92933e-08
3.42933e-08
2.97643e-08
1.54668e-08
1.67815e-09
6.05796e-10
5.95146e-11
2.38196e-07
1.24578e-07
2.11177e-08
1.96147e-08
3.10836e-08
3.04549e-08
1.419e-08
2.44455e-09
9.67188e-10
7.00628e-11
1.0785e-10
1.35659e-09
3.48709e-09
1.06871e-08
3.05556e-08
3.33886e-08
2.21388e-08
1.90918e-08
1.15425e-07
2.29468e-07
2.32225e-07
1.20235e-07
1.99694e-08
1.97176e-08
2.84878e-08
3.09513e-08
1.23965e-08
3.4477e-09
1.43058e-09
1.067e-10
1.90605e-10
1.86967e-09
4.65841e-09
8.86082e-09
3.1524e-08
3.05449e-08
2.15967e-08
1.82837e-08
1.1059e-07
2.20935e-07
2.23832e-07
1.15414e-07
1.91264e-08
1.95952e-08
2.64154e-08
3.12308e-08
1.05784e-08
4.69957e-09
1.97622e-09
1.90469e-10
3.30024e-10
2.42253e-09
5.88667e-09
7.66853e-09
3.21493e-08
2.80912e-08
2.08586e-08
1.76565e-08
1.05258e-07
2.08998e-07
2.12183e-07
1.0999e-07
1.84906e-08
1.92541e-08
2.48046e-08
3.1262e-08
9.15559e-09
6.04861e-09
2.56857e-09
3.33753e-10
5.261e-10
2.97023e-09
7.01487e-09
7.11769e-09
3.24461e-08
2.61314e-08
1.99529e-08
1.71313e-08
9.92488e-08
1.94497e-07
1.96928e-07
1.03796e-07
1.79716e-08
1.86992e-08
2.36024e-08
3.10183e-08
8.25791e-09
7.30126e-09
3.15847e-09
5.37458e-10
7.65793e-10
3.46613e-09
7.98025e-09
7.11265e-09
3.23318e-08
2.46165e-08
1.88907e-08
1.66095e-08
9.20366e-08
1.77197e-07
1.79634e-07
9.62446e-08
1.74683e-08
1.79309e-08
2.27786e-08
3.0452e-08
7.87889e-09
8.35544e-09
3.69352e-09
7.88476e-10
1.02495e-09
3.86948e-09
8.76777e-09
7.55811e-09
3.17015e-08
2.35396e-08
1.76923e-08
1.60155e-08
8.33577e-08
1.57525e-07
1.59712e-07
8.71404e-08
1.68812e-08
1.69586e-08
2.23273e-08
2.95027e-08
7.96584e-09
9.18629e-09
4.12826e-09
1.06148e-09
1.27324e-09
4.15009e-09
9.37114e-09
8.36961e-09
3.04668e-08
2.29297e-08
1.64235e-08
1.53024e-08
7.35296e-08
1.3615e-07
1.37995e-07
7.67779e-08
1.61549e-08
1.58387e-08
2.22618e-08
2.81342e-08
8.45881e-09
9.80107e-09
4.43042e-09
1.3242e-09
1.48054e-09
4.29042e-09
9.77231e-09
9.45829e-09
2.8625e-08
2.27653e-08
1.51186e-08
1.44011e-08
6.37801e-08
1.13967e-07
1.15462e-07
6.64616e-08
1.52e-08
1.46072e-08
2.25535e-08
2.63901e-08
9.29631e-09
1.02031e-08
4.58283e-09
1.54436e-09
1.62195e-09
4.28716e-09
9.93928e-09
1.07124e-08
2.63388e-08
2.29446e-08
1.3611e-08
1.32487e-08
5.35102e-08
9.20302e-08
9.31979e-08
5.56328e-08
1.40347e-08
1.31999e-08
2.30695e-08
2.44453e-08
1.04016e-08
1.03797e-08
4.58339e-09
1.69531e-09
1.67882e-09
4.15369e-09
9.83656e-09
1.19824e-08
2.39505e-08
2.32586e-08
1.2144e-08
1.19544e-08
4.32167e-08
7.14247e-08
7.23001e-08
4.48218e-08
1.26035e-08
1.17962e-08
2.36716e-08
2.26098e-08
1.1661e-08
1.03023e-08
4.44444e-09
1.75809e-09
1.63593e-09
3.92127e-09
9.44534e-09
1.30742e-08
2.18543e-08
2.33468e-08
1.05642e-08
1.02691e-08
3.34714e-08
5.31061e-08
5.37248e-08
3.46183e-08
1.07702e-08
1.02939e-08
2.38332e-08
2.11979e-08
1.2899e-08
9.94086e-09
4.18958e-09
1.72073e-09
3.81491e-08
2.55673e-08
8.92428e-09
8.71648e-09
2.32468e-08
2.0364e-08
1.38678e-08
9.28442e-09
3.7909e-09
1.64175e-09
)
;

boundaryField
{
    fuel
    {
        type            fixedValue;
        value           nonuniform 0();
    }
    wall
    {
        type            zeroGradient;
    }
    outlet
    {
        type            zeroGradient;
    }
    frontAndBack
    {
        type            empty;
    }
    procBoundary0to1
    {
        type            processor;
        value           nonuniform List<scalar> 
21
(
1.58635e-09
3.58057e-09
8.8794e-09
1.3862e-08
2.03735e-08
2.28713e-08
8.95414e-09
8.502e-09
2.47812e-08
3.77253e-08
3.77253e-08
2.58622e-08
1.80401e-08
7.07449e-09
7.15456e-09
2.17249e-08
2.00442e-08
1.43822e-08
8.46057e-09
3.34927e-09
1.5334e-09
)
;
    }
    procBoundary0to2
    {
        type            processor;
        value           nonuniform List<scalar> 
12
(
2.38364e-07
7.08301e-11
9.22582e-10
2.53675e-09
1.29131e-08
2.94572e-08
3.68419e-08
2.22873e-08
2.01372e-08
1.1982e-07
2.35539e-07
2.35539e-07
)
;
    }
    procBoundary0to3
    {
        type            processor;
        value           nonuniform List<scalar> 10(2.41091e-07 1.31992e-07 2.4734e-08 1.86361e-08 3.82785e-08 2.89894e-08 1.56773e-08 1.12485e-09 3.52267e-10 5.72812e-11);
    }
}


// ************************************************************************* //
