/*--------------------------------*- C++ -*----------------------------------*\
| =========                 |                                                 |
| \\      /  F ield         | OpenFOAM: The Open Source CFD Toolbox           |
|  \\    /   O peration     | Version:  dev                                   |
|   \\  /    A nd           | Web:      www.OpenFOAM.org                      |
|    \\/     M anipulation  |                                                 |
\*---------------------------------------------------------------------------*/
FoamFile
{
    version     2.0;
    format      ascii;
    class       volScalarField;
    location    "0.01";
    object      P2-;
}
// * * * * * * * * * * * * * * * * * * * * * * * * * * * * * * * * * * * * * //

dimensions      [0 0 0 0 0 0 0];

internalField   nonuniform List<scalar> 
250
(
2.99427e-13
4.62685e-13
2.9479e-12
5.41546e-11
1.389e-10
6.42735e-11
1.31569e-11
2.00952e-12
1.43546e-13
3.02913e-14
2.55272e-13
4.14647e-13
2.91522e-12
5.43486e-11
1.27142e-10
5.14115e-11
1.04776e-11
1.89855e-12
2.45299e-13
7.56606e-14
1.75796e-13
3.67368e-13
1.90027e-12
8.76391e-12
4.2294e-11
1.15672e-10
5.27358e-11
2.79831e-12
3.70865e-13
2.18969e-13
2.18832e-13
3.7035e-13
2.79652e-12
5.28782e-11
1.16932e-10
4.29568e-11
8.86996e-12
1.93892e-12
3.76376e-13
1.76561e-13
4.17124e-13
5.61482e-13
2.04652e-12
7.86596e-12
3.71619e-11
1.07179e-10
4.96996e-11
2.58674e-12
3.30577e-13
1.89575e-13
1.89351e-13
3.30293e-13
2.58845e-12
4.98725e-11
1.0838e-10
3.78322e-11
7.98082e-12
2.09116e-12
5.73066e-13
4.18111e-13
8.80129e-13
9.40442e-13
2.30331e-12
7.50783e-12
3.45553e-11
1.00145e-10
4.53215e-11
2.29704e-12
2.98559e-13
1.71017e-13
1.70811e-13
2.98472e-13
2.30275e-12
4.55034e-11
1.01279e-10
3.52571e-11
7.64152e-12
2.35925e-12
9.56983e-13
8.83714e-13
1.57572e-12
1.59134e-12
2.72739e-12
7.64071e-12
3.39352e-11
9.41483e-11
4.00047e-11
1.92791e-12
2.70199e-13
1.60003e-13
1.59792e-13
2.70221e-13
1.93576e-12
4.01932e-11
9.51978e-11
3.46857e-11
7.80596e-12
2.80222e-12
1.61686e-12
1.58568e-12
2.45427e-12
2.50816e-12
3.41564e-12
8.30108e-12
3.48895e-11
8.86123e-11
3.40685e-11
1.58369e-12
2.49298e-13
1.58379e-13
1.58136e-13
2.4899e-13
1.58927e-12
3.42595e-11
8.95701e-11
3.5698e-11
8.51456e-12
3.51718e-12
2.54555e-12
2.47411e-12
3.43298e-12
3.64934e-12
4.44797e-12
9.56254e-12
3.70151e-11
8.28861e-11
2.73407e-11
1.2741e-12
2.3953e-13
1.66041e-13
1.65745e-13
2.39051e-13
1.27873e-12
2.74999e-11
8.37621e-11
3.78761e-11
9.84204e-12
4.58309e-12
3.70133e-12
3.4655e-12
4.39678e-12
4.91785e-12
5.81953e-12
1.15088e-11
3.98124e-11
7.63832e-11
2.14622e-11
1.03301e-12
2.40061e-13
1.83397e-13
1.83033e-13
2.39402e-13
1.03666e-12
2.16165e-11
7.71649e-11
4.06921e-11
1.18621e-11
5.99057e-12
4.98773e-12
4.44328e-12
5.22343e-12
6.13439e-12
7.78997e-12
1.46893e-11
4.26958e-11
6.88071e-11
1.65443e-11
8.53775e-13
2.51887e-13
2.10467e-13
2.10024e-13
2.50977e-13
8.55866e-13
1.66684e-11
6.95117e-11
4.35346e-11
1.51663e-11
8.00811e-12
6.2231e-12
5.28457e-12
5.78636e-12
7.13296e-12
9.63219e-12
1.77741e-11
4.48231e-11
6.01422e-11
1.25249e-11
7.44118e-13
2.7682e-13
2.47794e-13
2.47254e-13
2.75557e-13
7.44556e-13
1.2623e-11
6.07873e-11
4.5628e-11
1.82907e-11
9.87132e-12
7.23705e-12
5.85767e-12
6.0317e-12
7.68548e-12
1.12508e-11
2.0538e-11
4.52298e-11
5.0649e-11
9.35913e-12
6.85817e-13
3.19484e-13
2.98934e-13
2.98243e-13
3.17684e-13
6.84259e-13
9.43196e-12
5.12162e-11
4.59106e-11
2.10443e-11
1.14923e-11
7.79289e-12
6.10781e-12
5.95871e-12
7.7708e-12
1.22678e-11
2.23078e-11
4.34464e-11
4.08521e-11
6.90854e-12
6.81478e-13
3.89635e-13
3.73654e-13
3.72682e-13
3.86968e-13
6.77566e-13
6.9659e-12
4.13152e-11
4.39808e-11
2.27482e-11
1.24922e-11
7.86456e-12
6.03217e-12
4.86753e-13
4.97729e-13
7.28595e-13
4.99526e-12
3.17839e-11
3.97897e-11
2.28946e-11
1.26272e-11
7.47308e-12
5.67986e-12
)
;

boundaryField
{
    fuel
    {
        type            fixedValue;
        value           nonuniform 0();
    }
    wall
    {
        type            zeroGradient;
    }
    outlet
    {
        type            zeroGradient;
    }
    frontAndBack
    {
        type            empty;
    }
    procBoundary0to1
    {
        type            processor;
        value           nonuniform List<scalar> 
21
(
5.61561e-12
7.39819e-12
1.24425e-11
2.25604e-11
3.94207e-11
3.14469e-11
4.96179e-12
7.35321e-13
5.01534e-13
4.88022e-13
4.88022e-13
6.56548e-13
6.63142e-13
8.40438e-13
3.75097e-12
2.33204e-11
3.38184e-11
2.13611e-11
1.18492e-11
6.74259e-12
5.13468e-12
)
;
    }
    procBoundary0to2
    {
        type            processor;
        value           nonuniform List<scalar> 
12
(
2.99396e-13
7.48097e-14
2.39146e-13
1.86249e-12
1.037e-11
5.07139e-11
1.25822e-10
5.42451e-11
2.92037e-12
4.15354e-13
2.55029e-13
2.55029e-13
)
;
    }
    procBoundary0to3
    {
        type            processor;
        value           nonuniform List<scalar> 10(3.54923e-13 5.18099e-13 2.91408e-12 5.22944e-11 1.51692e-10 8.28754e-11 1.75619e-11 2.34747e-12 9.66106e-14 1.6157e-14);
    }
}


// ************************************************************************* //
