/*--------------------------------*- C++ -*----------------------------------*\
| =========                 |                                                 |
| \\      /  F ield         | OpenFOAM: The Open Source CFD Toolbox           |
|  \\    /   O peration     | Version:  dev                                   |
|   \\  /    A nd           | Web:      www.OpenFOAM.org                      |
|    \\/     M anipulation  |                                                 |
\*---------------------------------------------------------------------------*/
FoamFile
{
    version     2.0;
    format      ascii;
    class       surfaceScalarField;
    location    "0.01";
    object      phi;
}
// * * * * * * * * * * * * * * * * * * * * * * * * * * * * * * * * * * * * * //

dimensions      [1 0 -1 0 0 0 0];

internalField   nonuniform List<scalar> 
466
(
-1.75753e-08
6.40911e-06
-5.48072e-08
6.41691e-06
-1.23299e-07
6.30793e-06
-2.75148e-07
7.20254e-06
-5.22006e-07
9.44105e-06
-9.19979e-07
1.51892e-05
-1.43575e-06
2.31521e-05
-1.32191e-06
2.81765e-05
-4.77685e-07
1.94895e-05
8.03637e-06
-2.07409e-08
6.40555e-06
-6.2548e-08
6.4353e-06
-1.40993e-07
6.37311e-06
-3.11029e-07
7.3889e-06
-5.7678e-07
9.78657e-06
-9.57054e-07
1.57511e-05
-1.37594e-06
2.37542e-05
-1.06625e-06
2.74656e-05
-1.31993e-07
1.72387e-05
6.75045e-06
-2.05597e-07
5.5918e-06
7.58339e-07
1.50285e-05
1.24163e-06
2.65425e-05
9.47653e-07
2.42352e-05
5.98024e-07
1.6218e-05
3.28042e-07
1.00246e-05
1.48718e-07
7.50236e-06
6.5954e-08
6.4056e-06
2.3512e-08
6.44398e-06
1.32098e-09
6.39943e-06
-2.10783e-08
6.40218e-06
-6.40457e-08
6.45405e-06
-1.47751e-07
6.44007e-06
-3.28415e-07
7.57579e-06
-6.00144e-07
1.01115e-05
-9.49029e-07
1.62182e-05
-1.23596e-06
2.40781e-05
-7.52315e-07
2.63501e-05
2.08804e-07
1.50396e-05
5.63813e-06
-5.43621e-07
4.62996e-06
4.01515e-07
1.2971e-05
1.03242e-06
2.511e-05
8.93594e-07
2.42763e-05
5.87619e-07
1.65767e-05
3.24612e-07
1.0312e-05
1.43163e-07
7.6786e-06
6.04667e-08
6.46733e-06
2.03622e-08
6.45916e-06
9.70673e-10
6.39366e-06
-1.86106e-08
6.39665e-06
-5.91665e-08
6.46988e-06
-1.42691e-07
6.50289e-06
-3.25031e-07
7.75323e-06
-5.88766e-07
1.03988e-05
-8.93308e-07
1.65718e-05
-1.02529e-06
2.41062e-05
-3.94771e-07
2.49198e-05
5.47541e-07
1.29879e-05
4.67246e-06
-8.76918e-07
3.79277e-06
2.40996e-08
1.11041e-05
7.66027e-07
2.34589e-05
7.90909e-07
2.40275e-05
5.40636e-07
1.68096e-05
2.99069e-07
1.05473e-05
1.24893e-07
7.83503e-06
4.76748e-08
6.51972e-06
1.38131e-08
6.46815e-06
5.94641e-10
6.38257e-06
-1.27792e-08
6.38575e-06
-4.70476e-08
6.4792e-06
-1.24949e-07
6.5562e-06
-2.99565e-07
7.91031e-06
-5.40849e-07
1.06327e-05
-7.88846e-07
1.67991e-05
-7.57835e-07
2.38459e-05
-1.77786e-08
2.32733e-05
8.81382e-07
1.11249e-05
3.83206e-06
-1.20312e-06
3.06306e-06
-3.83285e-07
9.45584e-06
4.56213e-07
2.16616e-05
6.41116e-07
2.35132e-05
4.57476e-07
1.69097e-05
2.5118e-07
1.0718e-05
9.39283e-08
7.96333e-06
2.77698e-08
6.55672e-06
4.04725e-09
6.46727e-06
2.34827e-10
6.36005e-06
-3.6994e-09
6.36338e-06
-2.77738e-08
6.47766e-06
-9.44921e-08
6.5937e-06
-2.51778e-07
8.03887e-06
-4.56858e-07
1.08011e-05
-6.37283e-07
1.6893e-05
-4.47404e-07
2.33226e-05
3.89808e-07
2.14834e-05
1.20797e-06
9.47901e-06
3.09966e-06
-1.52191e-06
2.42795e-06
-7.82757e-07
8.006e-06
1.19423e-07
1.98029e-05
4.4723e-07
2.27705e-05
3.40476e-07
1.68747e-05
1.81767e-07
1.08146e-05
5.06008e-08
8.05243e-06
7.11475e-10
6.57548e-06
-8.9514e-09
6.44792e-06
-1.23773e-10
6.32572e-06
8.6011e-09
6.32917e-06
-1.38135e-09
6.4598e-06
-5.16462e-08
6.61326e-06
-1.82481e-07
8.12767e-06
-3.39178e-07
1.0895e-05
-4.41761e-07
1.68512e-05
-1.10385e-07
2.25736e-05
7.88362e-07
1.96345e-05
1.52684e-06
8.03015e-06
2.46217e-06
-1.83212e-06
1.87697e-06
-1.17142e-06
6.73203e-06
-2.42133e-07
1.79458e-05
2.12973e-07
2.1831e-05
1.93432e-07
1.67054e-05
9.25075e-08
1.083e-05
-4.32954e-09
8.09944e-06
-3.25831e-08
6.56866e-06
-2.50289e-08
6.41186e-06
-4.77223e-10
6.27685e-06
2.4007e-08
6.28037e-06
3.13845e-08
6.42422e-06
2.84651e-09
6.6069e-06
-9.33268e-08
8.17512e-06
-1.91633e-07
1.09082e-05
-2.0619e-07
1.66737e-05
2.51394e-07
2.16287e-05
1.17588e-06
1.77882e-05
1.83692e-06
6.75617e-06
1.90901e-06
-2.13342e-06
1.40225e-06
-1.54627e-06
5.60695e-06
-6.12476e-07
1.61622e-05
-5.43189e-08
2.07465e-05
1.91182e-08
1.6412e-05
-1.43845e-08
1.07578e-05
-6.98755e-08
8.09735e-06
-7.23332e-08
6.53322e-06
-4.40042e-08
6.356e-06
-8.17384e-10
6.21047e-06
4.23445e-08
6.21401e-06
7.05886e-08
6.36835e-06
6.80186e-08
6.57163e-06
1.35068e-08
8.1719e-06
-1.6903e-08
1.08327e-05
6.20145e-08
1.63696e-05
6.21421e-07
2.0539e-05
1.54966e-06
1.60107e-05
2.13789e-06
5.63058e-06
1.43225e-06
-2.42559e-06
9.94486e-07
-1.90281e-06
4.59425e-06
-9.79486e-07
1.44752e-05
-3.45564e-07
1.95388e-05
-1.70072e-07
1.60032e-05
-1.35118e-07
1.0604e-05
-1.44858e-07
8.04414e-06
-1.17829e-07
6.46709e-06
-6.56822e-08
6.27724e-06
-1.13766e-09
6.12396e-06
6.34287e-08
6.12747e-06
1.15594e-07
6.28945e-06
1.42699e-07
6.50544e-06
1.34203e-07
8.11756e-06
1.72449e-07
1.06753e-05
3.53224e-07
1.5949e-05
9.87585e-07
1.93331e-05
1.90505e-06
1.43411e-05
2.42951e-06
4.61704e-06
1.02291e-06
-2.7084e-06
6.50647e-07
-2.24783e-06
3.75338e-06
-1.34575e-06
1.29333e-05
-6.4739e-07
1.8289e-05
-3.75939e-07
1.54551e-05
-2.67944e-07
1.03695e-05
-2.27906e-07
7.93814e-06
-1.68418e-07
6.368e-06
-8.98239e-08
6.17313e-06
-1.43183e-09
6.01507e-06
8.70322e-08
6.01849e-06
1.65757e-07
6.18511e-06
2.2553e-07
6.40603e-06
2.67067e-07
8.01017e-06
3.784e-07
1.0438e-05
6.54699e-07
1.53992e-05
1.3529e-06
1.80881e-05
2.24891e-06
1.28133e-05
2.71166e-06
3.77618e-06
6.7757e-07
-2.98381e-06
3.65035e-07
-2.58227e-06
3.01166e-06
-1.70469e-06
1.14984e-05
-9.52626e-07
1.70203e-05
-5.91214e-07
1.48227e-05
-4.09838e-07
1.00589e-05
-3.17674e-07
7.77873e-06
-2.23463e-07
6.23452e-06
-1.16177e-07
6.04176e-06
-1.69382e-09
5.88182e-06
1.12912e-07
5.8851e-06
2.20448e-07
6.05339e-06
3.15171e-07
6.27196e-06
4.09083e-07
7.8491e-06
5.93827e-07
1.0125e-05
9.59396e-07
1.47674e-05
1.71069e-06
1.68259e-05
2.58206e-06
1.13912e-05
2.98631e-06
3.03396e-06
3.90445e-07
-3.25147e-06
-2.90569e-06
-2.05371e-06
-1.25534e-06
-8.11353e-07
-5.58295e-07
-4.12926e-07
-2.82381e-07
-1.44493e-07
-1.91868e-09
1.40829e-07
5.72565e-06
2.79086e-07
5.8928e-06
4.10387e-07
6.10243e-06
5.5776e-07
7.63402e-06
8.14157e-07
9.74116e-06
1.26152e-06
1.40633e-05
2.05841e-06
1.55617e-05
2.90397e-06
1.00728e-05
3.25313e-06
2.39471e-06
1.57061e-07
1.70565e-07
3.41154e-07
5.10297e-07
7.11249e-07
1.03586e-06
1.55777e-06
2.3952e-06
3.21531e-06
3.51348e-06
)
;

boundaryField
{
    fuel
    {
        type            calculated;
        value           nonuniform 0();
    }
    wall
    {
        type            calculated;
        value           nonuniform 0();
    }
    outlet
    {
        type            calculated;
        value           nonuniform List<scalar> 
25
(
6.40619e-07
9.29705e-07
1.21447e-06
1.49477e-06
1.77019e-06
2.04026e-06
2.30461e-06
2.56258e-06
2.8152e-06
3.06228e-06
3.30474e-06
5.47271e-08
3.50931e-07
6.4515e-07
9.34815e-07
1.22005e-06
1.50066e-06
1.77622e-06
2.04626e-06
2.31044e-06
2.56803e-06
2.82021e-06
3.06675e-06
3.30858e-06
3.54718e-06
)
;
    }
    frontAndBack
    {
        type            empty;
        value           nonuniform 0();
    }
    procBoundary0to1
    {
        type            processor;
        value           nonuniform List<scalar> 
21
(
1.33197e-07
2.37323e-06
1.01681e-05
1.57488e-05
1.41186e-05
9.67771e-06
7.56561e-06
6.06586e-06
5.88164e-06
5.72256e-06
2.10214e-09
5.5387e-06
5.70214e-06
5.89698e-06
7.36718e-06
9.29299e-06
1.32982e-05
1.43076e-05
8.85464e-06
1.85592e-06
-2.64598e-08
)
;
    }
    procBoundary0to2
    {
        type            processor;
        value           nonuniform List<scalar> 
12
(
-1.90193e-09
-6.69957e-06
-1.72352e-05
-2.76578e-05
-2.38977e-05
-1.57465e-05
-9.7006e-06
-7.31703e-06
-6.33985e-06
-6.42597e-06
-1.6079e-09
-6.40305e-06
)
;
    }
    procBoundary0to3
    {
        type            processor;
        value           nonuniform List<scalar> 10(-6.4154e-06 -6.40223e-06 -6.24978e-06 -7.02618e-06 -9.09283e-06 -1.45567e-05 -2.23155e-05 -2.84101e-05 -2.16401e-05 -9.53031e-06);
    }
}


// ************************************************************************* //
