/*--------------------------------*- C++ -*----------------------------------*\
| =========                 |                                                 |
| \\      /  F ield         | OpenFOAM: The Open Source CFD Toolbox           |
|  \\    /   O peration     | Version:  dev                                   |
|   \\  /    A nd           | Web:      www.OpenFOAM.org                      |
|    \\/     M anipulation  |                                                 |
\*---------------------------------------------------------------------------*/
FoamFile
{
    version     2.0;
    format      ascii;
    class       volScalarField;
    location    "0.01";
    object      T;
}
// * * * * * * * * * * * * * * * * * * * * * * * * * * * * * * * * * * * * * //

dimensions      [0 0 0 1 0 0 0];

internalField   nonuniform List<scalar> 
250
(
2123.11
2101.06
2035.72
1896.96
1683.96
1436.54
1171.06
927.664
816.829
830.911
2122.41
2099.89
2033.06
1890.44
1670.91
1418
1160.35
948.858
892.553
932.739
1030.65
975.623
979.328
1157.62
1404.97
1661.06
1885.24
2030.19
2097.54
2120.41
2120.5
2097.78
2030.56
1886.01
1662.64
1406.8
1159.34
980.659
973.961
1028.57
1118.57
1058.69
1019.79
1165.22
1400.98
1657.75
1882.95
2027.73
2094.3
2116.94
2117.02
2094.57
2028.11
1883.7
1659.39
1403.1
1167.36
1021.35
1056.89
1116.5
1197.47
1139.08
1067.5
1180.9
1404.33
1659.42
1882.64
2025.02
2090.22
2112.32
2112.42
2090.53
2025.44
1883.37
1661.1
1406.73
1183.46
1069.3
1137.28
1195.48
1266.84
1213.42
1121.12
1203.61
1414.54
1665.7
1883.97
2021.38
2084.36
2105.5
2105.61
2084.71
2021.85
1884.68
1667.37
1417.19
1206.6
1123.13
1211.75
1264.98
1326.46
1280.06
1178.61
1232.35
1430.85
1675.91
1886.35
2017.08
2076.41
2096.92
2097.04
2076.7
2017.57
1887.05
1677.54
1433.74
1235.74
1180.78
1278.64
1324.77
1376.35
1338.35
1237.52
1266.09
1452.26
1689.08
1889.06
2011.29
2066.73
2085.79
2085.93
2067.05
2011.85
1889.78
1690.63
1455.31
1269.83
1239.82
1337.23
1374.85
1416.64
1388.11
1294.49
1303.96
1477.48
1703.89
1891
2002.79
2054.23
2071.74
2071.89
2054.62
2003.45
1891.76
1705.38
1480.57
1307.92
1296.82
1387.3
1415.34
1447.73
1429.16
1354.87
1351.53
1505.45
1718.64
1890.99
1990.81
2038.47
2054.32
2054.48
2038.92
1991.58
1891.81
1720.05
1508.35
1356.08
1357.36
1428.64
1446.66
1469.39
1462.43
1403.85
1395.87
1535.28
1731.92
1888.15
1976.33
2018.94
2033.01
2033.2
2019.45
1977.21
1889.07
1733.27
1538.62
1400.38
1406.23
1462.17
1468.51
1481.98
1485.68
1446.36
1439.03
1564.02
1742.33
1881.55
1957.58
1995.03
2007.27
2007.47
1995.6
1958.58
1882.58
1743.64
1567.06
1443.34
1448.6
1485.58
1481.27
1485.64
1500.11
1480.97
1478.7
1589.92
1748.37
1869.87
1933.76
1966.1
1976.48
1976.7
1966.72
1934.89
1871.09
1749.67
1592.7
1482.69
1483.05
1500.09
1485.06
1940.22
1932.11
1905.31
1851.9
1749.81
1613.48
1516.02
1508.18
1505.31
1479.95
)
;

boundaryField
{
    fuel
    {
        type            fixedValue;
        value           nonuniform 0();
    }
    wall
    {
        type            fixedValue;
        value           nonuniform 0();
    }
    outlet
    {
        type            inletOutlet;
        inletValue      uniform 353;
        value           nonuniform List<scalar> 
25
(
1033
1120.93
1199.81
1269.13
1328.67
1378.44
1418.58
1449.52
1470.99
1483.38
1486.82
833.09
935.032
1030.92
1118.86
1197.82
1267.27
1326.98
1376.94
1417.29
1448.45
1470.11
1482.66
1486.24
1480.9
)
;
    }
    frontAndBack
    {
        type            empty;
    }
    procBoundary0to1
    {
        type            processor;
        value           nonuniform List<scalar> 
21
(
1480.42
1505.3
1506.35
1512.49
1610.95
1748.45
1850.49
1904.05
1931.43
1939.99
1939.99
1897.34
1891.01
1869
1827.22
1742.47
1627.18
1540.96
1522.61
1501.05
1465.98
)
;
    }
    procBoundary0to2
    {
        type            processor;
        value           nonuniform List<scalar> 
12
(
2123.01
934.777
893.999
947.725
1158.98
1416.44
1669.39
1889.66
2032.69
2099.67
2122.3
2122.3
)
;
    }
    procBoundary0to3
    {
        type            processor;
        value           nonuniform List<scalar> 10(2122.9 2101.54 2038.61 1905.35 1701.31 1461.92 1191.69 918.604 750.806 726.438);
    }
}


// ************************************************************************* //
