/*--------------------------------*- C++ -*----------------------------------*\
| =========                 |                                                 |
| \\      /  F ield         | OpenFOAM: The Open Source CFD Toolbox           |
|  \\    /   O peration     | Version:  dev                                   |
|   \\  /    A nd           | Web:      www.OpenFOAM.org                      |
|    \\/     M anipulation  |                                                 |
\*---------------------------------------------------------------------------*/
FoamFile
{
    version     2.0;
    format      ascii;
    class       volScalarField;
    location    "0.07";
    object      A1C2H3*;
}
// * * * * * * * * * * * * * * * * * * * * * * * * * * * * * * * * * * * * * //

dimensions      [0 0 0 0 0 0 0];

internalField   nonuniform List<scalar> 
1989
(
1.55883e-11
1.55909e-11
1.5592e-11
1.55938e-11
1.55941e-11
1.55953e-11
1.55954e-11
1.55961e-11
1.55961e-11
1.55965e-11
1.55965e-11
1.55967e-11
1.55967e-11
1.55968e-11
1.55968e-11
1.55967e-11
1.55967e-11
1.55965e-11
1.55965e-11
1.55961e-11
1.55961e-11
1.55954e-11
1.55953e-11
1.55941e-11
1.55938e-11
1.55919e-11
1.55909e-11
1.55884e-11
1.55853e-11
1.55803e-11
1.55726e-11
1.55658e-11
1.55497e-11
1.55369e-11
1.55078e-11
1.54742e-11
1.54275e-11
1.53487e-11
1.52853e-11
1.58672e-11
1.59398e-11
1.60312e-11
1.6084e-11
1.61213e-11
1.61546e-11
1.61685e-11
1.61871e-11
1.61944e-11
1.62034e-11
1.62085e-11
1.62122e-11
1.62151e-11
1.62162e-11
1.62183e-11
1.62186e-11
1.622e-11
1.622e-11
1.62209e-11
1.62208e-11
1.62213e-11
1.62212e-11
1.62215e-11
1.62214e-11
1.62215e-11
1.62215e-11
1.62214e-11
1.62215e-11
1.62212e-11
1.62213e-11
1.62208e-11
1.62209e-11
1.622e-11
1.622e-11
1.62186e-11
1.62183e-11
1.62162e-11
1.62151e-11
1.62124e-11
1.62089e-11
1.62032e-11
1.61944e-11
1.61871e-11
1.61686e-11
1.61547e-11
1.61214e-11
1.60841e-11
1.60314e-11
1.59398e-11
1.58673e-11
1.65505e-11
1.66328e-11
1.67374e-11
1.67965e-11
1.68372e-11
1.68749e-11
1.68897e-11
1.69107e-11
1.69185e-11
1.69286e-11
1.69343e-11
1.69384e-11
1.69416e-11
1.69427e-11
1.6945e-11
1.69453e-11
1.69469e-11
1.69468e-11
1.69478e-11
1.69477e-11
1.69483e-11
1.69481e-11
1.69484e-11
1.69484e-11
1.69485e-11
1.69485e-11
1.69484e-11
1.69484e-11
1.69481e-11
1.69483e-11
1.69477e-11
1.69478e-11
1.69468e-11
1.69469e-11
1.69453e-11
1.6945e-11
1.69427e-11
1.69416e-11
1.69385e-11
1.69347e-11
1.69284e-11
1.69185e-11
1.69108e-11
1.68898e-11
1.6875e-11
1.68373e-11
1.67966e-11
1.67376e-11
1.66328e-11
1.65506e-11
1.73482e-11
1.74413e-11
1.75598e-11
1.76261e-11
1.76692e-11
1.7712e-11
1.77276e-11
1.7751e-11
1.77593e-11
1.77706e-11
1.77767e-11
1.77813e-11
1.77847e-11
1.77859e-11
1.77884e-11
1.77886e-11
1.77903e-11
1.77902e-11
1.77913e-11
1.77911e-11
1.77918e-11
1.77916e-11
1.7792e-11
1.77919e-11
1.7792e-11
1.7792e-11
1.77919e-11
1.7792e-11
1.77916e-11
1.77918e-11
1.77911e-11
1.77913e-11
1.77902e-11
1.77903e-11
1.77886e-11
1.77884e-11
1.77858e-11
1.77847e-11
1.77813e-11
1.77772e-11
1.77703e-11
1.77593e-11
1.77512e-11
1.77277e-11
1.77121e-11
1.76694e-11
1.76262e-11
1.756e-11
1.74414e-11
1.73483e-11
1.8265e-11
1.83481e-11
1.84774e-11
1.85494e-11
1.8593e-11
1.86399e-11
1.86554e-11
1.86808e-11
1.8689e-11
1.87013e-11
1.87077e-11
1.87125e-11
1.87161e-11
1.87172e-11
1.87199e-11
1.87201e-11
1.87219e-11
1.87218e-11
1.87229e-11
1.87227e-11
1.87234e-11
1.87232e-11
1.87236e-11
1.87235e-11
1.87236e-11
1.87236e-11
1.87235e-11
1.87236e-11
1.87232e-11
1.87234e-11
1.87227e-11
1.8723e-11
1.87218e-11
1.87219e-11
1.87201e-11
1.87199e-11
1.87172e-11
1.87161e-11
1.87125e-11
1.87082e-11
1.8701e-11
1.86891e-11
1.8681e-11
1.86556e-11
1.864e-11
1.85932e-11
1.85495e-11
1.84775e-11
1.83482e-11
1.82652e-11
1.92613e-11
1.93562e-11
1.94975e-11
1.95773e-11
1.96219e-11
1.96728e-11
1.96884e-11
1.97156e-11
1.97238e-11
1.97368e-11
1.97436e-11
1.97486e-11
1.97523e-11
1.97534e-11
1.97563e-11
1.97564e-11
1.97583e-11
1.97581e-11
1.97594e-11
1.97591e-11
1.97598e-11
1.97596e-11
1.976e-11
1.97599e-11
1.976e-11
1.976e-11
1.97599e-11
1.976e-11
1.97596e-11
1.97598e-11
1.97591e-11
1.97594e-11
1.97581e-11
1.97583e-11
1.97564e-11
1.97562e-11
1.97534e-11
1.97523e-11
1.97486e-11
1.9744e-11
1.97367e-11
1.97238e-11
1.97158e-11
1.96885e-11
1.9673e-11
1.96221e-11
1.95773e-11
1.94976e-11
1.93564e-11
1.92615e-11
2.03432e-11
2.04465e-11
2.05878e-11
2.06701e-11
2.07118e-11
2.07634e-11
2.07772e-11
2.08047e-11
2.08119e-11
2.08251e-11
2.08317e-11
2.08366e-11
2.08402e-11
2.08411e-11
2.08439e-11
2.08439e-11
2.08459e-11
2.08456e-11
2.08469e-11
2.08465e-11
2.08473e-11
2.0847e-11
2.08475e-11
2.08473e-11
2.08475e-11
2.08475e-11
2.08473e-11
2.08475e-11
2.0847e-11
2.08473e-11
2.08465e-11
2.08469e-11
2.08456e-11
2.08459e-11
2.08439e-11
2.08439e-11
2.08411e-11
2.08401e-11
2.08365e-11
2.08321e-11
2.0825e-11
2.0812e-11
2.08048e-11
2.07773e-11
2.07636e-11
2.07121e-11
2.06701e-11
2.05879e-11
2.04467e-11
2.03434e-11
2.14963e-11
2.16056e-11
2.17409e-11
2.18233e-11
2.18608e-11
2.19108e-11
2.19221e-11
2.19488e-11
2.19547e-11
2.19676e-11
2.19739e-11
2.19784e-11
2.19817e-11
2.19824e-11
2.19851e-11
2.19849e-11
2.19868e-11
2.19864e-11
2.19877e-11
2.19873e-11
2.19881e-11
2.19878e-11
2.19882e-11
2.1988e-11
2.19882e-11
2.19882e-11
2.1988e-11
2.19882e-11
2.19878e-11
2.19881e-11
2.19873e-11
2.19877e-11
2.19865e-11
2.19868e-11
2.19849e-11
2.1985e-11
2.19823e-11
2.19816e-11
2.19782e-11
2.19741e-11
2.19676e-11
2.19549e-11
2.1949e-11
2.19222e-11
2.1911e-11
2.18611e-11
2.18233e-11
2.17409e-11
2.16058e-11
2.14965e-11
2.26816e-11
2.279e-11
2.291e-11
2.29866e-11
2.30165e-11
2.30613e-11
2.30687e-11
2.30927e-11
2.30966e-11
2.31082e-11
2.31137e-11
2.31175e-11
2.31202e-11
2.31206e-11
2.31229e-11
2.31227e-11
2.31243e-11
2.31239e-11
2.3125e-11
2.31246e-11
2.31253e-11
2.3125e-11
2.31254e-11
2.31252e-11
2.31254e-11
2.31254e-11
2.31252e-11
2.31254e-11
2.3125e-11
2.31253e-11
2.31246e-11
2.3125e-11
2.31239e-11
2.31243e-11
2.31226e-11
2.31229e-11
2.31206e-11
2.31201e-11
2.31172e-11
2.31137e-11
2.31083e-11
2.30968e-11
2.30929e-11
2.30688e-11
2.30615e-11
2.30169e-11
2.29866e-11
2.291e-11
2.27902e-11
2.26817e-11
2.38341e-11
2.39352e-11
2.40327e-11
2.40983e-11
2.41181e-11
2.41545e-11
2.41569e-11
2.41768e-11
2.41782e-11
2.41875e-11
2.4192e-11
2.41947e-11
2.41967e-11
2.41967e-11
2.41985e-11
2.4198e-11
2.41994e-11
2.41989e-11
2.41998e-11
2.41994e-11
2.42e-11
2.41997e-11
2.42001e-11
2.41999e-11
2.42e-11
2.42e-11
2.41999e-11
2.42001e-11
2.41997e-11
2.42e-11
2.41994e-11
2.41999e-11
2.41989e-11
2.41994e-11
2.4198e-11
2.41985e-11
2.41966e-11
2.41966e-11
2.41943e-11
2.41919e-11
2.41877e-11
2.41784e-11
2.4177e-11
2.41571e-11
2.41547e-11
2.41184e-11
2.40983e-11
2.40327e-11
2.39353e-11
2.38342e-11
2.48959e-11
2.49828e-11
2.50517e-11
2.5085e-11
2.50922e-11
2.51182e-11
2.51146e-11
2.5129e-11
2.51273e-11
2.5134e-11
2.51371e-11
2.51385e-11
2.51395e-11
2.5139e-11
2.51402e-11
2.51395e-11
2.51405e-11
2.51399e-11
2.51406e-11
2.51402e-11
2.51406e-11
2.51404e-11
2.51406e-11
2.51405e-11
2.51406e-11
2.51406e-11
2.51405e-11
2.51406e-11
2.51404e-11
2.51407e-11
2.51402e-11
2.51406e-11
2.51399e-11
2.51405e-11
2.51395e-11
2.51401e-11
2.51389e-11
2.51394e-11
2.5138e-11
2.51368e-11
2.51342e-11
2.51276e-11
2.51292e-11
2.51148e-11
2.51183e-11
2.50926e-11
2.50849e-11
2.50516e-11
2.4983e-11
2.48959e-11
2.57918e-11
2.58585e-11
2.58941e-11
2.5913e-11
2.59076e-11
2.59211e-11
2.59113e-11
2.59191e-11
2.59142e-11
2.59176e-11
2.5919e-11
2.5919e-11
2.59189e-11
2.59179e-11
2.59183e-11
2.59175e-11
2.5918e-11
2.59174e-11
2.59178e-11
2.59174e-11
2.59176e-11
2.59174e-11
2.59176e-11
2.59174e-11
2.59175e-11
2.59175e-11
2.59174e-11
2.59176e-11
2.59174e-11
2.59176e-11
2.59174e-11
2.59178e-11
2.59174e-11
2.5918e-11
2.59175e-11
2.59183e-11
2.59178e-11
2.59188e-11
2.59185e-11
2.59187e-11
2.59179e-11
2.59146e-11
2.59194e-11
2.59115e-11
2.59212e-11
2.59079e-11
2.5913e-11
2.5894e-11
2.58586e-11
2.57918e-11
2.64934e-11
2.65345e-11
2.65212e-11
2.65204e-11
2.64973e-11
2.64942e-11
2.64771e-11
2.64761e-11
2.64674e-11
2.64667e-11
2.64658e-11
2.64642e-11
2.64626e-11
2.6461e-11
2.64604e-11
2.64594e-11
2.64593e-11
2.64587e-11
2.64587e-11
2.64583e-11
2.64584e-11
2.64582e-11
2.64582e-11
2.64581e-11
2.64582e-11
2.64582e-11
2.64581e-11
2.64582e-11
2.64582e-11
2.64584e-11
2.64583e-11
2.64587e-11
2.64587e-11
2.64593e-11
2.64594e-11
2.64604e-11
2.64609e-11
2.64625e-11
2.64636e-11
2.64654e-11
2.6467e-11
2.64678e-11
2.64763e-11
2.64773e-11
2.64943e-11
2.64975e-11
2.65204e-11
2.65211e-11
2.65346e-11
2.64934e-11
2.69181e-11
2.69282e-11
2.68773e-11
2.68526e-11
2.68104e-11
2.67888e-11
2.67644e-11
2.67534e-11
2.67408e-11
2.67355e-11
2.67322e-11
2.67287e-11
2.67256e-11
2.67233e-11
2.67217e-11
2.67206e-11
2.67197e-11
2.67191e-11
2.67187e-11
2.67184e-11
2.67182e-11
2.67181e-11
2.6718e-11
2.67179e-11
2.67179e-11
2.67179e-11
2.67179e-11
2.6718e-11
2.6718e-11
2.67182e-11
2.67184e-11
2.67187e-11
2.67191e-11
2.67197e-11
2.67205e-11
2.67217e-11
2.67233e-11
2.67255e-11
2.67281e-11
2.67316e-11
2.67358e-11
2.67412e-11
2.67537e-11
2.67645e-11
2.67889e-11
2.68105e-11
2.68527e-11
2.68772e-11
2.69282e-11
2.69181e-11
2.70281e-11
2.70029e-11
2.69102e-11
2.68614e-11
2.68003e-11
2.67589e-11
2.67274e-11
2.67058e-11
2.66895e-11
2.66794e-11
2.66734e-11
2.6668e-11
2.66634e-11
2.66605e-11
2.66578e-11
2.66565e-11
2.6655e-11
2.66544e-11
2.66535e-11
2.66533e-11
2.66528e-11
2.66527e-11
2.66525e-11
2.66525e-11
2.66524e-11
2.66524e-11
2.66525e-11
2.66525e-11
2.66527e-11
2.66528e-11
2.66533e-11
2.66535e-11
2.66544e-11
2.66549e-11
2.66565e-11
2.66578e-11
2.66605e-11
2.66632e-11
2.66675e-11
2.66728e-11
2.66797e-11
2.66899e-11
2.6706e-11
2.67276e-11
2.6759e-11
2.68001e-11
2.68616e-11
2.69102e-11
2.70028e-11
2.7028e-11
2.67825e-11
2.67199e-11
2.65854e-11
2.65105e-11
2.64321e-11
2.63704e-11
2.63328e-11
2.63003e-11
2.62806e-11
2.62657e-11
2.62572e-11
2.625e-11
2.62437e-11
2.62404e-11
2.62365e-11
2.62351e-11
2.62328e-11
2.62323e-11
2.6231e-11
2.62309e-11
2.62301e-11
2.62301e-11
2.62297e-11
2.62297e-11
2.62296e-11
2.62296e-11
2.62297e-11
2.62297e-11
2.62301e-11
2.62301e-11
2.62308e-11
2.6231e-11
2.62323e-11
2.62328e-11
2.62351e-11
2.62365e-11
2.62404e-11
2.62436e-11
2.62494e-11
2.62564e-11
2.62659e-11
2.6281e-11
2.63005e-11
2.63329e-11
2.63704e-11
2.64319e-11
2.65107e-11
2.65853e-11
2.67197e-11
2.67824e-11
2.6155e-11
2.6055e-11
2.58812e-11
2.57798e-11
2.56865e-11
2.56051e-11
2.55626e-11
2.55196e-11
2.54973e-11
2.54777e-11
2.54668e-11
2.54578e-11
2.54502e-11
2.54464e-11
2.54415e-11
2.54401e-11
2.54371e-11
2.54367e-11
2.54349e-11
2.54349e-11
2.54338e-11
2.54339e-11
2.54334e-11
2.54334e-11
2.54333e-11
2.54333e-11
2.54334e-11
2.54333e-11
2.54339e-11
2.54338e-11
2.54348e-11
2.54348e-11
2.54366e-11
2.54371e-11
2.54401e-11
2.54415e-11
2.54464e-11
2.545e-11
2.54573e-11
2.54659e-11
2.54779e-11
2.54976e-11
2.55198e-11
2.55627e-11
2.56051e-11
2.56862e-11
2.578e-11
2.58811e-11
2.60547e-11
2.61548e-11
2.51376e-11
2.50022e-11
2.47937e-11
2.46675e-11
2.45624e-11
2.44631e-11
2.44172e-11
2.43647e-11
2.43404e-11
2.43167e-11
2.43036e-11
2.42933e-11
2.42843e-11
2.42803e-11
2.42745e-11
2.42731e-11
2.42694e-11
2.42691e-11
2.42669e-11
2.4267e-11
2.42657e-11
2.42659e-11
2.42652e-11
2.42654e-11
2.42651e-11
2.42651e-11
2.42654e-11
2.42652e-11
2.42659e-11
2.42657e-11
2.4267e-11
2.42669e-11
2.42691e-11
2.42694e-11
2.42731e-11
2.42745e-11
2.42803e-11
2.42842e-11
2.42928e-11
2.43028e-11
2.43169e-11
2.43407e-11
2.43649e-11
2.44173e-11
2.44631e-11
2.4562e-11
2.46677e-11
2.47936e-11
2.50019e-11
2.51374e-11
2.37381e-11
2.35678e-11
2.33281e-11
2.31788e-11
2.30642e-11
2.29489e-11
2.29007e-11
2.28398e-11
2.28142e-11
2.27869e-11
2.27718e-11
2.27601e-11
2.27502e-11
2.2746e-11
2.27394e-11
2.2738e-11
2.27338e-11
2.27336e-11
2.27311e-11
2.27313e-11
2.27298e-11
2.273e-11
2.27292e-11
2.27294e-11
2.27292e-11
2.27292e-11
2.27294e-11
2.27292e-11
2.273e-11
2.27297e-11
2.27312e-11
2.2731e-11
2.27336e-11
2.27338e-11
2.2738e-11
2.27394e-11
2.2746e-11
2.27501e-11
2.27597e-11
2.27709e-11
2.27871e-11
2.28144e-11
2.28399e-11
2.29007e-11
2.29488e-11
2.30638e-11
2.31789e-11
2.33281e-11
2.35675e-11
2.37379e-11
2.19977e-11
2.18002e-11
2.15408e-11
2.13748e-11
2.12561e-11
2.11292e-11
2.10809e-11
2.1014e-11
2.09883e-11
2.09586e-11
2.0942e-11
2.09295e-11
2.0919e-11
2.09147e-11
2.09077e-11
2.09064e-11
2.09018e-11
2.09017e-11
2.08989e-11
2.08993e-11
2.08976e-11
2.0898e-11
2.08971e-11
2.08973e-11
2.0897e-11
2.0897e-11
2.08973e-11
2.0897e-11
2.08979e-11
2.08975e-11
2.08992e-11
2.08989e-11
2.09017e-11
2.09018e-11
2.09063e-11
2.09077e-11
2.09147e-11
2.09189e-11
2.09291e-11
2.09412e-11
2.09587e-11
2.09885e-11
2.10141e-11
2.1081e-11
2.1129e-11
2.12557e-11
2.13748e-11
2.15407e-11
2.17999e-11
2.19974e-11
1.99678e-11
1.97496e-11
1.94806e-11
1.93045e-11
1.91863e-11
1.90523e-11
1.90055e-11
1.89349e-11
1.89101e-11
1.8879e-11
1.88614e-11
1.88485e-11
1.88378e-11
1.88337e-11
1.88264e-11
1.88252e-11
1.88205e-11
1.88205e-11
1.88176e-11
1.8818e-11
1.88162e-11
1.88166e-11
1.88157e-11
1.8816e-11
1.88156e-11
1.88156e-11
1.8816e-11
1.88157e-11
1.88166e-11
1.88162e-11
1.88179e-11
1.88175e-11
1.88205e-11
1.88204e-11
1.88252e-11
1.88264e-11
1.88337e-11
1.88378e-11
1.88482e-11
1.88607e-11
1.8879e-11
1.89102e-11
1.8935e-11
1.90055e-11
1.90518e-11
1.91859e-11
1.93045e-11
1.94805e-11
1.97493e-11
1.99676e-11
1.77228e-11
1.74913e-11
1.72238e-11
1.70417e-11
1.6926e-11
1.67877e-11
1.67422e-11
1.66694e-11
1.6646e-11
1.66141e-11
1.65957e-11
1.65827e-11
1.65721e-11
1.65681e-11
1.65607e-11
1.65597e-11
1.65549e-11
1.65551e-11
1.6552e-11
1.65525e-11
1.65507e-11
1.65512e-11
1.65502e-11
1.65505e-11
1.65502e-11
1.65502e-11
1.65505e-11
1.65502e-11
1.65512e-11
1.65507e-11
1.65525e-11
1.6552e-11
1.6555e-11
1.65549e-11
1.65597e-11
1.65607e-11
1.65681e-11
1.65721e-11
1.65825e-11
1.65951e-11
1.66141e-11
1.66461e-11
1.66695e-11
1.67422e-11
1.67866e-11
1.69256e-11
1.70416e-11
1.72237e-11
1.74909e-11
1.77225e-11
1.53495e-11
1.51183e-11
1.48621e-11
1.46839e-11
1.4577e-11
1.44436e-11
1.43991e-11
1.4328e-11
1.43071e-11
1.42761e-11
1.42577e-11
1.42451e-11
1.42351e-11
1.42315e-11
1.42244e-11
1.42236e-11
1.4219e-11
1.42192e-11
1.42163e-11
1.42168e-11
1.4215e-11
1.42155e-11
1.42146e-11
1.42149e-11
1.42145e-11
1.42145e-11
1.42149e-11
1.42146e-11
1.42155e-11
1.4215e-11
1.42167e-11
1.42162e-11
1.42191e-11
1.42189e-11
1.42236e-11
1.42244e-11
1.42315e-11
1.42351e-11
1.42449e-11
1.42571e-11
1.42761e-11
1.43071e-11
1.43281e-11
1.43991e-11
1.44419e-11
1.45767e-11
1.46838e-11
1.4862e-11
1.51179e-11
1.53492e-11
1.29479e-11
1.27223e-11
1.24804e-11
1.23103e-11
1.22138e-11
1.20919e-11
1.20653e-11
1.19985e-11
1.19805e-11
1.19517e-11
1.19336e-11
1.19218e-11
1.19128e-11
1.19096e-11
1.19031e-11
1.19025e-11
1.18982e-11
1.18984e-11
1.18957e-11
1.18962e-11
1.18946e-11
1.18951e-11
1.18942e-11
1.18945e-11
1.18942e-11
1.18942e-11
1.18945e-11
1.18942e-11
1.18951e-11
1.18946e-11
1.18962e-11
1.18957e-11
1.18984e-11
1.18981e-11
1.19025e-11
1.19031e-11
1.19097e-11
1.19128e-11
1.19217e-11
1.19331e-11
1.19516e-11
1.19806e-11
1.19985e-11
1.20653e-11
1.20936e-11
1.22136e-11
1.23102e-11
1.24803e-11
1.27219e-11
1.29477e-11
1.06237e-11
1.0418e-11
1.02029e-11
1.00497e-11
9.96747e-12
9.8602e-12
9.83614e-12
9.77579e-12
9.76114e-12
9.73529e-12
9.7177e-12
9.7072e-12
9.69937e-12
9.6967e-12
9.69091e-12
9.69043e-12
9.68661e-12
9.68692e-12
9.68448e-12
9.68498e-12
9.68353e-12
9.68397e-12
9.68318e-12
9.68344e-12
9.68317e-12
9.68317e-12
9.68344e-12
9.68317e-12
9.68395e-12
9.68348e-12
9.68494e-12
9.68444e-12
9.68686e-12
9.68656e-12
9.69043e-12
9.69092e-12
9.69673e-12
9.69937e-12
9.70713e-12
9.71734e-12
9.73523e-12
9.76114e-12
9.77578e-12
9.83611e-12
9.86136e-12
9.96732e-12
1.00496e-11
1.02028e-11
1.04177e-11
1.06235e-11
8.4675e-12
8.28733e-12
8.10318e-12
7.96622e-12
7.89723e-12
7.80358e-12
7.78344e-12
7.73008e-12
7.71836e-12
7.69569e-12
7.67792e-12
7.66878e-12
7.66211e-12
7.65989e-12
7.6549e-12
7.65455e-12
7.65123e-12
7.65154e-12
7.64942e-12
7.64988e-12
7.64862e-12
7.64901e-12
7.64833e-12
7.64856e-12
7.64832e-12
7.64832e-12
7.64856e-12
7.64832e-12
7.649e-12
7.64858e-12
7.64984e-12
7.64938e-12
7.65149e-12
7.65119e-12
7.65454e-12
7.65491e-12
7.65992e-12
7.66212e-12
7.66874e-12
7.67765e-12
7.69562e-12
7.71834e-12
7.73006e-12
7.78341e-12
7.80406e-12
7.89712e-12
7.96612e-12
8.1031e-12
8.28705e-12
8.46734e-12
6.52513e-12
6.37199e-12
6.22053e-12
6.1072e-12
6.05249e-12
5.97574e-12
5.96007e-12
5.91601e-12
5.90713e-12
5.88866e-12
5.87054e-12
5.86302e-12
5.85772e-12
5.85594e-12
5.8519e-12
5.85164e-12
5.84895e-12
5.84922e-12
5.84749e-12
5.84788e-12
5.84685e-12
5.84718e-12
5.84662e-12
5.84681e-12
5.84662e-12
5.84662e-12
5.84681e-12
5.84662e-12
5.84717e-12
5.84682e-12
5.84785e-12
5.84747e-12
5.84918e-12
5.84892e-12
5.85164e-12
5.85191e-12
5.85596e-12
5.85773e-12
5.86299e-12
5.87034e-12
5.8886e-12
5.90711e-12
5.91599e-12
5.96004e-12
5.97588e-12
6.05242e-12
6.10712e-12
6.22046e-12
6.37173e-12
6.52503e-12
4.85582e-12
4.73303e-12
4.61441e-12
4.52537e-12
4.48369e-12
4.42344e-12
4.41187e-12
4.3771e-12
4.37066e-12
4.35652e-12
4.35721e-12
4.35134e-12
4.34724e-12
4.34589e-12
4.34273e-12
4.34256e-12
4.34044e-12
4.34067e-12
4.33931e-12
4.33963e-12
4.33882e-12
4.33908e-12
4.33864e-12
4.3388e-12
4.33864e-12
4.33864e-12
4.3388e-12
4.33864e-12
4.33908e-12
4.33879e-12
4.3396e-12
4.33929e-12
4.34064e-12
4.34042e-12
4.34255e-12
4.34274e-12
4.34591e-12
4.34725e-12
4.35133e-12
4.35707e-12
4.35646e-12
4.37064e-12
4.37708e-12
4.41184e-12
4.42345e-12
4.48365e-12
4.52531e-12
4.61434e-12
4.73281e-12
4.85577e-12
3.49586e-12
3.40147e-12
3.31196e-12
3.24349e-12
3.21329e-12
3.16706e-12
3.15934e-12
3.13251e-12
3.12823e-12
3.11767e-12
3.11787e-12
3.11347e-12
3.11043e-12
3.10944e-12
3.10706e-12
3.10695e-12
3.10536e-12
3.10555e-12
3.10452e-12
3.10477e-12
3.10416e-12
3.10436e-12
3.10403e-12
3.10415e-12
3.10403e-12
3.10403e-12
3.10415e-12
3.10403e-12
3.10436e-12
3.10414e-12
3.10475e-12
3.10451e-12
3.10552e-12
3.10534e-12
3.10695e-12
3.10707e-12
3.10945e-12
3.11044e-12
3.11348e-12
3.11776e-12
3.11763e-12
3.12821e-12
3.13249e-12
3.15931e-12
3.16704e-12
3.21326e-12
3.24344e-12
3.31191e-12
3.40135e-12
3.49578e-12
2.41273e-12
2.34333e-12
2.27862e-12
2.22829e-12
2.20743e-12
2.17353e-12
2.16874e-12
2.14894e-12
2.1463e-12
2.13874e-12
2.13875e-12
2.13562e-12
2.13346e-12
2.13276e-12
2.13106e-12
2.13099e-12
2.12985e-12
2.12999e-12
2.12925e-12
2.12944e-12
2.129e-12
2.12915e-12
2.12891e-12
2.12899e-12
2.12891e-12
2.12891e-12
2.12899e-12
2.12891e-12
2.12914e-12
2.12898e-12
2.12942e-12
2.12924e-12
2.12997e-12
2.12983e-12
2.13099e-12
2.13106e-12
2.13277e-12
2.13347e-12
2.13563e-12
2.13868e-12
2.13871e-12
2.14628e-12
2.14892e-12
2.16872e-12
2.17351e-12
2.20741e-12
2.22825e-12
2.27858e-12
2.34327e-12
2.41264e-12
1.58621e-12
1.53779e-12
1.49337e-12
1.45827e-12
1.44466e-12
1.42109e-12
1.41838e-12
1.4045e-12
1.40302e-12
1.39787e-12
1.39783e-12
1.39571e-12
1.39425e-12
1.39379e-12
1.39263e-12
1.3926e-12
1.39182e-12
1.39192e-12
1.39142e-12
1.39154e-12
1.39124e-12
1.39135e-12
1.39118e-12
1.39124e-12
1.39119e-12
1.39119e-12
1.39124e-12
1.39118e-12
1.39135e-12
1.39123e-12
1.39153e-12
1.39141e-12
1.39191e-12
1.39181e-12
1.3926e-12
1.39263e-12
1.3938e-12
1.39426e-12
1.39572e-12
1.39778e-12
1.39785e-12
1.40301e-12
1.40449e-12
1.41836e-12
1.42107e-12
1.44465e-12
1.45824e-12
1.49334e-12
1.53777e-12
1.58612e-12
9.84888e-13
9.53412e-13
9.24414e-13
9.01687e-13
8.93273e-13
8.78098e-13
8.7662e-13
8.67613e-13
8.66829e-13
8.63545e-13
8.63486e-13
8.6214e-13
8.6123e-13
8.60931e-13
8.60202e-13
8.60179e-13
8.59687e-13
8.59752e-13
8.59434e-13
8.59514e-13
8.59326e-13
8.59391e-13
8.59288e-13
8.59325e-13
8.59289e-13
8.59289e-13
8.59325e-13
8.59287e-13
8.59389e-13
8.59319e-13
8.59508e-13
8.59428e-13
8.59743e-13
8.5968e-13
8.60179e-13
8.60204e-13
8.60936e-13
8.61235e-13
8.62147e-13
8.63459e-13
8.63529e-13
8.66817e-13
8.67604e-13
8.76611e-13
8.78085e-13
8.93265e-13
9.01671e-13
9.24398e-13
9.53413e-13
9.84823e-13
5.76972e-13
5.58083e-13
5.43217e-13
5.29412e-13
5.24604e-13
5.15415e-13
5.14731e-13
5.09226e-13
5.08873e-13
5.06901e-13
5.06856e-13
5.06058e-13
5.05523e-13
5.05343e-13
5.04913e-13
5.049e-13
5.04608e-13
5.04647e-13
5.04459e-13
5.04506e-13
5.04395e-13
5.04434e-13
5.04372e-13
5.04395e-13
5.04374e-13
5.04373e-13
5.04395e-13
5.04372e-13
5.04433e-13
5.04391e-13
5.04503e-13
5.04455e-13
5.04642e-13
5.04604e-13
5.04899e-13
5.04914e-13
5.05346e-13
5.05526e-13
5.06062e-13
5.06842e-13
5.06891e-13
5.08865e-13
5.09219e-13
5.14725e-13
5.15408e-13
5.24599e-13
5.29402e-13
5.43207e-13
5.58089e-13
5.76927e-13
3.23497e-13
3.12813e-13
3.04548e-13
2.96609e-13
2.9399e-13
2.88747e-13
2.88449e-13
2.85284e-13
2.85139e-13
2.84022e-13
2.83993e-13
2.83543e-13
2.83246e-13
2.83143e-13
2.82904e-13
2.82895e-13
2.82733e-13
2.82754e-13
2.82649e-13
2.82675e-13
2.82613e-13
2.82635e-13
2.826e-13
2.82613e-13
2.82601e-13
2.82601e-13
2.82613e-13
2.826e-13
2.82634e-13
2.82611e-13
2.82673e-13
2.82647e-13
2.82751e-13
2.8273e-13
2.82895e-13
2.82905e-13
2.83145e-13
2.83248e-13
2.83545e-13
2.83985e-13
2.84016e-13
2.85135e-13
2.8528e-13
2.88446e-13
2.88743e-13
2.93986e-13
2.96603e-13
3.04542e-13
3.12819e-13
3.2347e-13
1.76504e-13
1.70786e-13
1.6645e-13
1.62191e-13
1.60839e-13
1.58038e-13
1.57914e-13
1.56209e-13
1.56155e-13
1.55557e-13
1.5554e-13
1.553e-13
1.55145e-13
1.55089e-13
1.54963e-13
1.54958e-13
1.54872e-13
1.54883e-13
1.54828e-13
1.54841e-13
1.54809e-13
1.5482e-13
1.54802e-13
1.54808e-13
1.54802e-13
1.54802e-13
1.54808e-13
1.54802e-13
1.54819e-13
1.54807e-13
1.5484e-13
1.54827e-13
1.54881e-13
1.54871e-13
1.54957e-13
1.54964e-13
1.55089e-13
1.55146e-13
1.55301e-13
1.55536e-13
1.55554e-13
1.56152e-13
1.56207e-13
1.57912e-13
1.58036e-13
1.60837e-13
1.62188e-13
1.66448e-13
1.7079e-13
1.76489e-13
9.78855e-14
9.48817e-14
9.26433e-14
9.04141e-14
8.97093e-14
8.82504e-14
8.81864e-14
8.72933e-14
8.72684e-14
8.6956e-14
8.69446e-14
8.6818e-14
8.67383e-14
8.6707e-14
8.66426e-14
8.66383e-14
8.65945e-14
8.65992e-14
8.65708e-14
8.65774e-14
8.65606e-14
8.65662e-14
8.65569e-14
8.65602e-14
8.6557e-14
8.65569e-14
8.65602e-14
8.65569e-14
8.6566e-14
8.656e-14
8.65768e-14
8.65703e-14
8.65983e-14
8.65938e-14
8.66383e-14
8.66427e-14
8.67075e-14
8.67389e-14
8.68188e-14
8.69427e-14
8.69544e-14
8.72671e-14
8.72923e-14
8.81854e-14
8.82492e-14
8.9708e-14
9.04124e-14
9.26418e-14
9.48838e-14
9.78772e-14
5.93373e-14
5.76686e-14
5.64461e-14
5.52335e-14
5.48256e-14
5.40387e-14
5.39859e-14
5.35034e-14
5.34836e-14
5.33137e-14
5.33042e-14
5.32336e-14
5.31898e-14
5.31711e-14
5.3136e-14
5.31327e-14
5.31088e-14
5.31108e-14
5.30953e-14
5.30986e-14
5.30894e-14
5.30924e-14
5.30873e-14
5.3089e-14
5.30872e-14
5.30872e-14
5.30891e-14
5.30873e-14
5.30923e-14
5.30891e-14
5.30983e-14
5.3095e-14
5.31103e-14
5.31084e-14
5.31326e-14
5.31361e-14
5.31714e-14
5.31901e-14
5.3234e-14
5.33033e-14
5.33128e-14
5.34828e-14
5.35028e-14
5.39854e-14
5.4038e-14
5.48249e-14
5.52325e-14
5.64453e-14
5.76695e-14
5.93327e-14
4.24274e-14
4.13339e-14
4.05598e-14
3.98084e-14
3.95181e-14
3.90389e-14
3.8979e-14
3.86861e-14
3.86634e-14
3.85589e-14
3.85489e-14
3.8503e-14
3.84748e-14
3.84615e-14
3.84393e-14
3.84362e-14
3.84212e-14
3.84218e-14
3.84121e-14
3.84139e-14
3.8408e-14
3.84098e-14
3.84065e-14
3.84076e-14
3.84064e-14
3.84064e-14
3.84076e-14
3.84065e-14
3.84097e-14
3.84078e-14
3.84137e-14
3.84119e-14
3.84215e-14
3.84209e-14
3.84362e-14
3.84394e-14
3.84617e-14
3.8475e-14
3.85032e-14
3.85483e-14
3.85583e-14
3.86629e-14
3.86858e-14
3.89787e-14
3.90385e-14
3.95176e-14
3.98078e-14
4.05592e-14
4.1334e-14
4.24247e-14
3.61853e-14
3.52895e-14
3.46981e-14
3.41346e-14
3.38799e-14
3.35297e-14
3.34577e-14
3.32449e-14
3.32177e-14
3.31404e-14
3.31288e-14
3.30924e-14
3.30704e-14
3.30588e-14
3.30418e-14
3.30384e-14
3.30269e-14
3.30269e-14
3.30194e-14
3.30205e-14
3.3016e-14
3.30173e-14
3.30147e-14
3.30155e-14
3.30146e-14
3.30146e-14
3.30155e-14
3.30147e-14
3.30172e-14
3.30158e-14
3.30204e-14
3.30192e-14
3.30266e-14
3.30267e-14
3.30384e-14
3.30418e-14
3.30589e-14
3.30706e-14
3.30926e-14
3.31284e-14
3.314e-14
3.32173e-14
3.32446e-14
3.34575e-14
3.35294e-14
3.38795e-14
3.41341e-14
3.46976e-14
3.5289e-14
3.61833e-14
3.45664e-14
3.36773e-14
3.31707e-14
3.2672e-14
3.24225e-14
3.21193e-14
3.20378e-14
3.18543e-14
3.18238e-14
3.17563e-14
3.17433e-14
3.17097e-14
3.16897e-14
3.16784e-14
3.16631e-14
3.16594e-14
3.16491e-14
3.16487e-14
3.1642e-14
3.16429e-14
3.16388e-14
3.16399e-14
3.16375e-14
3.16382e-14
3.16373e-14
3.16373e-14
3.16383e-14
3.16375e-14
3.16398e-14
3.16386e-14
3.16427e-14
3.16418e-14
3.16485e-14
3.16489e-14
3.16593e-14
3.16631e-14
3.16785e-14
3.16898e-14
3.17099e-14
3.1743e-14
3.17559e-14
3.18234e-14
3.18541e-14
3.20376e-14
3.21191e-14
3.24222e-14
3.26716e-14
3.31702e-14
3.36766e-14
3.45646e-14
)
;

boundaryField
{
    fuel
    {
        type            fixedValue;
        value           nonuniform 0();
    }
    wall
    {
        type            zeroGradient;
    }
    outlet
    {
        type            zeroGradient;
    }
    frontAndBack
    {
        type            empty;
    }
    procBoundary3to2
    {
        type            processor;
        value           nonuniform List<scalar> 
51
(
1.50594e-11
1.50617e-11
1.50627e-11
1.50643e-11
1.50647e-11
1.50657e-11
1.50658e-11
1.50665e-11
1.50664e-11
1.50668e-11
1.50668e-11
1.5067e-11
1.5067e-11
1.50671e-11
1.50671e-11
1.5067e-11
1.5067e-11
1.50668e-11
1.50668e-11
1.50664e-11
1.50665e-11
1.50658e-11
1.50657e-11
1.50647e-11
1.50643e-11
1.50627e-11
1.50617e-11
1.50595e-11
1.50567e-11
1.50523e-11
1.50456e-11
1.50395e-11
1.50255e-11
1.50139e-11
1.49886e-11
1.49588e-11
1.49176e-11
1.48503e-11
1.47953e-11
1.52853e-11
1.53487e-11
1.54274e-11
1.54742e-11
1.55077e-11
1.55368e-11
1.55496e-11
1.55658e-11
1.55726e-11
1.55804e-11
1.5585e-11
1.5585e-11
)
;
    }
}


// ************************************************************************* //
