/*--------------------------------*- C++ -*----------------------------------*\
| =========                 |                                                 |
| \\      /  F ield         | OpenFOAM: The Open Source CFD Toolbox           |
|  \\    /   O peration     | Version:  dev                                   |
|   \\  /    A nd           | Web:      www.OpenFOAM.org                      |
|    \\/     M anipulation  |                                                 |
\*---------------------------------------------------------------------------*/
FoamFile
{
    version     2.0;
    format      ascii;
    class       volScalarField;
    location    "0.07";
    object      A2R5-;
}
// * * * * * * * * * * * * * * * * * * * * * * * * * * * * * * * * * * * * * //

dimensions      [0 0 0 0 0 0 0];

internalField   nonuniform List<scalar> 
1989
(
5.27282e-10
5.26978e-10
5.26844e-10
5.26653e-10
5.26608e-10
5.26489e-10
5.26482e-10
5.26409e-10
5.26415e-10
5.26371e-10
5.2638e-10
5.26357e-10
5.26362e-10
5.26355e-10
5.26355e-10
5.26362e-10
5.26357e-10
5.2638e-10
5.26371e-10
5.26414e-10
5.26408e-10
5.26481e-10
5.26489e-10
5.26609e-10
5.26654e-10
5.26846e-10
5.26976e-10
5.27263e-10
5.27604e-10
5.28124e-10
5.28915e-10
5.29812e-10
5.31512e-10
5.33187e-10
5.36461e-10
5.40183e-10
5.44647e-10
5.51864e-10
5.56297e-10
5.08105e-10
5.03808e-10
4.96978e-10
4.928e-10
4.89304e-10
4.86266e-10
4.8472e-10
4.83127e-10
4.82299e-10
4.81567e-10
4.81104e-10
4.8079e-10
4.80508e-10
4.80385e-10
4.80207e-10
4.80166e-10
4.80055e-10
4.80049e-10
4.7998e-10
4.79987e-10
4.79946e-10
4.79954e-10
4.79932e-10
4.79938e-10
4.7993e-10
4.7993e-10
4.79938e-10
4.79932e-10
4.79954e-10
4.79945e-10
4.79986e-10
4.79979e-10
4.80048e-10
4.80054e-10
4.80166e-10
4.80208e-10
4.80386e-10
4.80505e-10
4.80772e-10
4.81088e-10
4.81574e-10
4.82311e-10
4.83136e-10
4.84724e-10
4.86269e-10
4.89303e-10
4.92799e-10
4.96973e-10
5.03806e-10
5.08102e-10
4.62763e-10
4.58608e-10
4.52156e-10
4.48278e-10
4.44998e-10
4.422e-10
4.40782e-10
4.39299e-10
4.38541e-10
4.37859e-10
4.37432e-10
4.3714e-10
4.36879e-10
4.36767e-10
4.36601e-10
4.36565e-10
4.36461e-10
4.36457e-10
4.36393e-10
4.36399e-10
4.36361e-10
4.36369e-10
4.36349e-10
4.36354e-10
4.36347e-10
4.36347e-10
4.36354e-10
4.36349e-10
4.36369e-10
4.3636e-10
4.36398e-10
4.36392e-10
4.36456e-10
4.36461e-10
4.36565e-10
4.36602e-10
4.36768e-10
4.36877e-10
4.37122e-10
4.37415e-10
4.37867e-10
4.38552e-10
4.39307e-10
4.40786e-10
4.42203e-10
4.44997e-10
4.48277e-10
4.5215e-10
4.58606e-10
4.62759e-10
4.19845e-10
4.15782e-10
4.09652e-10
4.06035e-10
4.02984e-10
4.00382e-10
3.99079e-10
3.97696e-10
3.97001e-10
3.96364e-10
3.9597e-10
3.95698e-10
3.95457e-10
3.95354e-10
3.95201e-10
3.95168e-10
3.95072e-10
3.95068e-10
3.95008e-10
3.95015e-10
3.94979e-10
3.94987e-10
3.94968e-10
3.94973e-10
3.94967e-10
3.94967e-10
3.94973e-10
3.94968e-10
3.94987e-10
3.94979e-10
3.95014e-10
3.95008e-10
3.95067e-10
3.95071e-10
3.95168e-10
3.95202e-10
3.95355e-10
3.95455e-10
3.95681e-10
3.95952e-10
3.96374e-10
3.97011e-10
3.97702e-10
3.99082e-10
4.00384e-10
4.02983e-10
4.06033e-10
4.09646e-10
4.15778e-10
4.19841e-10
3.79204e-10
3.76168e-10
3.70395e-10
3.67064e-10
3.64284e-10
3.61872e-10
3.60689e-10
3.5941e-10
3.5878e-10
3.58191e-10
3.5783e-10
3.57579e-10
3.57358e-10
3.57265e-10
3.57124e-10
3.57095e-10
3.57006e-10
3.57003e-10
3.56948e-10
3.56954e-10
3.56921e-10
3.56929e-10
3.56911e-10
3.56916e-10
3.5691e-10
3.5691e-10
3.56916e-10
3.56911e-10
3.56929e-10
3.56921e-10
3.56953e-10
3.56947e-10
3.57002e-10
3.57005e-10
3.57095e-10
3.57124e-10
3.57266e-10
3.57357e-10
3.57563e-10
3.57811e-10
3.58202e-10
3.58789e-10
3.59415e-10
3.60692e-10
3.61873e-10
3.64283e-10
3.67062e-10
3.7039e-10
3.76164e-10
3.79201e-10
3.4214e-10
3.39211e-10
3.33612e-10
3.30437e-10
3.27855e-10
3.25578e-10
3.24485e-10
3.23287e-10
3.22707e-10
3.22154e-10
3.2182e-10
3.21585e-10
3.21381e-10
3.21296e-10
3.21164e-10
3.21137e-10
3.21054e-10
3.21052e-10
3.21001e-10
3.21007e-10
3.20976e-10
3.20983e-10
3.20967e-10
3.20971e-10
3.20966e-10
3.20966e-10
3.20971e-10
3.20967e-10
3.20983e-10
3.20975e-10
3.21006e-10
3.21e-10
3.21051e-10
3.21054e-10
3.21137e-10
3.21164e-10
3.21296e-10
3.2138e-10
3.21572e-10
3.21801e-10
3.22166e-10
3.22715e-10
3.23291e-10
3.24487e-10
3.25579e-10
3.27854e-10
3.30435e-10
3.33607e-10
3.39206e-10
3.42136e-10
3.07702e-10
3.04925e-10
2.9972e-10
2.96774e-10
2.94443e-10
2.9234e-10
2.91356e-10
2.90252e-10
2.89732e-10
2.89222e-10
2.88919e-10
2.88702e-10
2.88518e-10
2.88441e-10
2.8832e-10
2.88297e-10
2.8822e-10
2.88219e-10
2.88171e-10
2.88177e-10
2.88149e-10
2.88156e-10
2.88141e-10
2.88145e-10
2.8814e-10
2.8814e-10
2.88145e-10
2.8814e-10
2.88156e-10
2.88148e-10
2.88177e-10
2.88171e-10
2.88218e-10
2.8822e-10
2.88297e-10
2.8832e-10
2.88441e-10
2.88516e-10
2.88691e-10
2.88901e-10
2.89233e-10
2.89739e-10
2.90257e-10
2.91358e-10
2.92341e-10
2.94441e-10
2.96772e-10
2.99715e-10
3.0492e-10
3.07698e-10
2.75466e-10
2.72799e-10
2.67981e-10
2.65215e-10
2.631e-10
2.61158e-10
2.60269e-10
2.59252e-10
2.58783e-10
2.58312e-10
2.58036e-10
2.57836e-10
2.57669e-10
2.57599e-10
2.57488e-10
2.57468e-10
2.57398e-10
2.57397e-10
2.57353e-10
2.57359e-10
2.57333e-10
2.57339e-10
2.57325e-10
2.57329e-10
2.57325e-10
2.57325e-10
2.57329e-10
2.57325e-10
2.57339e-10
2.57332e-10
2.57358e-10
2.57353e-10
2.57396e-10
2.57397e-10
2.57468e-10
2.57489e-10
2.576e-10
2.57668e-10
2.57826e-10
2.5802e-10
2.58321e-10
2.5879e-10
2.59256e-10
2.60271e-10
2.61158e-10
2.63098e-10
2.65213e-10
2.67977e-10
2.72795e-10
2.75463e-10
2.45365e-10
2.42848e-10
2.38474e-10
2.35894e-10
2.34002e-10
2.32238e-10
2.31444e-10
2.30521e-10
2.30104e-10
2.29672e-10
2.29426e-10
2.29244e-10
2.29094e-10
2.29032e-10
2.28932e-10
2.28913e-10
2.2885e-10
2.28849e-10
2.2881e-10
2.28815e-10
2.28792e-10
2.28798e-10
2.28785e-10
2.28788e-10
2.28784e-10
2.28784e-10
2.28788e-10
2.28785e-10
2.28797e-10
2.28791e-10
2.28815e-10
2.28809e-10
2.28849e-10
2.28849e-10
2.28913e-10
2.28932e-10
2.29032e-10
2.29093e-10
2.29236e-10
2.29412e-10
2.29679e-10
2.30109e-10
2.30524e-10
2.31445e-10
2.32238e-10
2.33999e-10
2.35893e-10
2.38471e-10
2.42844e-10
2.45362e-10
2.17653e-10
2.15291e-10
2.11352e-10
2.08932e-10
2.07248e-10
2.05656e-10
2.04951e-10
2.04117e-10
2.03747e-10
2.03358e-10
2.03136e-10
2.02974e-10
2.02839e-10
2.02783e-10
2.02693e-10
2.02677e-10
2.0262e-10
2.0262e-10
2.02584e-10
2.02589e-10
2.02568e-10
2.02573e-10
2.02562e-10
2.02565e-10
2.02561e-10
2.02561e-10
2.02565e-10
2.02562e-10
2.02573e-10
2.02567e-10
2.02589e-10
2.02584e-10
2.02619e-10
2.0262e-10
2.02677e-10
2.02694e-10
2.02784e-10
2.02838e-10
2.02966e-10
2.03125e-10
2.03362e-10
2.03753e-10
2.0412e-10
2.04952e-10
2.05656e-10
2.07246e-10
2.08932e-10
2.11349e-10
2.15287e-10
2.1765e-10
1.92223e-10
1.90025e-10
1.86478e-10
1.8464e-10
1.83145e-10
1.81702e-10
1.81081e-10
1.80324e-10
1.79997e-10
1.79646e-10
1.79445e-10
1.79301e-10
1.79179e-10
1.7913e-10
1.79049e-10
1.79035e-10
1.78983e-10
1.78984e-10
1.78951e-10
1.78956e-10
1.78937e-10
1.78942e-10
1.78931e-10
1.78935e-10
1.78931e-10
1.78931e-10
1.78935e-10
1.78931e-10
1.78942e-10
1.78936e-10
1.78956e-10
1.78951e-10
1.78983e-10
1.78983e-10
1.79035e-10
1.79049e-10
1.79131e-10
1.79178e-10
1.79294e-10
1.79436e-10
1.79649e-10
1.80002e-10
1.80327e-10
1.81082e-10
1.81702e-10
1.83143e-10
1.84639e-10
1.86476e-10
1.90022e-10
1.92221e-10
1.69349e-10
1.67318e-10
1.64089e-10
1.62364e-10
1.6098e-10
1.59645e-10
1.59085e-10
1.58386e-10
1.58091e-10
1.5777e-10
1.57585e-10
1.57453e-10
1.57342e-10
1.57298e-10
1.57224e-10
1.57212e-10
1.57164e-10
1.57165e-10
1.57135e-10
1.5714e-10
1.57122e-10
1.57127e-10
1.57117e-10
1.5712e-10
1.57117e-10
1.57117e-10
1.5712e-10
1.57117e-10
1.57127e-10
1.57122e-10
1.57139e-10
1.57135e-10
1.57165e-10
1.57164e-10
1.57212e-10
1.57224e-10
1.57299e-10
1.57342e-10
1.57448e-10
1.57577e-10
1.57772e-10
1.58095e-10
1.58388e-10
1.59086e-10
1.59644e-10
1.60977e-10
1.62364e-10
1.64087e-10
1.67314e-10
1.69347e-10
1.48116e-10
1.4623e-10
1.43638e-10
1.42069e-10
1.40842e-10
1.39641e-10
1.39152e-10
1.38521e-10
1.38263e-10
1.37974e-10
1.37809e-10
1.37691e-10
1.37593e-10
1.37554e-10
1.37487e-10
1.37477e-10
1.37434e-10
1.37435e-10
1.37408e-10
1.37413e-10
1.37397e-10
1.37401e-10
1.37392e-10
1.37395e-10
1.37392e-10
1.37392e-10
1.37395e-10
1.37392e-10
1.37401e-10
1.37396e-10
1.37412e-10
1.37408e-10
1.37435e-10
1.37434e-10
1.37477e-10
1.37487e-10
1.37554e-10
1.37592e-10
1.37688e-10
1.37801e-10
1.37977e-10
1.38266e-10
1.38523e-10
1.39152e-10
1.3964e-10
1.40838e-10
1.42069e-10
1.43638e-10
1.46226e-10
1.48114e-10
1.29068e-10
1.27346e-10
1.24952e-10
1.23604e-10
1.22519e-10
1.21445e-10
1.21021e-10
1.20454e-10
1.20229e-10
1.19971e-10
1.19824e-10
1.19719e-10
1.19631e-10
1.19598e-10
1.19538e-10
1.1953e-10
1.19491e-10
1.19492e-10
1.19468e-10
1.19473e-10
1.19458e-10
1.19462e-10
1.19454e-10
1.19457e-10
1.19454e-10
1.19454e-10
1.19457e-10
1.19454e-10
1.19462e-10
1.19458e-10
1.19472e-10
1.19468e-10
1.19492e-10
1.19491e-10
1.1953e-10
1.19538e-10
1.19598e-10
1.19631e-10
1.19716e-10
1.19817e-10
1.19973e-10
1.20232e-10
1.20455e-10
1.21021e-10
1.21445e-10
1.22514e-10
1.23605e-10
1.24952e-10
1.27342e-10
1.29066e-10
1.11772e-10
1.10192e-10
1.08072e-10
1.06856e-10
1.05909e-10
1.0495e-10
1.04584e-10
1.04078e-10
1.03884e-10
1.03653e-10
1.03523e-10
1.03431e-10
1.03353e-10
1.03324e-10
1.03271e-10
1.03264e-10
1.0323e-10
1.03231e-10
1.03209e-10
1.03213e-10
1.032e-10
1.03204e-10
1.03197e-10
1.03199e-10
1.03197e-10
1.03197e-10
1.03199e-10
1.03197e-10
1.03204e-10
1.032e-10
1.03213e-10
1.03209e-10
1.0323e-10
1.03229e-10
1.03264e-10
1.03271e-10
1.03324e-10
1.03353e-10
1.03428e-10
1.03517e-10
1.03654e-10
1.03885e-10
1.04079e-10
1.04585e-10
1.0495e-10
1.05904e-10
1.06859e-10
1.08071e-10
1.10189e-10
1.1177e-10
9.61076e-11
9.46874e-11
9.28212e-11
9.17252e-11
9.09081e-11
9.00533e-11
8.97409e-11
8.929e-11
8.91238e-11
8.89192e-11
8.88046e-11
8.87237e-11
8.86552e-11
8.86302e-11
8.85834e-11
8.85775e-11
8.85472e-11
8.85487e-11
8.85295e-11
8.85331e-11
8.85217e-11
8.85251e-11
8.85188e-11
8.85208e-11
8.85187e-11
8.85187e-11
8.85208e-11
8.85188e-11
8.85249e-11
8.85214e-11
8.85328e-11
8.85292e-11
8.85483e-11
8.85469e-11
8.85775e-11
8.85835e-11
8.86304e-11
8.8655e-11
8.87218e-11
8.87998e-11
8.89203e-11
8.91251e-11
8.92906e-11
8.9741e-11
9.00528e-11
9.09041e-11
9.17266e-11
9.28208e-11
9.46848e-11
9.61059e-11
8.1994e-11
8.07232e-11
7.90968e-11
7.81147e-11
7.74146e-11
7.66576e-11
7.63933e-11
7.59945e-11
7.58532e-11
7.56735e-11
7.55727e-11
7.5502e-11
7.54422e-11
7.54209e-11
7.53798e-11
7.5375e-11
7.53483e-11
7.53499e-11
7.5333e-11
7.53363e-11
7.53262e-11
7.53292e-11
7.53237e-11
7.53255e-11
7.53237e-11
7.53236e-11
7.53255e-11
7.53237e-11
7.53291e-11
7.53259e-11
7.5336e-11
7.53327e-11
7.53495e-11
7.53481e-11
7.5375e-11
7.53799e-11
7.54211e-11
7.54421e-11
7.55006e-11
7.55687e-11
7.56741e-11
7.58544e-11
7.5995e-11
7.63934e-11
7.66571e-11
7.74114e-11
7.81154e-11
7.90964e-11
8.0721e-11
8.19925e-11
6.93384e-11
6.82101e-11
6.68036e-11
6.59327e-11
6.53379e-11
6.46725e-11
6.44514e-11
6.41011e-11
6.39824e-11
6.38256e-11
6.37374e-11
6.3676e-11
6.36243e-11
6.36063e-11
6.35705e-11
6.35667e-11
6.35434e-11
6.35449e-11
6.35301e-11
6.35332e-11
6.35243e-11
6.3527e-11
6.35222e-11
6.35238e-11
6.35222e-11
6.35222e-11
6.35238e-11
6.35222e-11
6.35269e-11
6.3524e-11
6.35329e-11
6.35299e-11
6.35446e-11
6.35431e-11
6.35667e-11
6.35705e-11
6.36064e-11
6.36242e-11
6.3675e-11
6.37341e-11
6.3826e-11
6.39832e-11
6.41014e-11
6.44514e-11
6.4672e-11
6.53354e-11
6.5933e-11
6.68032e-11
6.82082e-11
6.93371e-11
5.80218e-11
5.70053e-11
5.57788e-11
5.50051e-11
5.44968e-11
5.39122e-11
5.37258e-11
5.34189e-11
5.33187e-11
5.3182e-11
5.31045e-11
5.30509e-11
5.30064e-11
5.2991e-11
5.296e-11
5.29569e-11
5.29367e-11
5.29381e-11
5.29252e-11
5.29279e-11
5.29202e-11
5.29226e-11
5.29184e-11
5.29198e-11
5.29184e-11
5.29184e-11
5.29198e-11
5.29184e-11
5.29225e-11
5.292e-11
5.29277e-11
5.2925e-11
5.29378e-11
5.29364e-11
5.29569e-11
5.29601e-11
5.29912e-11
5.30063e-11
5.30502e-11
5.31018e-11
5.31822e-11
5.33193e-11
5.34191e-11
5.37257e-11
5.39115e-11
5.44948e-11
5.50051e-11
5.57784e-11
5.70037e-11
5.80207e-11
4.80258e-11
4.71347e-11
4.60924e-11
4.54215e-11
4.49979e-11
4.44924e-11
4.43397e-11
4.40748e-11
4.39926e-11
4.38753e-11
4.38083e-11
4.37624e-11
4.37247e-11
4.3712e-11
4.36854e-11
4.36831e-11
4.36657e-11
4.36671e-11
4.3656e-11
4.36584e-11
4.36518e-11
4.36539e-11
4.36503e-11
4.36515e-11
4.36503e-11
4.36503e-11
4.36515e-11
4.36503e-11
4.36538e-11
4.36516e-11
4.36582e-11
4.36558e-11
4.36669e-11
4.36655e-11
4.3683e-11
4.36855e-11
4.37121e-11
4.37247e-11
4.37619e-11
4.38061e-11
4.38754e-11
4.3993e-11
4.40749e-11
4.43397e-11
4.44915e-11
4.49963e-11
4.54214e-11
4.6092e-11
4.71333e-11
4.80248e-11
3.92442e-11
3.84691e-11
3.75948e-11
3.70218e-11
3.66738e-11
3.6242e-11
3.6118e-11
3.5892e-11
3.58257e-11
3.57262e-11
3.56686e-11
3.56298e-11
3.55983e-11
3.55879e-11
3.55655e-11
3.55637e-11
3.5549e-11
3.55503e-11
3.55409e-11
3.5543e-11
3.55374e-11
3.55392e-11
3.55362e-11
3.55372e-11
3.55362e-11
3.55362e-11
3.55372e-11
3.55361e-11
3.55392e-11
3.55372e-11
3.55429e-11
3.55408e-11
3.55501e-11
3.55488e-11
3.55637e-11
3.55655e-11
3.5588e-11
3.55983e-11
3.56295e-11
3.56669e-11
3.57262e-11
3.5826e-11
3.5892e-11
3.61179e-11
3.62403e-11
3.66725e-11
3.70215e-11
3.75945e-11
3.84679e-11
3.92434e-11
3.16077e-11
3.09381e-11
3.02169e-11
2.97255e-11
2.94375e-11
2.90667e-11
2.89632e-11
2.87694e-11
2.87159e-11
2.86312e-11
2.8581e-11
2.8548e-11
2.85217e-11
2.85131e-11
2.84942e-11
2.84928e-11
2.84803e-11
2.84816e-11
2.84736e-11
2.84754e-11
2.84706e-11
2.84722e-11
2.84696e-11
2.84705e-11
2.84696e-11
2.84696e-11
2.84705e-11
2.84696e-11
2.84722e-11
2.84705e-11
2.84753e-11
2.84734e-11
2.84814e-11
2.84802e-11
2.84928e-11
2.84942e-11
2.85132e-11
2.85217e-11
2.85478e-11
2.85797e-11
2.86311e-11
2.8716e-11
2.87694e-11
2.8963e-11
2.90636e-11
2.94365e-11
2.97252e-11
3.02166e-11
3.09371e-11
3.1607e-11
2.50416e-11
2.44822e-11
2.38956e-11
2.34882e-11
2.32596e-11
2.29556e-11
2.2866e-11
2.2705e-11
2.26635e-11
2.25936e-11
2.25509e-11
2.25237e-11
2.25023e-11
2.24955e-11
2.248e-11
2.24791e-11
2.24688e-11
2.24699e-11
2.24633e-11
2.24649e-11
2.2461e-11
2.24623e-11
2.24601e-11
2.24609e-11
2.24602e-11
2.24602e-11
2.24609e-11
2.24601e-11
2.24622e-11
2.24608e-11
2.24648e-11
2.24632e-11
2.24698e-11
2.24687e-11
2.24791e-11
2.248e-11
2.24956e-11
2.25023e-11
2.25235e-11
2.25499e-11
2.25935e-11
2.26636e-11
2.2705e-11
2.28659e-11
2.2951e-11
2.32589e-11
2.3488e-11
2.38954e-11
2.44814e-11
2.50412e-11
1.94825e-11
1.90144e-11
1.85338e-11
1.81972e-11
1.80162e-11
1.77761e-11
1.77322e-11
1.7601e-11
1.75697e-11
1.75131e-11
1.74769e-11
1.74547e-11
1.74378e-11
1.74326e-11
1.74201e-11
1.74195e-11
1.74112e-11
1.74121e-11
1.74068e-11
1.74081e-11
1.74049e-11
1.7406e-11
1.74043e-11
1.74049e-11
1.74043e-11
1.74043e-11
1.74049e-11
1.74043e-11
1.7406e-11
1.74048e-11
1.7408e-11
1.74067e-11
1.7412e-11
1.74111e-11
1.74194e-11
1.74201e-11
1.74326e-11
1.74379e-11
1.74546e-11
1.74762e-11
1.7513e-11
1.75697e-11
1.7601e-11
1.77321e-11
1.77793e-11
1.80158e-11
1.81969e-11
1.85336e-11
1.90137e-11
1.9482e-11
1.487e-11
1.44966e-11
1.41188e-11
1.38514e-11
1.37142e-11
1.35279e-11
1.34916e-11
1.33868e-11
1.3364e-11
1.33192e-11
1.32883e-11
1.32707e-11
1.32576e-11
1.32536e-11
1.32438e-11
1.32434e-11
1.32369e-11
1.32377e-11
1.32335e-11
1.32346e-11
1.32321e-11
1.32329e-11
1.32316e-11
1.32321e-11
1.32316e-11
1.32316e-11
1.32321e-11
1.32316e-11
1.32329e-11
1.3232e-11
1.32345e-11
1.32334e-11
1.32376e-11
1.32368e-11
1.32434e-11
1.32438e-11
1.32537e-11
1.32576e-11
1.32706e-11
1.32878e-11
1.33191e-11
1.3364e-11
1.33868e-11
1.34915e-11
1.353e-11
1.3714e-11
1.38512e-11
1.41187e-11
1.44961e-11
1.48697e-11
1.11232e-11
1.08316e-11
1.05411e-11
1.03262e-11
1.02219e-11
1.00757e-11
1.00476e-11
9.96429e-12
9.94761e-12
9.91227e-12
9.8843e-12
9.87044e-12
9.86038e-12
9.85733e-12
9.84969e-12
9.84944e-12
9.84433e-12
9.84501e-12
9.84172e-12
9.84257e-12
9.84061e-12
9.84131e-12
9.84023e-12
9.84063e-12
9.84026e-12
9.84026e-12
9.84063e-12
9.84022e-12
9.84129e-12
9.84055e-12
9.84251e-12
9.84167e-12
9.84493e-12
9.84427e-12
9.84943e-12
9.84971e-12
9.85737e-12
9.86041e-12
9.8704e-12
9.88393e-12
9.91217e-12
9.94758e-12
9.96424e-12
1.00475e-11
1.00765e-11
1.02217e-11
1.03261e-11
1.0541e-11
1.08312e-11
1.1123e-11
8.11452e-12
7.88999e-12
7.67217e-12
7.51014e-12
7.43411e-12
7.32486e-12
7.30444e-12
7.24173e-12
7.23003e-12
7.20375e-12
7.17751e-12
7.16707e-12
7.15973e-12
7.15747e-12
7.15182e-12
7.15164e-12
7.14786e-12
7.14836e-12
7.14593e-12
7.14656e-12
7.1451e-12
7.14562e-12
7.14482e-12
7.14512e-12
7.14485e-12
7.14485e-12
7.14512e-12
7.14482e-12
7.14561e-12
7.14506e-12
7.14652e-12
7.14588e-12
7.1483e-12
7.14781e-12
7.15163e-12
7.15184e-12
7.15751e-12
7.15976e-12
7.16705e-12
7.17726e-12
7.20366e-12
7.22999e-12
7.24169e-12
7.30439e-12
7.32511e-12
7.43401e-12
7.51002e-12
7.67206e-12
7.88963e-12
8.11438e-12
5.77574e-12
5.61011e-12
5.45238e-12
5.33483e-12
5.28087e-12
5.20158e-12
5.18731e-12
5.14157e-12
5.1336e-12
5.11498e-12
5.11579e-12
5.10821e-12
5.10294e-12
5.10133e-12
5.09721e-12
5.09711e-12
5.09435e-12
5.09473e-12
5.09295e-12
5.09342e-12
5.09236e-12
5.09275e-12
5.09216e-12
5.09238e-12
5.09218e-12
5.09218e-12
5.09238e-12
5.09216e-12
5.09273e-12
5.09233e-12
5.09339e-12
5.09292e-12
5.09469e-12
5.09431e-12
5.0971e-12
5.09722e-12
5.10135e-12
5.10296e-12
5.10821e-12
5.11563e-12
5.11491e-12
5.13357e-12
5.14154e-12
5.18727e-12
5.20161e-12
5.28081e-12
5.33475e-12
5.45229e-12
5.60981e-12
5.77568e-12
4.03134e-12
3.91236e-12
3.80065e-12
3.71593e-12
3.67892e-12
3.62183e-12
3.61268e-12
3.5796e-12
3.57452e-12
3.56147e-12
3.56189e-12
3.55654e-12
3.55284e-12
3.55172e-12
3.5488e-12
3.54875e-12
3.54679e-12
3.54707e-12
3.54581e-12
3.54615e-12
3.54539e-12
3.54567e-12
3.54525e-12
3.54541e-12
3.54527e-12
3.54527e-12
3.54541e-12
3.54525e-12
3.54566e-12
3.54537e-12
3.54612e-12
3.54578e-12
3.54704e-12
3.54676e-12
3.54874e-12
3.54881e-12
3.55174e-12
3.55285e-12
3.55655e-12
3.56176e-12
3.56141e-12
3.57449e-12
3.57957e-12
3.61265e-12
3.62182e-12
3.67889e-12
3.71587e-12
3.80059e-12
3.9122e-12
4.03125e-12
2.74493e-12
2.66181e-12
2.58485e-12
2.52553e-12
2.50088e-12
2.46095e-12
2.45534e-12
2.43209e-12
2.42899e-12
2.42007e-12
2.42024e-12
2.4166e-12
2.41407e-12
2.41331e-12
2.4113e-12
2.41127e-12
2.40992e-12
2.41012e-12
2.40925e-12
2.40949e-12
2.40897e-12
2.40916e-12
2.40888e-12
2.40899e-12
2.40889e-12
2.40889e-12
2.40899e-12
2.40887e-12
2.40916e-12
2.40895e-12
2.40947e-12
2.40924e-12
2.4101e-12
2.4099e-12
2.41127e-12
2.41131e-12
2.41332e-12
2.41408e-12
2.41661e-12
2.42016e-12
2.42003e-12
2.42897e-12
2.43206e-12
2.45532e-12
2.46092e-12
2.50087e-12
2.52549e-12
2.58481e-12
2.66173e-12
2.74484e-12
1.8246e-12
1.76824e-12
1.71657e-12
1.6763e-12
1.66039e-12
1.63331e-12
1.63005e-12
1.61419e-12
1.6124e-12
1.60647e-12
1.60652e-12
1.6041e-12
1.60242e-12
1.60192e-12
1.60058e-12
1.60057e-12
1.59967e-12
1.59981e-12
1.59922e-12
1.59938e-12
1.59904e-12
1.59917e-12
1.59897e-12
1.59905e-12
1.59898e-12
1.59898e-12
1.59905e-12
1.59897e-12
1.59916e-12
1.59902e-12
1.59937e-12
1.59921e-12
1.59979e-12
1.59965e-12
1.60057e-12
1.60059e-12
1.60193e-12
1.60243e-12
1.6041e-12
1.60647e-12
1.60644e-12
1.61238e-12
1.61418e-12
1.63003e-12
1.63329e-12
1.66038e-12
1.67628e-12
1.71654e-12
1.76821e-12
1.82452e-12
1.18595e-12
1.14917e-12
1.11517e-12
1.089e-12
1.07891e-12
1.06138e-12
1.05943e-12
1.0491e-12
1.04805e-12
1.04425e-12
1.04423e-12
1.04267e-12
1.04161e-12
1.04128e-12
1.04042e-12
1.04041e-12
1.03983e-12
1.03992e-12
1.03955e-12
1.03965e-12
1.03943e-12
1.03951e-12
1.03939e-12
1.03944e-12
1.03939e-12
1.03939e-12
1.03944e-12
1.03939e-12
1.03951e-12
1.03942e-12
1.03964e-12
1.03954e-12
1.03991e-12
1.03983e-12
1.04041e-12
1.04043e-12
1.04128e-12
1.04161e-12
1.04268e-12
1.0442e-12
1.04423e-12
1.04804e-12
1.04909e-12
1.05942e-12
1.06136e-12
1.07891e-12
1.08898e-12
1.11515e-12
1.14917e-12
1.18588e-12
7.63384e-13
7.40203e-13
7.21442e-13
7.04811e-13
6.98581e-13
6.87453e-13
6.86335e-13
6.79746e-13
6.79158e-13
6.76761e-13
6.76728e-13
6.75748e-13
6.7508e-13
6.74869e-13
6.74334e-13
6.74325e-13
6.73962e-13
6.74016e-13
6.73781e-13
6.73846e-13
6.73706e-13
6.73758e-13
6.73681e-13
6.7371e-13
6.73684e-13
6.73683e-13
6.73711e-13
6.7368e-13
6.73757e-13
6.73701e-13
6.73841e-13
6.73777e-13
6.7401e-13
6.73957e-13
6.74324e-13
6.74335e-13
6.74872e-13
6.75084e-13
6.75753e-13
6.76709e-13
6.7675e-13
6.7915e-13
6.79739e-13
6.86328e-13
6.87444e-13
6.98576e-13
7.04799e-13
7.2143e-13
7.40209e-13
7.63334e-13
5.00717e-13
4.86119e-13
4.74438e-13
4.63896e-13
4.59969e-13
4.52963e-13
4.52258e-13
4.48099e-13
4.47741e-13
4.46242e-13
4.46202e-13
4.45584e-13
4.45166e-13
4.45027e-13
4.44693e-13
4.44683e-13
4.44457e-13
4.44489e-13
4.44342e-13
4.44381e-13
4.44294e-13
4.44326e-13
4.44277e-13
4.44296e-13
4.44279e-13
4.44279e-13
4.44296e-13
4.44277e-13
4.44325e-13
4.44291e-13
4.44378e-13
4.44339e-13
4.44485e-13
4.44454e-13
4.44683e-13
4.44694e-13
4.45029e-13
4.45169e-13
4.45587e-13
4.4619e-13
4.46235e-13
4.47736e-13
4.48094e-13
4.52253e-13
4.52958e-13
4.59965e-13
4.63888e-13
4.7443e-13
4.86129e-13
5.00681e-13
3.44723e-13
3.35354e-13
3.27971e-13
3.21299e-13
3.18727e-13
3.14323e-13
3.1381e-13
3.11194e-13
3.10945e-13
3.10004e-13
3.09959e-13
3.09563e-13
3.09297e-13
3.09202e-13
3.08991e-13
3.08981e-13
3.08838e-13
3.08856e-13
3.08763e-13
3.08786e-13
3.08731e-13
3.08751e-13
3.0872e-13
3.08732e-13
3.08721e-13
3.08721e-13
3.08732e-13
3.0872e-13
3.0875e-13
3.08729e-13
3.08785e-13
3.08761e-13
3.08853e-13
3.08836e-13
3.08981e-13
3.08992e-13
3.09204e-13
3.09299e-13
3.09565e-13
3.09952e-13
3.09999e-13
3.10942e-13
3.11191e-13
3.13807e-13
3.14319e-13
3.18724e-13
3.21294e-13
3.27966e-13
3.35363e-13
3.44697e-13
2.58223e-13
2.51837e-13
2.469e-13
2.4249e-13
2.4064e-13
2.37765e-13
2.37315e-13
2.35614e-13
2.35406e-13
2.3479e-13
2.34739e-13
2.34469e-13
2.34289e-13
2.34219e-13
2.34078e-13
2.34066e-13
2.33971e-13
2.3398e-13
2.33918e-13
2.33933e-13
2.33895e-13
2.33908e-13
2.33887e-13
2.33895e-13
2.33888e-13
2.33888e-13
2.33895e-13
2.33887e-13
2.33908e-13
2.33894e-13
2.33931e-13
2.33917e-13
2.33978e-13
2.3397e-13
2.34066e-13
2.34079e-13
2.3422e-13
2.34291e-13
2.34471e-13
2.34734e-13
2.34786e-13
2.35403e-13
2.35612e-13
2.37313e-13
2.37763e-13
2.40638e-13
2.42487e-13
2.46897e-13
2.51843e-13
2.58205e-13
2.14765e-13
2.09944e-13
2.06335e-13
2.03172e-13
2.01671e-13
1.99653e-13
1.992e-13
1.98016e-13
1.97814e-13
1.97381e-13
1.97321e-13
1.97119e-13
1.96985e-13
1.96926e-13
1.96823e-13
1.96809e-13
1.9674e-13
1.96743e-13
1.96699e-13
1.96708e-13
1.9668e-13
1.96689e-13
1.96673e-13
1.96679e-13
1.96673e-13
1.96673e-13
1.96679e-13
1.96673e-13
1.96689e-13
1.96679e-13
1.96707e-13
1.96698e-13
1.96742e-13
1.96739e-13
1.96809e-13
1.96823e-13
1.96926e-13
1.96986e-13
1.9712e-13
1.97318e-13
1.97378e-13
1.97813e-13
1.98015e-13
1.99199e-13
1.99651e-13
2.0167e-13
2.03169e-13
2.06332e-13
2.09945e-13
2.14752e-13
1.96171e-13
1.92054e-13
1.89151e-13
1.86634e-13
1.85281e-13
1.83719e-13
1.83238e-13
1.82332e-13
1.82125e-13
1.81788e-13
1.81719e-13
1.8155e-13
1.81438e-13
1.81383e-13
1.813e-13
1.81283e-13
1.81228e-13
1.81228e-13
1.81191e-13
1.81197e-13
1.81175e-13
1.81182e-13
1.81169e-13
1.81174e-13
1.81169e-13
1.81168e-13
1.81174e-13
1.81169e-13
1.81182e-13
1.81174e-13
1.81196e-13
1.81191e-13
1.81226e-13
1.81227e-13
1.81283e-13
1.813e-13
1.81383e-13
1.81439e-13
1.81551e-13
1.81716e-13
1.81786e-13
1.82123e-13
1.82331e-13
1.83237e-13
1.83718e-13
1.85279e-13
1.86631e-13
1.89148e-13
1.9205e-13
1.96161e-13
1.90098e-13
1.86201e-13
1.83691e-13
1.81488e-13
1.80189e-13
1.78859e-13
1.78348e-13
1.77586e-13
1.7737e-13
1.77083e-13
1.77004e-13
1.76849e-13
1.76749e-13
1.76694e-13
1.76621e-13
1.76602e-13
1.76553e-13
1.7655e-13
1.76519e-13
1.76523e-13
1.76503e-13
1.76509e-13
1.76497e-13
1.76501e-13
1.76496e-13
1.76496e-13
1.76501e-13
1.76497e-13
1.76508e-13
1.76502e-13
1.76522e-13
1.76518e-13
1.76549e-13
1.76552e-13
1.76601e-13
1.76621e-13
1.76695e-13
1.7675e-13
1.76851e-13
1.77002e-13
1.77081e-13
1.77368e-13
1.77585e-13
1.78347e-13
1.78858e-13
1.80187e-13
1.81486e-13
1.83689e-13
1.86193e-13
1.90089e-13
1.88877e-13
1.84845e-13
1.82628e-13
1.80563e-13
1.79283e-13
1.78059e-13
1.7753e-13
1.76834e-13
1.76613e-13
1.76348e-13
1.76264e-13
1.76115e-13
1.7602e-13
1.75964e-13
1.75896e-13
1.75875e-13
1.75829e-13
1.75825e-13
1.75795e-13
1.75798e-13
1.7578e-13
1.75785e-13
1.75773e-13
1.75777e-13
1.75773e-13
1.75773e-13
1.75777e-13
1.75773e-13
1.75785e-13
1.75779e-13
1.75798e-13
1.75795e-13
1.75824e-13
1.75828e-13
1.75874e-13
1.75895e-13
1.75965e-13
1.76021e-13
1.76116e-13
1.76263e-13
1.76346e-13
1.76611e-13
1.76833e-13
1.7753e-13
1.78059e-13
1.79281e-13
1.80562e-13
1.82626e-13
1.84836e-13
1.88868e-13
)
;

boundaryField
{
    fuel
    {
        type            fixedValue;
        value           nonuniform 0();
    }
    wall
    {
        type            zeroGradient;
    }
    outlet
    {
        type            zeroGradient;
    }
    frontAndBack
    {
        type            empty;
    }
    procBoundary3to2
    {
        type            processor;
        value           nonuniform List<scalar> 
51
(
5.76627e-10
5.763e-10
5.76155e-10
5.75951e-10
5.75902e-10
5.75775e-10
5.75766e-10
5.75688e-10
5.75694e-10
5.75648e-10
5.75657e-10
5.75632e-10
5.75638e-10
5.7563e-10
5.7563e-10
5.75638e-10
5.75632e-10
5.75656e-10
5.75647e-10
5.75693e-10
5.75687e-10
5.75765e-10
5.75774e-10
5.75902e-10
5.75953e-10
5.76157e-10
5.76298e-10
5.76606e-10
5.76972e-10
5.77527e-10
5.78372e-10
5.79344e-10
5.81157e-10
5.82964e-10
5.86479e-10
5.90433e-10
5.95178e-10
6.02778e-10
6.0734e-10
5.56302e-10
5.51868e-10
5.44653e-10
5.40185e-10
5.36462e-10
5.33183e-10
5.31507e-10
5.29801e-10
5.28901e-10
5.28117e-10
5.27619e-10
5.27619e-10
)
;
    }
}


// ************************************************************************* //
