/*--------------------------------*- C++ -*----------------------------------*\
| =========                 |                                                 |
| \\      /  F ield         | OpenFOAM: The Open Source CFD Toolbox           |
|  \\    /   O peration     | Version:  dev                                   |
|   \\  /    A nd           | Web:      www.OpenFOAM.org                      |
|    \\/     M anipulation  |                                                 |
\*---------------------------------------------------------------------------*/
FoamFile
{
    version     2.0;
    format      ascii;
    class       volScalarField;
    location    "0.07";
    object      A3C2H;
}
// * * * * * * * * * * * * * * * * * * * * * * * * * * * * * * * * * * * * * //

dimensions      [0 0 0 0 0 0 0];

internalField   nonuniform List<scalar> 
250
(
7.54263e-10
7.54362e-10
7.54366e-10
7.54661e-10
7.54216e-10
7.54494e-10
7.55124e-10
7.61583e-10
8.10094e-10
1.14812e-09
3.76206e-11
8.36239e-10
8.36316e-10
8.36307e-10
8.36474e-10
8.36321e-10
8.36701e-10
8.3755e-10
8.48278e-10
9.2862e-10
1.53098e-09
9.38291e-11
7.43258e-10
7.43265e-10
7.43314e-10
7.43411e-10
7.43359e-10
7.43738e-10
7.44763e-10
7.57907e-10
8.57053e-10
1.62976e-09
1.39724e-10
6.17647e-10
6.17597e-10
6.17737e-10
6.17718e-10
6.17761e-10
6.1808e-10
6.19176e-10
6.33406e-10
7.42351e-10
1.6092e-09
1.76199e-10
5.00228e-10
5.00136e-10
5.00371e-10
5.0022e-10
5.00377e-10
5.00594e-10
5.01671e-10
5.16051e-10
6.28538e-10
1.53396e-09
2.05862e-10
3.94307e-10
3.94116e-10
3.94555e-10
3.94143e-10
3.94596e-10
3.94589e-10
3.95903e-10
4.12656e-10
5.28947e-10
1.43716e-09
2.29931e-10
3.14356e-10
3.13613e-10
3.14597e-10
3.13611e-10
3.14822e-10
3.14068e-10
3.1547e-10
3.32061e-10
4.46495e-10
1.33589e-09
2.47027e-10
2.49971e-10
2.50408e-10
2.50054e-10
2.5038e-10
2.49712e-10
2.50766e-10
2.52527e-10
2.68979e-10
3.76831e-10
1.23769e-09
2.52556e-10
2.02092e-10
2.0202e-10
2.0211e-10
2.01981e-10
2.01907e-10
2.02338e-10
2.03712e-10
2.16455e-10
3.15523e-10
1.145e-09
2.38675e-10
1.60189e-10
1.6004e-10
1.6021e-10
1.59995e-10
1.60091e-10
1.60353e-10
1.61688e-10
1.73521e-10
2.72254e-10
1.05797e-09
2.00195e-10
1.31992e-10
1.32179e-10
1.31944e-10
1.32088e-10
1.32292e-10
1.33532e-10
1.44507e-10
2.34214e-10
9.75735e-10
1.5055e-10
1.08011e-10
1.08197e-10
1.07957e-10
1.08123e-10
1.08303e-10
1.09539e-10
1.20543e-10
2.01817e-10
8.97379e-10
1.13081e-10
8.96033e-11
8.97721e-11
8.95499e-11
8.9714e-11
8.98715e-11
9.1015e-11
1.01153e-10
1.78219e-10
8.22242e-10
9.93497e-11
7.53764e-11
7.55256e-11
7.53245e-11
7.548e-11
7.56226e-11
7.66825e-11
8.59871e-11
1.57102e-10
7.4984e-10
1.04443e-10
6.42523e-11
6.43811e-11
6.42017e-11
6.43455e-11
6.44791e-11
6.54594e-11
7.39779e-11
1.37914e-10
6.8015e-10
1.20157e-10
5.54392e-11
5.55481e-11
5.53896e-11
5.55205e-11
5.56489e-11
5.65541e-11
6.43414e-11
1.23297e-10
6.13743e-10
1.40223e-10
4.83599e-11
4.84502e-11
4.83111e-11
4.84292e-11
4.85542e-11
4.93896e-11
5.64905e-11
1.09702e-10
5.42006e-10
1.60231e-10
4.25954e-11
4.26688e-11
4.25472e-11
4.26531e-11
4.27756e-11
4.35463e-11
5.00023e-11
9.7056e-11
4.72078e-10
1.77327e-10
3.78405e-11
3.78989e-11
3.7793e-11
3.78877e-11
3.80075e-11
3.87186e-11
4.45733e-11
8.58916e-11
4.05939e-10
1.89787e-10
3.38721e-11
3.39172e-11
3.38255e-11
3.39098e-11
3.40265e-11
3.46826e-11
3.99814e-11
7.60442e-11
3.52985e-10
1.96895e-10
3.0525e-11
3.0558e-11
3.04796e-11
3.05539e-11
3.0667e-11
3.12719e-11
3.6063e-11
6.73445e-11
3.03079e-10
1.98439e-10
2.76729e-11
2.76948e-11
2.7629e-11
2.76934e-11
2.78023e-11
2.83595e-11
3.26953e-11
5.96681e-11
2.59414e-10
1.94833e-10
2.55054e-11
2.55197e-11
2.54624e-11
2.552e-11
2.56242e-11
2.61391e-11
2.97827e-11
5.29083e-11
2.15355e-10
1.86854e-10
2.35464e-11
2.35584e-11
2.35065e-11
2.35626e-11
2.36646e-11
2.4142e-11
2.75451e-11
4.70033e-11
1.82096e-10
1.75706e-10
)
;

boundaryField
{
    fuel
    {
        type            fixedValue;
        value           uniform 0;
    }
    wall
    {
        type            zeroGradient;
    }
    outlet
    {
        type            zeroGradient;
    }
    frontAndBack
    {
        type            empty;
    }
    procBoundary3to0
    {
        type            processor;
        value           nonuniform List<scalar> 10(2.19893e-11 2.19961e-11 2.19511e-11 2.20017e-11 2.2099e-11 2.2541e-11 2.5442e-11 4.18298e-11 1.52602e-10 1.62399e-10);
    }
    procBoundary3to2
    {
        type            processor;
        value           nonuniform List<scalar> 
25
(
7.54381e-10
8.36286e-10
7.43317e-10
6.1774e-10
5.00395e-10
3.9466e-10
3.14514e-10
2.50132e-10
2.0192e-10
1.60105e-10
1.3213e-10
1.3213e-10
1.08139e-10
8.97089e-11
7.54609e-11
6.43177e-11
5.54878e-11
4.83944e-11
4.2618e-11
3.78534e-11
3.38773e-11
3.05241e-11
2.76674e-11
2.54973e-11
2.3534e-11
)
;
    }
}


// ************************************************************************* //
