/*--------------------------------*- C++ -*----------------------------------*\
| =========                 |                                                 |
| \\      /  F ield         | OpenFOAM: The Open Source CFD Toolbox           |
|  \\    /   O peration     | Version:  dev                                   |
|   \\  /    A nd           | Web:      www.OpenFOAM.org                      |
|    \\/     M anipulation  |                                                 |
\*---------------------------------------------------------------------------*/
FoamFile
{
    version     2.0;
    format      ascii;
    class       volScalarField;
    location    "0.07";
    object      A3C2H2;
}
// * * * * * * * * * * * * * * * * * * * * * * * * * * * * * * * * * * * * * //

dimensions      [0 0 0 0 0 0 0];

internalField   nonuniform List<scalar> 
250
(
3.03474e-14
3.03515e-14
3.03511e-14
3.03712e-14
3.03437e-14
3.03548e-14
3.03869e-14
3.06486e-14
3.26742e-14
4.74074e-14
2.51251e-14
2.52986e-14
2.53014e-14
2.53007e-14
2.53077e-14
2.53004e-14
2.53121e-14
2.53387e-14
2.5657e-14
2.8062e-14
4.70237e-14
8.08776e-14
1.66025e-14
1.66031e-14
1.6604e-14
1.66065e-14
1.66044e-14
1.66135e-14
1.66343e-14
1.69182e-14
1.90581e-14
3.72345e-14
4.80594e-14
1.02908e-14
1.02901e-14
1.02924e-14
1.02922e-14
1.02924e-14
1.02984e-14
1.03137e-14
1.054e-14
1.22666e-14
2.82004e-14
1.6973e-14
6.51444e-15
6.51319e-15
6.51631e-15
6.51444e-15
6.51617e-15
6.51942e-15
6.53011e-15
6.70173e-15
8.07644e-15
2.183e-14
6.19141e-15
4.21783e-15
4.2155e-15
4.22078e-15
4.21581e-15
4.22124e-15
4.22095e-15
4.23351e-15
4.41194e-15
5.60791e-15
1.75543e-14
2.39511e-15
2.95291e-15
2.94395e-15
2.95542e-15
2.94395e-15
2.95826e-15
2.94848e-15
2.96025e-15
3.11259e-15
4.13917e-15
1.4596e-14
1.02655e-15
2.15782e-15
2.16373e-15
2.15863e-15
2.1635e-15
2.15521e-15
2.16685e-15
2.18133e-15
2.31988e-15
3.19278e-15
1.24167e-14
6.39994e-16
1.66473e-15
1.66455e-15
1.66486e-15
1.66425e-15
1.66297e-15
1.6671e-15
1.67731e-15
1.77408e-15
2.51921e-15
1.07033e-14
1.03561e-15
1.28524e-15
1.2841e-15
1.2854e-15
1.28377e-15
1.28441e-15
1.28654e-15
1.29632e-15
1.38351e-15
2.10675e-15
9.28721e-15
2.06244e-15
1.04895e-15
1.05043e-15
1.04859e-15
1.04973e-15
1.05127e-15
1.06025e-15
1.13995e-15
1.77873e-15
8.07858e-15
2.94708e-15
8.57486e-16
8.58958e-16
8.5708e-16
8.58409e-16
8.59742e-16
8.68708e-16
9.48646e-16
1.51713e-15
7.03239e-15
3.58159e-15
7.1429e-16
7.15628e-16
7.13897e-16
7.15214e-16
7.16372e-16
7.24672e-16
7.98192e-16
1.33387e-15
6.12457e-15
3.88132e-15
6.04811e-16
6.06001e-16
6.04429e-16
6.05687e-16
6.06743e-16
6.14459e-16
6.82039e-16
1.17375e-15
5.33759e-15
3.96258e-15
5.19281e-16
5.20319e-16
5.18908e-16
5.20084e-16
5.21085e-16
5.28254e-16
5.90323e-16
1.03028e-15
4.65718e-15
3.90764e-15
4.51122e-16
4.52012e-16
4.50755e-16
4.51841e-16
4.52817e-16
4.59468e-16
5.16435e-16
9.21811e-16
4.0726e-15
3.74709e-15
3.95794e-16
3.96547e-16
3.95431e-16
3.96429e-16
3.97392e-16
4.03558e-16
4.55724e-16
8.21196e-16
3.50083e-15
3.48905e-15
3.50108e-16
3.50738e-16
3.4975e-16
3.50664e-16
3.5162e-16
3.57331e-16
4.04958e-16
7.27592e-16
2.98845e-15
3.14929e-15
3.11792e-16
3.12311e-16
3.11438e-16
3.12274e-16
3.13221e-16
3.18507e-16
3.61869e-16
6.44751e-16
2.53471e-15
2.76015e-15
2.79196e-16
2.79616e-16
2.78849e-16
2.79613e-16
2.80546e-16
2.85433e-16
3.24826e-16
5.71324e-16
2.18745e-15
2.36278e-15
2.51101e-16
2.51433e-16
2.50763e-16
2.51458e-16
2.52372e-16
2.56881e-16
2.92628e-16
5.06012e-16
1.87107e-15
1.99084e-15
2.26568e-16
2.26818e-16
2.26244e-16
2.26869e-16
2.27757e-16
2.31905e-16
2.64373e-16
4.47874e-16
1.60035e-15
1.66542e-15
2.07435e-16
2.07631e-16
2.07119e-16
2.07698e-16
2.08554e-16
2.12373e-16
2.39351e-16
3.96127e-16
1.33082e-15
1.39371e-15
1.89537e-16
1.89729e-16
1.89251e-16
1.89834e-16
1.90681e-16
1.94206e-16
2.19637e-16
3.5029e-16
1.12794e-15
1.17412e-15
)
;

boundaryField
{
    fuel
    {
        type            fixedValue;
        value           uniform 0;
    }
    wall
    {
        type            zeroGradient;
    }
    outlet
    {
        type            zeroGradient;
    }
    frontAndBack
    {
        type            empty;
    }
    procBoundary3to0
    {
        type            processor;
        value           nonuniform List<scalar> 10(1.74759e-16 1.74919e-16 1.74489e-16 1.75038e-16 1.7585e-16 1.79087e-16 2.00448e-16 3.09456e-16 9.47599e-16 9.99021e-16);
    }
    procBoundary3to2
    {
        type            processor;
        value           nonuniform List<scalar> 
25
(
3.03522e-14
2.53006e-14
1.66042e-14
1.02925e-14
6.5167e-15
4.22215e-15
2.95421e-15
2.16066e-15
1.66327e-15
1.28449e-15
1.05005e-15
1.05005e-15
8.58463e-16
7.1508e-16
6.05433e-16
5.19754e-16
4.51465e-16
3.96026e-16
3.50247e-16
3.11852e-16
2.79192e-16
2.51045e-16
2.26472e-16
2.07314e-16
1.89374e-16
)
;
    }
}


// ************************************************************************* //
