/*--------------------------------*- C++ -*----------------------------------*\
| =========                 |                                                 |
| \\      /  F ield         | OpenFOAM: The Open Source CFD Toolbox           |
|  \\    /   O peration     | Version:  dev                                   |
|   \\  /    A nd           | Web:      www.OpenFOAM.org                      |
|    \\/     M anipulation  |                                                 |
\*---------------------------------------------------------------------------*/
FoamFile
{
    version     2.0;
    format      ascii;
    class       volScalarField;
    location    "0.07";
    object      AC3H4;
}
// * * * * * * * * * * * * * * * * * * * * * * * * * * * * * * * * * * * * * //

dimensions      [0 0 0 0 0 0 0];

internalField   nonuniform List<scalar> 
250
(
4.27123e-06
4.27153e-06
4.27124e-06
4.25805e-06
4.27648e-06
4.27676e-06
4.26766e-06
4.28693e-06
4.41458e-06
5.51565e-06
3.48482e-06
2.38604e-06
2.38622e-06
2.38615e-06
2.38356e-06
2.38701e-06
2.38725e-06
2.38611e-06
2.39538e-06
2.45931e-06
2.97414e-06
9.30174e-06
1.72016e-06
1.72024e-06
1.72025e-06
1.71968e-06
1.72035e-06
1.72054e-06
1.72081e-06
1.72791e-06
1.7751e-06
2.12181e-06
1.4809e-05
1.50336e-06
1.50337e-06
1.50344e-06
1.50325e-06
1.50344e-06
1.50358e-06
1.50421e-06
1.51155e-06
1.55746e-06
1.86582e-06
1.9692e-05
1.42392e-06
1.42388e-06
1.42402e-06
1.42385e-06
1.42403e-06
1.42412e-06
1.42494e-06
1.43338e-06
1.48332e-06
1.79336e-06
2.37861e-05
1.37733e-06
1.3772e-06
1.37751e-06
1.37717e-06
1.37754e-06
1.37754e-06
1.37866e-06
1.38977e-06
1.44685e-06
1.77171e-06
2.70917e-05
1.34006e-06
1.33956e-06
1.34025e-06
1.33951e-06
1.34038e-06
1.33998e-06
1.34141e-06
1.35445e-06
1.4177e-06
1.76195e-06
2.98199e-05
1.30168e-06
1.30185e-06
1.3018e-06
1.30177e-06
1.30156e-06
1.3023e-06
1.30427e-06
1.31938e-06
1.38693e-06
1.75364e-06
3.24301e-05
1.26408e-06
1.2639e-06
1.26418e-06
1.26379e-06
1.26401e-06
1.26442e-06
1.26634e-06
1.28073e-06
1.35136e-06
1.74515e-06
3.56635e-05
1.22079e-06
1.2205e-06
1.2209e-06
1.22037e-06
1.22077e-06
1.22113e-06
1.22334e-06
1.23923e-06
1.3193e-06
1.73693e-06
4.02017e-05
1.18333e-06
1.18379e-06
1.18317e-06
1.18366e-06
1.18404e-06
1.18642e-06
1.20349e-06
1.28384e-06
1.72727e-06
4.55644e-05
1.14262e-06
1.14314e-06
1.14241e-06
1.14301e-06
1.14343e-06
1.14618e-06
1.16611e-06
1.24653e-06
1.71033e-06
4.91632e-05
1.10309e-06
1.10364e-06
1.10286e-06
1.10352e-06
1.10397e-06
1.10693e-06
1.12813e-06
1.2139e-06
1.67869e-06
4.76506e-05
1.06503e-06
1.06558e-06
1.06476e-06
1.06546e-06
1.06597e-06
1.06911e-06
1.09138e-06
1.17936e-06
1.62989e-06
4.06914e-05
1.02852e-06
1.02906e-06
1.02821e-06
1.02895e-06
1.02951e-06
1.03281e-06
1.05593e-06
1.14282e-06
1.56813e-06
3.0695e-05
9.93638e-07
9.94147e-07
9.93299e-07
9.94052e-07
9.94679e-07
9.98105e-07
1.02189e-06
1.11122e-06
1.50141e-06
2.06882e-05
9.6044e-07
9.60909e-07
9.60068e-07
9.60827e-07
9.61517e-07
9.65044e-07
9.89272e-07
1.0783e-06
1.42856e-06
1.27707e-05
9.28972e-07
9.29392e-07
9.2857e-07
9.29325e-07
9.30074e-07
9.33678e-07
9.58127e-07
1.04434e-06
1.35877e-06
7.52433e-06
8.99276e-07
8.99639e-07
8.98847e-07
8.99588e-07
9.0039e-07
9.04045e-07
9.28515e-07
1.01138e-06
1.29372e-06
4.46809e-06
8.71381e-07
8.7168e-07
8.70928e-07
8.71647e-07
8.72493e-07
8.76176e-07
9.00493e-07
9.79613e-07
1.24105e-06
2.83224e-06
8.45297e-07
8.45527e-07
8.44827e-07
8.45512e-07
8.46392e-07
8.50078e-07
8.74111e-07
9.4918e-07
1.19018e-06
1.99543e-06
8.20998e-07
8.21154e-07
8.20518e-07
8.21155e-07
8.22058e-07
8.25723e-07
8.49408e-07
9.20234e-07
1.14358e-06
1.5709e-06
8.01093e-07
8.01193e-07
8.00603e-07
8.01206e-07
8.02116e-07
8.05716e-07
8.26392e-07
8.92901e-07
1.09348e-06
1.34847e-06
7.81874e-07
7.81965e-07
7.81398e-07
7.82015e-07
7.82952e-07
7.86503e-07
8.07548e-07
8.67303e-07
1.05258e-06
1.22232e-06
)
;

boundaryField
{
    fuel
    {
        type            fixedValue;
        value           uniform 0;
    }
    wall
    {
        type            zeroGradient;
    }
    outlet
    {
        type            zeroGradient;
    }
    frontAndBack
    {
        type            empty;
    }
    procBoundary3to0
    {
        type            processor;
        value           nonuniform List<scalar> 10(7.65685e-07 7.65733e-07 7.65214e-07 7.65798e-07 7.66727e-07 7.70185e-07 7.88803e-07 8.43377e-07 1.01302e-06 1.14287e-06);
    }
    procBoundary3to2
    {
        type            processor;
        value           nonuniform List<scalar> 
25
(
4.26054e-06
2.38388e-06
1.71975e-06
1.50334e-06
1.42404e-06
1.3776e-06
1.34024e-06
1.30186e-06
1.26409e-06
1.22089e-06
1.18365e-06
1.18365e-06
1.14291e-06
1.10338e-06
1.06529e-06
1.02875e-06
9.93825e-07
9.60583e-07
9.2907e-07
8.99327e-07
8.71387e-07
8.45262e-07
8.20927e-07
8.01e-07
7.81744e-07
)
;
    }
}


// ************************************************************************* //
