/*--------------------------------*- C++ -*----------------------------------*\
| =========                 |                                                 |
| \\      /  F ield         | OpenFOAM: The Open Source CFD Toolbox           |
|  \\    /   O peration     | Version:  dev                                   |
|   \\  /    A nd           | Web:      www.OpenFOAM.org                      |
|    \\/     M anipulation  |                                                 |
\*---------------------------------------------------------------------------*/
FoamFile
{
    version     2.0;
    format      ascii;
    class       volScalarField;
    location    "0.07";
    object      AR;
}
// * * * * * * * * * * * * * * * * * * * * * * * * * * * * * * * * * * * * * //

dimensions      [0 0 0 0 0 0 0];

internalField   nonuniform List<scalar> 
1989
(
0.690557
0.690557
0.690556
0.690556
0.690555
0.690555
0.690555
0.690554
0.690554
0.690554
0.690554
0.690554
0.690554
0.690554
0.690554
0.690554
0.690554
0.690554
0.690554
0.690554
0.690554
0.690555
0.690555
0.690555
0.690556
0.690556
0.690557
0.690557
0.690558
0.69056
0.690561
0.690563
0.690567
0.690571
0.690578
0.690586
0.690595
0.690611
0.690622
0.690533
0.690522
0.690506
0.690496
0.690488
0.690481
0.690477
0.690473
0.690471
0.690469
0.690468
0.690467
0.690466
0.690466
0.690465
0.690465
0.690464
0.690464
0.690464
0.690464
0.690464
0.690463
0.690463
0.690463
0.690463
0.690463
0.690463
0.690463
0.690463
0.690464
0.690464
0.690464
0.690464
0.690464
0.690465
0.690465
0.690466
0.690466
0.690467
0.690468
0.690469
0.690471
0.690473
0.690477
0.690481
0.690488
0.690496
0.690506
0.690522
0.690533
0.690442
0.69043
0.690413
0.690403
0.690395
0.690388
0.690384
0.69038
0.690378
0.690376
0.690375
0.690374
0.690373
0.690373
0.690372
0.690372
0.690371
0.690371
0.690371
0.69037
0.69037
0.69037
0.69037
0.69037
0.69037
0.69037
0.69037
0.69037
0.69037
0.69037
0.69037
0.690371
0.690371
0.690371
0.690372
0.690372
0.690373
0.690373
0.690374
0.690375
0.690376
0.690378
0.69038
0.690384
0.690388
0.690395
0.690403
0.690413
0.69043
0.690442
0.690347
0.690334
0.690316
0.690306
0.690298
0.69029
0.690287
0.690283
0.69028
0.690278
0.690277
0.690276
0.690275
0.690275
0.690274
0.690274
0.690273
0.690273
0.690273
0.690273
0.690272
0.690272
0.690272
0.690272
0.690272
0.690272
0.690272
0.690272
0.690272
0.690272
0.690273
0.690273
0.690273
0.690273
0.690274
0.690274
0.690275
0.690275
0.690276
0.690277
0.690278
0.69028
0.690282
0.690286
0.69029
0.690297
0.690306
0.690316
0.690334
0.690347
0.690247
0.690236
0.690218
0.690207
0.690199
0.690191
0.690187
0.690183
0.690181
0.690179
0.690178
0.690177
0.690176
0.690175
0.690175
0.690175
0.690174
0.690174
0.690173
0.690173
0.690173
0.690173
0.690173
0.690173
0.690172
0.690172
0.690173
0.690173
0.690173
0.690173
0.690173
0.690173
0.690174
0.690174
0.690174
0.690175
0.690175
0.690176
0.690177
0.690178
0.690179
0.690181
0.690183
0.690187
0.690191
0.690199
0.690207
0.690218
0.690236
0.690247
0.690146
0.690135
0.690115
0.690104
0.690095
0.690088
0.690084
0.69008
0.690077
0.690075
0.690074
0.690073
0.690072
0.690072
0.690071
0.690071
0.69007
0.69007
0.690069
0.690069
0.690069
0.690069
0.690069
0.690068
0.690068
0.690068
0.690068
0.690069
0.690069
0.690069
0.690069
0.690069
0.69007
0.69007
0.69007
0.690071
0.690071
0.690072
0.690073
0.690074
0.690075
0.690077
0.69008
0.690084
0.690088
0.690095
0.690104
0.690115
0.690135
0.690146
0.690043
0.690031
0.690011
0.689999
0.689991
0.689983
0.689979
0.689974
0.689972
0.68997
0.689969
0.689967
0.689967
0.689966
0.689965
0.689965
0.689965
0.689964
0.689964
0.689964
0.689963
0.689963
0.689963
0.689963
0.689963
0.689963
0.689963
0.689963
0.689963
0.689963
0.689964
0.689964
0.689964
0.689965
0.689965
0.689965
0.689966
0.689967
0.689967
0.689968
0.68997
0.689972
0.689974
0.689979
0.689982
0.68999
0.689999
0.690011
0.690031
0.690043
0.689935
0.689922
0.689902
0.68989
0.689881
0.689873
0.689869
0.689864
0.689862
0.68986
0.689858
0.689857
0.689856
0.689856
0.689855
0.689855
0.689854
0.689854
0.689854
0.689853
0.689853
0.689853
0.689853
0.689853
0.689853
0.689853
0.689853
0.689853
0.689853
0.689853
0.689853
0.689854
0.689854
0.689854
0.689855
0.689855
0.689856
0.689856
0.689857
0.689858
0.68986
0.689862
0.689864
0.689869
0.689873
0.689881
0.68989
0.689901
0.689922
0.689935
0.689822
0.689809
0.689788
0.689776
0.689767
0.689759
0.689755
0.689751
0.689748
0.689746
0.689745
0.689743
0.689743
0.689742
0.689741
0.689741
0.68974
0.68974
0.68974
0.68974
0.689739
0.689739
0.689739
0.689739
0.689739
0.689739
0.689739
0.689739
0.689739
0.689739
0.68974
0.68974
0.68974
0.68974
0.689741
0.689741
0.689742
0.689743
0.689743
0.689744
0.689746
0.689748
0.68975
0.689755
0.689759
0.689767
0.689776
0.689788
0.689809
0.689822
0.689707
0.689693
0.689672
0.68966
0.689651
0.689642
0.689638
0.689634
0.689632
0.689629
0.689628
0.689627
0.689626
0.689625
0.689624
0.689624
0.689624
0.689623
0.689623
0.689623
0.689622
0.689622
0.689622
0.689622
0.689622
0.689622
0.689622
0.689622
0.689622
0.689622
0.689623
0.689623
0.689623
0.689623
0.689624
0.689624
0.689625
0.689626
0.689627
0.689628
0.689629
0.689632
0.689634
0.689638
0.689642
0.689651
0.68966
0.689672
0.689693
0.689707
0.689588
0.689574
0.689553
0.689542
0.689533
0.689525
0.689521
0.689516
0.689514
0.689512
0.68951
0.689509
0.689508
0.689507
0.689507
0.689506
0.689506
0.689505
0.689505
0.689505
0.689504
0.689504
0.689504
0.689504
0.689504
0.689504
0.689504
0.689504
0.689504
0.689504
0.689505
0.689505
0.689505
0.689506
0.689506
0.689507
0.689507
0.689508
0.689509
0.68951
0.689511
0.689514
0.689516
0.689521
0.689525
0.689533
0.689542
0.689553
0.689574
0.689588
0.689469
0.689454
0.689433
0.689421
0.689412
0.689403
0.689399
0.689395
0.689392
0.68939
0.689388
0.689387
0.689386
0.689386
0.689385
0.689384
0.689384
0.689384
0.689383
0.689383
0.689382
0.689382
0.689382
0.689382
0.689382
0.689382
0.689382
0.689382
0.689382
0.689382
0.689383
0.689383
0.689383
0.689384
0.689384
0.689385
0.689385
0.689386
0.689387
0.689388
0.68939
0.689392
0.689394
0.689399
0.689403
0.689412
0.689421
0.689433
0.689454
0.689469
0.689344
0.689329
0.68931
0.689298
0.689289
0.68928
0.689276
0.689271
0.689269
0.689266
0.689265
0.689263
0.689262
0.689262
0.689261
0.689261
0.68926
0.68926
0.689259
0.689259
0.689259
0.689258
0.689258
0.689258
0.689258
0.689258
0.689258
0.689258
0.689258
0.689259
0.689259
0.689259
0.68926
0.68926
0.689261
0.689261
0.689262
0.689262
0.689263
0.689264
0.689266
0.689269
0.689271
0.689276
0.68928
0.689289
0.689298
0.68931
0.689328
0.689344
0.689219
0.689203
0.689183
0.689171
0.689162
0.689153
0.689149
0.689144
0.689142
0.68914
0.689138
0.689137
0.689136
0.689135
0.689134
0.689134
0.689133
0.689133
0.689133
0.689132
0.689132
0.689132
0.689132
0.689131
0.689131
0.689131
0.689131
0.689131
0.689132
0.689132
0.689132
0.689133
0.689133
0.689133
0.689134
0.689134
0.689135
0.689136
0.689137
0.689138
0.689139
0.689142
0.689144
0.689149
0.689153
0.689162
0.689171
0.689183
0.689202
0.689219
0.68909
0.689074
0.689054
0.689042
0.689033
0.689024
0.68902
0.689015
0.689013
0.68901
0.689009
0.689007
0.689006
0.689006
0.689005
0.689004
0.689004
0.689004
0.689003
0.689003
0.689002
0.689002
0.689002
0.689002
0.689002
0.689002
0.689002
0.689002
0.689002
0.689002
0.689003
0.689003
0.689004
0.689004
0.689004
0.689005
0.689006
0.689006
0.689007
0.689008
0.68901
0.689013
0.689015
0.68902
0.689024
0.689033
0.689042
0.689054
0.689073
0.68909
0.688959
0.688942
0.688922
0.68891
0.688901
0.688892
0.688888
0.688883
0.688881
0.688878
0.688876
0.688875
0.688874
0.688873
0.688873
0.688872
0.688872
0.688871
0.688871
0.688871
0.68887
0.68887
0.68887
0.68887
0.688869
0.688869
0.68887
0.68887
0.68887
0.68887
0.688871
0.688871
0.688871
0.688872
0.688872
0.688873
0.688873
0.688874
0.688875
0.688876
0.688878
0.688881
0.688883
0.688888
0.688892
0.688901
0.68891
0.688922
0.688942
0.688959
0.688825
0.688807
0.688788
0.688775
0.688766
0.688757
0.688753
0.688748
0.688746
0.688743
0.688742
0.68874
0.688739
0.688739
0.688738
0.688737
0.688737
0.688736
0.688736
0.688736
0.688735
0.688735
0.688735
0.688735
0.688734
0.688734
0.688735
0.688735
0.688735
0.688735
0.688736
0.688736
0.688736
0.688737
0.688737
0.688738
0.688739
0.688739
0.68874
0.688741
0.688743
0.688746
0.688748
0.688753
0.688757
0.688766
0.688775
0.688787
0.688807
0.688824
0.688688
0.68867
0.68865
0.688638
0.688629
0.68862
0.688616
0.688611
0.688609
0.688606
0.688604
0.688603
0.688602
0.688601
0.6886
0.6886
0.688599
0.688599
0.688598
0.688598
0.688598
0.688598
0.688597
0.688597
0.688597
0.688597
0.688597
0.688597
0.688598
0.688598
0.688598
0.688598
0.688599
0.688599
0.6886
0.6886
0.688601
0.688602
0.688603
0.688604
0.688606
0.688608
0.688611
0.688616
0.688619
0.688629
0.688638
0.68865
0.68867
0.688687
0.688548
0.688529
0.68851
0.688497
0.688488
0.688478
0.688475
0.688469
0.688467
0.688465
0.688463
0.688462
0.688461
0.68846
0.688459
0.688459
0.688458
0.688458
0.688457
0.688457
0.688456
0.688456
0.688456
0.688456
0.688456
0.688456
0.688456
0.688456
0.688456
0.688456
0.688457
0.688457
0.688458
0.688458
0.688459
0.688459
0.68846
0.68846
0.688461
0.688463
0.688465
0.688467
0.688469
0.688475
0.688478
0.688488
0.688497
0.68851
0.688529
0.688547
0.688406
0.688387
0.688368
0.688355
0.688346
0.688336
0.688333
0.688327
0.688325
0.688323
0.688321
0.688319
0.688318
0.688318
0.688317
0.688316
0.688316
0.688315
0.688315
0.688315
0.688314
0.688314
0.688314
0.688313
0.688313
0.688313
0.688313
0.688314
0.688314
0.688314
0.688315
0.688315
0.688315
0.688316
0.688316
0.688317
0.688318
0.688318
0.688319
0.688321
0.688322
0.688325
0.688327
0.688333
0.688336
0.688346
0.688354
0.688368
0.688387
0.688405
0.688261
0.688242
0.688223
0.68821
0.688202
0.688192
0.688189
0.688183
0.688181
0.688178
0.688177
0.688175
0.688174
0.688173
0.688173
0.688172
0.688171
0.688171
0.688171
0.68817
0.68817
0.68817
0.688169
0.688169
0.688169
0.688169
0.688169
0.688169
0.68817
0.68817
0.68817
0.688171
0.688171
0.688171
0.688172
0.688173
0.688173
0.688174
0.688175
0.688176
0.688178
0.688181
0.688183
0.688189
0.688192
0.688202
0.68821
0.688223
0.688242
0.688261
0.688115
0.688095
0.688077
0.688064
0.688055
0.688045
0.688042
0.688036
0.688034
0.688032
0.68803
0.688028
0.688027
0.688027
0.688026
0.688025
0.688024
0.688024
0.688024
0.688023
0.688023
0.688023
0.688022
0.688022
0.688022
0.688022
0.688022
0.688022
0.688023
0.688023
0.688023
0.688023
0.688024
0.688024
0.688025
0.688026
0.688026
0.688027
0.688028
0.688029
0.688031
0.688034
0.688036
0.688042
0.688045
0.688055
0.688063
0.688077
0.688095
0.688115
0.687967
0.687947
0.687929
0.687916
0.687908
0.687898
0.687894
0.687889
0.687887
0.687884
0.687882
0.68788
0.687879
0.687879
0.687878
0.687877
0.687877
0.687876
0.687876
0.687875
0.687875
0.687875
0.687874
0.687874
0.687874
0.687874
0.687874
0.687874
0.687875
0.687875
0.687875
0.687876
0.687876
0.687876
0.687877
0.687878
0.687879
0.687879
0.68788
0.687882
0.687884
0.687886
0.687888
0.687894
0.687897
0.687907
0.687915
0.687929
0.687947
0.687967
0.687817
0.687797
0.687779
0.687765
0.687757
0.687748
0.687745
0.687739
0.687737
0.687735
0.687732
0.687731
0.68773
0.687729
0.687728
0.687728
0.687727
0.687727
0.687726
0.687726
0.687726
0.687725
0.687725
0.687725
0.687725
0.687725
0.687725
0.687725
0.687725
0.687725
0.687726
0.687726
0.687727
0.687727
0.687728
0.687728
0.687729
0.68773
0.687731
0.687732
0.687734
0.687737
0.687739
0.687745
0.687747
0.687757
0.687765
0.687778
0.687796
0.687817
0.687666
0.687646
0.687628
0.687614
0.687607
0.687597
0.687594
0.687589
0.687587
0.687584
0.687582
0.687581
0.68758
0.687579
0.687578
0.687577
0.687577
0.687576
0.687576
0.687575
0.687575
0.687575
0.687574
0.687574
0.687574
0.687574
0.687574
0.687574
0.687575
0.687575
0.687575
0.687576
0.687576
0.687577
0.687577
0.687578
0.687579
0.687579
0.68758
0.687582
0.687584
0.687587
0.687589
0.687594
0.687597
0.687606
0.687614
0.687627
0.687645
0.687665
0.687513
0.687493
0.687476
0.687462
0.687455
0.687445
0.687442
0.687437
0.687435
0.687432
0.68743
0.687428
0.687427
0.687427
0.687426
0.687425
0.687424
0.687424
0.687424
0.687423
0.687423
0.687422
0.687422
0.687422
0.687422
0.687422
0.687422
0.687422
0.687422
0.687423
0.687423
0.687423
0.687424
0.687424
0.687425
0.687426
0.687426
0.687427
0.687428
0.68743
0.687432
0.687435
0.687437
0.687442
0.687445
0.687454
0.687462
0.687476
0.687493
0.687513
0.687359
0.687339
0.687321
0.687308
0.687301
0.687291
0.687288
0.687283
0.687281
0.687278
0.687276
0.687274
0.687273
0.687273
0.687272
0.687271
0.687271
0.68727
0.68727
0.687269
0.687269
0.687269
0.687268
0.687268
0.687268
0.687268
0.687268
0.687268
0.687269
0.687269
0.687269
0.68727
0.68727
0.687271
0.687271
0.687272
0.687273
0.687273
0.687274
0.687276
0.687278
0.687281
0.687283
0.687288
0.687291
0.6873
0.687308
0.687321
0.687338
0.687358
0.687203
0.687183
0.687167
0.687153
0.687146
0.687137
0.687134
0.687129
0.687127
0.687125
0.687124
0.687123
0.687122
0.687121
0.68712
0.68712
0.687119
0.687118
0.687118
0.687117
0.687117
0.687117
0.687116
0.687116
0.687116
0.687116
0.687116
0.687116
0.687117
0.687117
0.687117
0.687118
0.687118
0.687119
0.687119
0.68712
0.687121
0.687122
0.687123
0.687124
0.687125
0.687127
0.687129
0.687134
0.687137
0.687146
0.687153
0.687166
0.687183
0.687203
0.68705
0.687031
0.687015
0.687002
0.686995
0.686986
0.686983
0.686978
0.686976
0.686974
0.686973
0.686971
0.68697
0.68697
0.686969
0.686968
0.686968
0.686967
0.686967
0.686966
0.686966
0.686965
0.686965
0.686965
0.686965
0.686965
0.686965
0.686965
0.686965
0.686966
0.686966
0.686966
0.686967
0.686967
0.686968
0.686969
0.68697
0.68697
0.686971
0.686973
0.686973
0.686976
0.686977
0.686983
0.686986
0.686994
0.687001
0.687014
0.687031
0.68705
0.686898
0.686879
0.686864
0.686851
0.686844
0.686835
0.686833
0.686827
0.686826
0.686823
0.686823
0.686821
0.68682
0.68682
0.686819
0.686818
0.686817
0.686817
0.686816
0.686816
0.686816
0.686815
0.686815
0.686815
0.686814
0.686814
0.686815
0.686815
0.686815
0.686815
0.686816
0.686816
0.686817
0.686817
0.686818
0.686818
0.686819
0.68682
0.686821
0.686822
0.686823
0.686826
0.686827
0.686832
0.686835
0.686844
0.68685
0.686863
0.686879
0.686898
0.686748
0.686729
0.686714
0.686702
0.686695
0.686687
0.686684
0.686679
0.686677
0.686675
0.686674
0.686673
0.686672
0.686671
0.68667
0.68667
0.686669
0.686669
0.686668
0.686668
0.686667
0.686667
0.686666
0.686666
0.686666
0.686666
0.686666
0.686666
0.686667
0.686667
0.686667
0.686668
0.686668
0.686669
0.68667
0.68667
0.686671
0.686672
0.686673
0.686674
0.686675
0.686677
0.686679
0.686684
0.686686
0.686695
0.686701
0.686714
0.686729
0.686748
0.686599
0.686581
0.686566
0.686554
0.686548
0.68654
0.686537
0.686532
0.686531
0.686528
0.686528
0.686526
0.686525
0.686524
0.686524
0.686523
0.686522
0.686522
0.686521
0.686521
0.68652
0.68652
0.68652
0.686519
0.686519
0.686519
0.686519
0.68652
0.68652
0.68652
0.686521
0.686521
0.686522
0.686522
0.686523
0.686523
0.686524
0.686525
0.686526
0.686527
0.686528
0.68653
0.686532
0.686537
0.686539
0.686547
0.686554
0.686566
0.686581
0.686599
0.686453
0.686436
0.686423
0.686411
0.686405
0.686397
0.686395
0.68639
0.686388
0.686386
0.686385
0.686384
0.686383
0.686382
0.686381
0.686381
0.68638
0.68638
0.686379
0.686379
0.686378
0.686378
0.686377
0.686377
0.686377
0.686377
0.686377
0.686377
0.686378
0.686378
0.686378
0.686379
0.686379
0.68638
0.686381
0.686381
0.686382
0.686383
0.686384
0.686385
0.686386
0.686388
0.68639
0.686394
0.686397
0.686405
0.686411
0.686423
0.686435
0.686453
0.686314
0.686297
0.686284
0.686273
0.686267
0.686259
0.686257
0.686252
0.686251
0.686248
0.686247
0.686246
0.686245
0.686244
0.686244
0.686243
0.686242
0.686242
0.686241
0.686241
0.68624
0.68624
0.68624
0.686239
0.686239
0.686239
0.686239
0.68624
0.68624
0.68624
0.686241
0.686241
0.686242
0.686242
0.686243
0.686243
0.686244
0.686245
0.686246
0.686247
0.686248
0.68625
0.686252
0.686256
0.686259
0.686266
0.686272
0.686284
0.686296
0.686313
0.68618
0.686164
0.686152
0.686141
0.686135
0.686128
0.686125
0.686121
0.686119
0.686117
0.686116
0.686115
0.686114
0.686113
0.686112
0.686112
0.686111
0.686111
0.68611
0.68611
0.686109
0.686109
0.686108
0.686108
0.686108
0.686108
0.686108
0.686108
0.686109
0.686109
0.686109
0.68611
0.68611
0.686111
0.686112
0.686112
0.686113
0.686114
0.686115
0.686116
0.686117
0.686119
0.68612
0.686125
0.686127
0.686134
0.68614
0.686151
0.686163
0.686179
0.686055
0.686039
0.686028
0.686017
0.686011
0.686004
0.686002
0.685998
0.685996
0.685994
0.685993
0.685992
0.685991
0.68599
0.685989
0.685989
0.685988
0.685987
0.685987
0.685986
0.685986
0.685986
0.685985
0.685985
0.685985
0.685985
0.685985
0.685985
0.685986
0.685986
0.685986
0.685987
0.685987
0.685988
0.685988
0.685989
0.68599
0.685991
0.685992
0.685993
0.685994
0.685996
0.685997
0.686001
0.686004
0.686011
0.686016
0.686027
0.686038
0.686054
0.68594
0.685924
0.685914
0.685904
0.685898
0.685892
0.685889
0.685885
0.685884
0.685882
0.685881
0.685879
0.685878
0.685878
0.685877
0.685876
0.685876
0.685875
0.685874
0.685874
0.685874
0.685873
0.685873
0.685873
0.685872
0.685872
0.685872
0.685873
0.685873
0.685873
0.685874
0.685874
0.685875
0.685875
0.685876
0.685877
0.685877
0.685878
0.685879
0.68588
0.685881
0.685883
0.685885
0.685889
0.685891
0.685898
0.685903
0.685913
0.685924
0.685939
0.68584
0.685824
0.685815
0.685805
0.685799
0.685793
0.685791
0.685787
0.685785
0.685783
0.685782
0.685781
0.68578
0.685779
0.685779
0.685778
0.685777
0.685777
0.685776
0.685776
0.685775
0.685775
0.685775
0.685774
0.685774
0.685774
0.685774
0.685775
0.685775
0.685775
0.685776
0.685776
0.685777
0.685777
0.685778
0.685778
0.685779
0.68578
0.685781
0.685782
0.685783
0.685785
0.685786
0.68579
0.685793
0.685799
0.685804
0.685814
0.685824
0.685839
0.685759
0.685744
0.685735
0.685726
0.68572
0.685715
0.685712
0.685708
0.685707
0.685705
0.685704
0.685703
0.685702
0.685701
0.6857
0.6857
0.685699
0.685698
0.685698
0.685697
0.685697
0.685697
0.685696
0.685696
0.685696
0.685696
0.685696
0.685696
0.685696
0.685697
0.685697
0.685698
0.685698
0.685699
0.685699
0.6857
0.685701
0.685701
0.685702
0.685704
0.685705
0.685706
0.685708
0.685711
0.685714
0.68572
0.685725
0.685734
0.685743
0.685759
0.685709
0.685693
0.685685
0.685676
0.68567
0.685665
0.685662
0.685659
0.685657
0.685656
0.685654
0.685653
0.685652
0.685652
0.685651
0.68565
0.685649
0.685649
0.685648
0.685648
0.685647
0.685647
0.685647
0.685646
0.685646
0.685646
0.685646
0.685647
0.685647
0.685647
0.685648
0.685648
0.685649
0.685649
0.68565
0.68565
0.685651
0.685652
0.685653
0.685654
0.685655
0.685657
0.685658
0.685662
0.685665
0.68567
0.685675
0.685684
0.685692
0.685708
)
;

boundaryField
{
    fuel
    {
        type            fixedValue;
        value           nonuniform 0();
    }
    wall
    {
        type            zeroGradient;
    }
    outlet
    {
        type            zeroGradient;
    }
    frontAndBack
    {
        type            empty;
    }
    procBoundary3to2
    {
        type            processor;
        value           nonuniform List<scalar> 
51
(
0.690645
0.690644
0.690644
0.690643
0.690643
0.690642
0.690642
0.690642
0.690642
0.690642
0.690641
0.690641
0.690641
0.690641
0.690641
0.690641
0.690641
0.690641
0.690642
0.690642
0.690642
0.690642
0.690642
0.690643
0.690643
0.690644
0.690644
0.690645
0.690646
0.690647
0.690649
0.690651
0.690654
0.690658
0.690665
0.690672
0.690682
0.690697
0.690707
0.690622
0.690611
0.690595
0.690586
0.690578
0.690571
0.690567
0.690564
0.690561
0.69056
0.690558
0.690558
)
;
    }
}


// ************************************************************************* //
