/*--------------------------------*- C++ -*----------------------------------*\
| =========                 |                                                 |
| \\      /  F ield         | OpenFOAM: The Open Source CFD Toolbox           |
|  \\    /   O peration     | Version:  dev                                   |
|   \\  /    A nd           | Web:      www.OpenFOAM.org                      |
|    \\/     M anipulation  |                                                 |
\*---------------------------------------------------------------------------*/
FoamFile
{
    version     2.0;
    format      ascii;
    class       volScalarField;
    location    "0.07";
    object      CH3OH;
}
// * * * * * * * * * * * * * * * * * * * * * * * * * * * * * * * * * * * * * //

dimensions      [0 0 0 0 0 0 0];

internalField   nonuniform List<scalar> 
25
(
2.89119e-09
2.86241e-09
2.80744e-09
2.72541e-09
2.61684e-09
2.48366e-09
2.32978e-09
2.15471e-09
1.97314e-09
1.78681e-09
1.60341e-09
1.42977e-09
1.27141e-09
1.13207e-09
1.01311e-09
9.13435e-10
8.29633e-10
7.56618e-10
6.88434e-10
6.19068e-10
5.43116e-10
4.56275e-10
3.55567e-10
2.39487e-10
1.16525e-10
)
;

boundaryField
{
    wall
    {
        type            zeroGradient;
    }
    fuel
    {
        type            fixedValue;
        value           nonuniform 0();
    }
    outlet
    {
        type            inletOutlet;
        inletValue      uniform 0;
        value           uniform 1.16525e-10;
    }
    procBoundary3to2
    {
        type            processor;
        value           uniform 2.89466e-09;
    }
}


// ************************************************************************* //
