/*--------------------------------*- C++ -*----------------------------------*\
| =========                 |                                                 |
| \\      /  F ield         | OpenFOAM: The Open Source CFD Toolbox           |
|  \\    /   O peration     | Version:  dev                                   |
|   \\  /    A nd           | Web:      www.OpenFOAM.org                      |
|    \\/     M anipulation  |                                                 |
\*---------------------------------------------------------------------------*/
FoamFile
{
    version     2.0;
    format      ascii;
    class       volScalarField;
    location    "0.07";
    object      H2O;
}
// * * * * * * * * * * * * * * * * * * * * * * * * * * * * * * * * * * * * * //

dimensions      [0 0 0 0 0 0 0];

internalField   nonuniform List<scalar> 
25
(
0.025752
0.0251033
0.0244468
0.0237736
0.0230821
0.0223716
0.0216435
0.0208732
0.0200973
0.0192914
0.0184559
0.0175891
0.0166887
0.015752
0.0147758
0.0137568
0.0126911
0.0115743
0.010401
0.00916429
0.00785392
0.00645425
0.00494111
0.0032868
0.00158776
)
;

boundaryField
{
    wall
    {
        type            zeroGradient;
    }
    fuel
    {
        type            fixedValue;
        value           nonuniform 0();
    }
    outlet
    {
        type            inletOutlet;
        inletValue      uniform 0;
        value           uniform 0.00158776;
    }
    procBoundary3to2
    {
        type            processor;
        value           uniform 0.0263798;
    }
}


// ************************************************************************* //
