/*--------------------------------*- C++ -*----------------------------------*\
| =========                 |                                                 |
| \\      /  F ield         | OpenFOAM: The Open Source CFD Toolbox           |
|  \\    /   O peration     | Version:  dev                                   |
|   \\  /    A nd           | Web:      www.OpenFOAM.org                      |
|    \\/     M anipulation  |                                                 |
\*---------------------------------------------------------------------------*/
FoamFile
{
    version     2.0;
    format      ascii;
    class       volScalarField;
    location    "0.07";
    object      HCCOH;
}
// * * * * * * * * * * * * * * * * * * * * * * * * * * * * * * * * * * * * * //

dimensions      [0 0 0 0 0 0 0];

internalField   nonuniform List<scalar> 
25
(
4.23217e-10
3.48743e-10
2.83087e-10
2.25665e-10
1.76464e-10
1.35232e-10
1.01566e-10
7.39556e-11
5.29652e-11
3.69248e-11
2.50573e-11
1.65565e-11
1.06704e-11
6.737e-12
4.20136e-12
2.62066e-12
1.66078e-12
1.08478e-12
7.35725e-13
5.16788e-13
3.71724e-13
2.68704e-13
1.88951e-13
1.20214e-13
5.76636e-14
)
;

boundaryField
{
    wall
    {
        type            zeroGradient;
    }
    fuel
    {
        type            fixedValue;
        value           nonuniform 0();
    }
    outlet
    {
        type            inletOutlet;
        inletValue      uniform 0;
        value           uniform 5.76636e-14;
    }
    procBoundary3to2
    {
        type            processor;
        value           uniform 5.04468e-10;
    }
}


// ************************************************************************* //
