/*--------------------------------*- C++ -*----------------------------------*\
| =========                 |                                                 |
| \\      /  F ield         | OpenFOAM: The Open Source CFD Toolbox           |
|  \\    /   O peration     | Version:  dev                                   |
|   \\  /    A nd           | Web:      www.OpenFOAM.org                      |
|    \\/     M anipulation  |                                                 |
\*---------------------------------------------------------------------------*/
FoamFile
{
    version     2.0;
    format      ascii;
    class       volScalarField;
    location    "0.07";
    object      HCO;
}
// * * * * * * * * * * * * * * * * * * * * * * * * * * * * * * * * * * * * * //

dimensions      [0 0 0 0 0 0 0];

internalField   nonuniform List<scalar> 
250
(
2.06507e-05
2.06499e-05
2.06506e-05
2.06494e-05
2.06499e-05
2.0649e-05
2.06499e-05
2.06578e-05
2.07611e-05
2.34605e-05
3.1069e-09
5.78132e-06
5.78222e-06
5.78128e-06
5.78208e-06
5.78119e-06
5.7818e-06
5.78138e-06
5.78513e-06
5.79492e-06
6.28543e-06
4.13559e-09
1.7266e-06
1.72745e-06
1.72658e-06
1.72744e-06
1.72668e-06
1.72731e-06
1.72686e-06
1.72961e-06
1.72479e-06
1.83813e-06
1.19945e-08
6.7334e-07
6.739e-07
6.73367e-07
6.73916e-07
6.73458e-07
6.7388e-07
6.736e-07
6.7543e-07
6.69187e-07
6.75798e-07
4.84727e-08
3.54866e-07
3.55229e-07
3.54923e-07
3.55239e-07
3.54986e-07
3.55263e-07
3.55071e-07
3.56328e-07
3.51241e-07
3.2202e-07
1.18463e-07
2.36099e-07
2.36347e-07
2.36176e-07
2.36346e-07
2.36233e-07
2.36394e-07
2.36296e-07
2.37155e-07
2.29599e-07
1.91509e-07
1.59918e-07
1.82916e-07
1.83089e-07
1.83007e-07
1.83079e-07
1.83074e-07
1.83129e-07
1.8314e-07
1.83663e-07
1.77363e-07
1.35134e-07
1.22326e-07
1.55726e-07
1.55846e-07
1.55826e-07
1.55825e-07
1.55911e-07
1.5587e-07
1.55989e-07
1.5615e-07
1.50818e-07
1.08543e-07
7.06599e-08
1.405e-07
1.40577e-07
1.40604e-07
1.40546e-07
1.40709e-07
1.40584e-07
1.40798e-07
1.40553e-07
1.34173e-07
9.39327e-08
4.54783e-08
1.30283e-07
1.30313e-07
1.30383e-07
1.30266e-07
1.30523e-07
1.30298e-07
1.30719e-07
1.30405e-07
1.24932e-07
8.75179e-08
3.65109e-08
1.23273e-07
1.23378e-07
1.23217e-07
1.23544e-07
1.23236e-07
1.23776e-07
1.23149e-07
1.18377e-07
8.44791e-08
3.29656e-08
1.18021e-07
1.18156e-07
1.17955e-07
1.18347e-07
1.17965e-07
1.18617e-07
1.17758e-07
1.13364e-07
8.33183e-08
3.17338e-08
1.13752e-07
1.13914e-07
1.13678e-07
1.14129e-07
1.13682e-07
1.14439e-07
1.13394e-07
1.09324e-07
8.30198e-08
3.30073e-08
1.10038e-07
1.10225e-07
1.09954e-07
1.10462e-07
1.09955e-07
1.10811e-07
1.09608e-07
1.05818e-07
8.29953e-08
3.6777e-08
1.06635e-07
1.06848e-07
1.06543e-07
1.07107e-07
1.06543e-07
1.07493e-07
1.06152e-07
1.02602e-07
8.28624e-08
4.26425e-08
1.03404e-07
1.03642e-07
1.03302e-07
1.03921e-07
1.03303e-07
1.04342e-07
1.02884e-07
9.95413e-08
8.23906e-08
4.99091e-08
1.00253e-07
1.00516e-07
1.00139e-07
1.00814e-07
1.00142e-07
1.01269e-07
9.97148e-08
9.6555e-08
8.14683e-08
5.74308e-08
9.712e-08
9.74089e-08
9.69922e-08
9.77231e-08
9.69982e-08
9.82096e-08
9.65823e-08
9.35907e-08
8.0079e-08
6.38676e-08
9.39575e-08
9.42703e-08
9.38159e-08
9.45991e-08
9.38245e-08
9.51162e-08
9.34362e-08
9.06056e-08
7.79855e-08
6.81528e-08
9.07222e-08
9.10567e-08
9.05708e-08
9.13978e-08
9.05824e-08
9.1945e-08
9.02305e-08
8.75581e-08
7.59059e-08
6.9844e-08
8.73704e-08
8.77235e-08
8.72179e-08
8.80747e-08
8.72339e-08
8.86521e-08
8.69164e-08
8.47847e-08
7.341e-08
6.91151e-08
8.38511e-08
8.42197e-08
8.37084e-08
8.45787e-08
8.37301e-08
8.51865e-08
8.34316e-08
8.16661e-08
7.09323e-08
6.65494e-08
8.0558e-08
8.09476e-08
8.04268e-08
8.13169e-08
8.04588e-08
8.19525e-08
8.0218e-08
7.83514e-08
6.83396e-08
6.28459e-08
7.67575e-08
7.71895e-08
7.66387e-08
7.75919e-08
7.66775e-08
7.83217e-08
7.65237e-08
7.5253e-08
6.53889e-08
5.8624e-08
)
;

boundaryField
{
    fuel
    {
        type            fixedValue;
        value           uniform 0;
    }
    wall
    {
        type            zeroGradient;
    }
    outlet
    {
        type            zeroGradient;
    }
    frontAndBack
    {
        type            empty;
    }
    procBoundary3to0
    {
        type            processor;
        value           nonuniform List<scalar> 10(7.30704e-08 7.35315e-08 7.29606e-08 7.39471e-08 7.30074e-08 7.47133e-08 7.29374e-08 7.17289e-08 6.23475e-08 5.43991e-08);
    }
    procBoundary3to2
    {
        type            processor;
        value           nonuniform List<scalar> 
25
(
2.06501e-05
5.78196e-06
1.72727e-06
6.73806e-07
3.55174e-07
2.36308e-07
1.83061e-07
1.55829e-07
1.40574e-07
1.30325e-07
1.23286e-07
1.23286e-07
1.18055e-07
1.13812e-07
1.1012e-07
1.06734e-07
1.03515e-07
1.00373e-07
9.72485e-08
9.40925e-08
9.08621e-08
8.75133e-08
8.39955e-08
8.07057e-08
7.69186e-08
)
;
    }
}


// ************************************************************************* //
