/*--------------------------------*- C++ -*----------------------------------*\
| =========                 |                                                 |
| \\      /  F ield         | OpenFOAM: The Open Source CFD Toolbox           |
|  \\    /   O peration     | Version:  dev                                   |
|   \\  /    A nd           | Web:      www.OpenFOAM.org                      |
|    \\/     M anipulation  |                                                 |
\*---------------------------------------------------------------------------*/
FoamFile
{
    version     2.0;
    format      ascii;
    class       volScalarField;
    location    "0.07";
    object      PC3H4;
}
// * * * * * * * * * * * * * * * * * * * * * * * * * * * * * * * * * * * * * //

dimensions      [0 0 0 0 0 0 0];

internalField   nonuniform List<scalar> 
25
(
2.85977e-12
3.0569e-12
3.27153e-12
3.51242e-12
3.79078e-12
4.1217e-12
4.52335e-12
5.03632e-12
5.66637e-12
6.46655e-12
7.48124e-12
8.76405e-12
1.03735e-11
1.2361e-11
1.47457e-11
1.74736e-11
2.03723e-11
2.31227e-11
2.52781e-11
2.63357e-11
2.58468e-11
2.35388e-11
1.9376e-11
1.35081e-11
6.68646e-12
)
;

boundaryField
{
    wall
    {
        type            zeroGradient;
    }
    fuel
    {
        type            fixedValue;
        value           nonuniform 0();
    }
    outlet
    {
        type            inletOutlet;
        inletValue      uniform 0;
        value           uniform 6.68646e-12;
    }
    procBoundary3to2
    {
        type            processor;
        value           uniform 2.66756e-12;
    }
}


// ************************************************************************* //
