/*--------------------------------*- C++ -*----------------------------------*\
| =========                 |                                                 |
| \\      /  F ield         | OpenFOAM: The Open Source CFD Toolbox           |
|  \\    /   O peration     | Version:  dev                                   |
|   \\  /    A nd           | Web:      www.OpenFOAM.org                      |
|    \\/     M anipulation  |                                                 |
\*---------------------------------------------------------------------------*/
FoamFile
{
    version     2.0;
    format      ascii;
    class       volVectorField;
    location    "0.07";
    object      U;
}
// * * * * * * * * * * * * * * * * * * * * * * * * * * * * * * * * * * * * * //

dimensions      [0 1 -1 0 0 0 0];

internalField   nonuniform List<vector> 
250
(
(0 0.00380031 0.489702)
(0 -0.00581337 0.489722)
(0 -0.0140143 0.489772)
(0 -0.0210774 0.489706)
(0 -0.0318797 0.489585)
(0 -0.0349389 0.489846)
(0 -0.0515067 0.489223)
(0 -0.0466832 0.490169)
(0 -0.0774905 0.487559)
(0 -0.0558278 0.474202)
(0 -0.0752684 0.121268)
(0 0.00677003 0.688216)
(0 -0.0106918 0.688193)
(0 -0.0259281 0.68837)
(0 -0.0389979 0.688171)
(0 -0.0584569 0.688083)
(0 -0.0647588 0.688447)
(0 -0.0940365 0.687314)
(0 -0.0872781 0.689041)
(0 -0.138657 0.684669)
(0 -0.0894517 0.661712)
(0 -0.122409 0.155602)
(0 0.00936141 0.734039)
(0 -0.0153983 0.733903)
(0 -0.037638 0.734301)
(0 -0.0565302 0.733936)
(0 -0.0839524 0.734675)
(0 -0.0939311 0.735073)
(0 -0.134459 0.73342)
(0 -0.127513 0.736042)
(0 -0.194086 0.729859)
(0 -0.121521 0.693413)
(0 -0.135748 0.182954)
(0 0.0112895 0.727725)
(0 -0.0193423 0.727435)
(0 -0.0476909 0.728077)
(0 -0.0715292 0.727475)
(0 -0.109037 0.728127)
(0 -0.123057 0.728465)
(0 -0.173811 0.72653)
(0 -0.16807 0.729846)
(0 -0.245841 0.722806)
(0 -0.155593 0.676991)
(0 -0.140742 0.209935)
(0 0.013129 0.722117)
(0 -0.0236798 0.721619)
(0 -0.0590921 0.722563)
(0 -0.088387 0.721587)
(0 -0.133812 0.722333)
(0 -0.15219 0.722573)
(0 -0.212325 0.720509)
(0 -0.208933 0.724445)
(0 -0.294842 0.717256)
(0 -0.192924 0.666619)
(0 -0.146529 0.238978)
(0 0.0146499 0.720353)
(0 -0.0278799 0.719646)
(0 -0.0705195 0.720895)
(0 -0.105119 0.719533)
(0 -0.158278 0.720388)
(0 -0.181271 0.72049)
(0 -0.25007 0.718358)
(0 -0.249947 0.72298)
(0 -0.341702 0.716099)
(0 -0.232066 0.664523)
(0 -0.157545 0.270206)
(0 0.0158824 0.718189)
(0 -0.0319269 0.717303)
(0 -0.0819448 0.71883)
(0 -0.1217 0.717109)
(0 -0.182435 0.718223)
(0 -0.210219 0.718171)
(0 -0.287073 0.716002)
(0 -0.290943 0.721444)
(0 -0.386909 0.715216)
(0 -0.272668 0.665461)
(0 -0.176452 0.30342)
(0 0.016868 0.714656)
(0 -0.0358106 0.713541)
(0 -0.0933333 0.715394)
(0 -0.138099 0.713263)
(0 -0.206269 0.714705)
(0 -0.238954 0.714456)
(0 -0.323362 0.712273)
(0 -0.331776 0.718714)
(0 -0.430854 0.713388)
(0 -0.314598 0.667373)
(0 -0.204389 0.338799)
(0 0.0176486 0.710143)
(0 -0.0395247 0.708756)
(0 -0.104648 0.710971)
(0 -0.154277 0.708391)
(0 -0.229763 0.710179)
(0 -0.2674 0.709709)
(0 -0.358959 0.70752)
(0 -0.372323 0.715146)
(0 -0.473864 0.71088)
(0 -0.357799 0.669908)
(0 -0.241217 0.37695)
(0 0.0182802 0.704876)
(0 -0.0430664 0.70328)
(0 -0.115852 0.705798)
(0 -0.170206 0.702823)
(0 -0.252901 0.704928)
(0 -0.295492 0.704268)
(0 -0.393884 0.702063)
(0 -0.412479 0.711048)
(0 -0.516214 0.707944)
(0 -0.402274 0.672911)
(0 -0.285899 0.418094)
(0 -0.0464361 0.697201)
(0 -0.126907 0.699982)
(0 -0.185858 0.696647)
(0 -0.275666 0.699042)
(0 -0.323175 0.698226)
(0 -0.428154 0.695979)
(0 -0.452155 0.70649)
(0 -0.558135 0.704605)
(0 -0.448048 0.676146)
(0 -0.336987 0.460799)
(0 -0.0496342 0.690533)
(0 -0.13778 0.693544)
(0 -0.201207 0.689875)
(0 -0.298044 0.692546)
(0 -0.350401 0.6916)
(0 -0.461786 0.689281)
(0 -0.491276 0.701468)
(0 -0.599815 0.700806)
(0 -0.495088 0.679326)
(0 -0.393168 0.501975)
(0 -0.0526619 0.683283)
(0 -0.148438 0.68649)
(0 -0.216231 0.682517)
(0 -0.320019 0.685447)
(0 -0.377127 0.684399)
(0 -0.494794 0.681973)
(0 -0.529781 0.695968)
(0 -0.641398 0.696487)
(0 -0.543253 0.682147)
(0 -0.453553 0.538572)
(0 -0.0555196 0.675453)
(0 -0.158852 0.678819)
(0 -0.230908 0.67457)
(0 -0.341578 0.677745)
(0 -0.40332 0.676624)
(0 -0.527189 0.674056)
(0 -0.567611 0.689957)
(0 -0.682989 0.691586)
(0 -0.592331 0.684328)
(0 -0.517596 0.569204)
(0 -0.0582076 0.667041)
(0 -0.168999 0.670533)
(0 -0.245221 0.666037)
(0 -0.362706 0.669442)
(0 -0.428946 0.668277)
(0 -0.558986 0.665531)
(0 -0.604715 0.683401)
(0 -0.72465 0.686041)
(0 -0.642124 0.685654)
(0 -0.584832 0.594088)
(0 -0.0607262 0.658047)
(0 -0.178857 0.661633)
(0 -0.259158 0.656916)
(0 -0.383389 0.66054)
(0 -0.453975 0.659354)
(0 -0.590202 0.656401)
(0 -0.641046 0.676263)
(0 -0.766407 0.679802)
(0 -0.692497 0.685994)
(0 -0.654725 0.614013)
(0 -0.0630764 0.648465)
(0 -0.188413 0.652116)
(0 -0.272707 0.647203)
(0 -0.403616 0.651037)
(0 -0.478389 0.649851)
(0 -0.620843 0.646663)
(0 -0.676562 0.668504)
(0 -0.808252 0.672814)
(0 -0.743405 0.685223)
(0 -0.726615 0.629721)
(0 -0.0652605 0.638285)
(0 -0.197656 0.64198)
(0 -0.285864 0.636891)
(0 -0.423372 0.640932)
(0 -0.502181 0.639758)
(0 -0.650909 0.636315)
(0 -0.711229 0.660085)
(0 -0.850131 0.665019)
(0 -0.794892 0.683392)
(0 -0.79975 0.641567)
(0 -0.0672826 0.627497)
(0 -0.206581 0.631218)
(0 -0.298625 0.625971)
(0 -0.442646 0.630218)
(0 -0.525351 0.629063)
(0 -0.680394 0.625355)
(0 -0.745025 0.65097)
(0 -0.891942 0.656356)
(0 -0.846774 0.680375)
(0 -0.873629 0.649967)
(0 -0.0691491 0.616088)
(0 -0.215187 0.619823)
(0 -0.310993 0.614431)
(0 -0.461426 0.618887)
(0 -0.547904 0.617751)
(0 -0.709283 0.613778)
(0 -0.77794 0.641123)
(0 -0.933547 0.64677)
(0 -0.898818 0.676122)
(0 -0.947814 0.655237)
(0 -0.0708689 0.604047)
(0 -0.223477 0.607788)
(0 -0.32297 0.602262)
(0 -0.4797 0.606931)
(0 -0.569848 0.60581)
(0 -0.737556 0.60158)
(0 -0.809982 0.630512)
(0 -0.974775 0.63622)
(0 -0.950757 0.670628)
(0 -1.02191 0.657618)
(0 -0.0724526 0.59138)
(0 -0.231457 0.595125)
(0 -0.334561 0.589476)
(0 -0.497457 0.594362)
(0 -0.591193 0.593245)
(0 -0.765186 0.588776)
(0 -0.841167 0.619116)
(0 -1.01543 0.624685)
(0 -1.00227 0.663842)
(0 -1.09563 0.657321)
(0 -0.0739128 0.578088)
(0 -0.239133 0.581838)
(0 -0.34577 0.576072)
(0 -0.51468 0.581182)
(0 -0.611944 0.580054)
(0 -0.792134 0.575369)
(0 -0.871516 0.606937)
(0 -1.0553 0.612071)
(0 -1.05294 0.655778)
(0 -1.16878 0.654525)
(0 -0.0752623 0.564149)
(0 -0.246513 0.567907)
(0 -0.3566 0.56203)
(0 -0.531355 0.567368)
(0 -0.632105 0.566212)
(0 -0.818356 0.561343)
(0 -0.901041 0.593966)
(0 -1.09417 0.598365)
(0 -1.10225 0.646373)
(0 -1.24132 0.649367)
)
;

boundaryField
{
    fuel
    {
        type            fixedValue;
        value           uniform (0 0 0.1055);
    }
    wall
    {
        type            slip;
    }
    outlet
    {
        type            pressureInletOutletVelocity;
        value           nonuniform List<vector> 
24
(
(0 -0.0752684 0.121268)
(0 -0.122409 0.155602)
(0 -0.135748 0.182954)
(0 -0.140742 0.209935)
(0 -0.146529 0.238978)
(0 -0.157545 0.270206)
(0 -0.176452 0.30342)
(0 -0.204389 0.338799)
(0 -0.241217 0.37695)
(0 -0.285899 0.418094)
(0 -0.336987 0.460799)
(0 -0.393168 0.501975)
(0 -0.453553 0.538572)
(0 -0.517596 0.569204)
(0 -0.584832 0.594088)
(0 -0.654725 0.614013)
(0 -0.726615 0.629721)
(0 -0.79975 0.641567)
(0 -0.873629 0.649967)
(0 -0.947814 0.655237)
(0 -1.02191 0.657618)
(0 -1.09563 0.657321)
(0 -1.16878 0.654525)
(0 -1.24132 0.649367)
)
;
    }
    frontAndBack
    {
        type            empty;
    }
    procBoundary3to0
    {
        type            processor;
        value           nonuniform List<vector> 10((0 -0.0765135 0.549558) (0 -0.253605 0.553331) (0 -0.36705 0.54735) (0 -0.547463 0.552916) (0 -0.651672 0.551712) (0 -0.8438 0.546692) (0 -0.929728 0.580179) (0 -1.13198 0.583811) (0 -1.15004 0.635442) (0 -1.31277 0.64198));
    }
    procBoundary3to2
    {
        type            processor;
        value           nonuniform List<vector> 
25
(
(0 0.0100621 0.489917)
(0 0.0185704 0.688629)
(0 0.0268968 0.734553)
(0 0.0340501 0.72825)
(0 0.0422181 0.722624)
(0 0.0505119 0.720853)
(0 0.0589546 0.718759)
(0 0.0675566 0.715224)
(0 0.0763063 0.710639)
(0 0.085192 0.705405)
(0 0.0188207 0.698958)
(0 0.0188207 0.698958)
(0 0.0193281 0.692414)
(0 0.0198582 0.685241)
(0 0.0204625 0.677442)
(0 0.0211855 0.669016)
(0 0.0220626 0.659963)
(0 0.0231193 0.65028)
(0 0.0243699 0.639965)
(0 0.0258176 0.629013)
(0 0.0274549 0.617417)
(0 0.0292649 0.605173)
(0 0.0312222 0.592295)
(0 0.0332952 0.578789)
(0 0.0354473 0.564638)
)
;
    }
}


// ************************************************************************* //
