/*--------------------------------*- C++ -*----------------------------------*\
| =========                 |                                                 |
| \\      /  F ield         | OpenFOAM: The Open Source CFD Toolbox           |
|  \\    /   O peration     | Version:  dev                                   |
|   \\  /    A nd           | Web:      www.OpenFOAM.org                      |
|    \\/     M anipulation  |                                                 |
\*---------------------------------------------------------------------------*/
FoamFile
{
    version     2.0;
    format      ascii;
    class       volScalarField;
    location    "0.045";
    object      A2C2HB*;
}
// * * * * * * * * * * * * * * * * * * * * * * * * * * * * * * * * * * * * * //

dimensions      [0 0 0 0 0 0 0];

internalField   nonuniform List<scalar> 
250
(
1.53583e-11
1.86666e-09
1.49082e-09
1.43549e-09
1.42766e-09
1.42675e-09
1.42661e-09
1.42653e-09
1.42562e-09
1.0508e-11
1.42065e-09
9.79326e-10
9.21569e-10
9.14072e-10
9.13313e-10
9.12944e-10
9.13007e-10
9.12744e-10
3.87976e-12
8.70249e-10
5.28465e-10
4.85988e-10
4.8025e-10
4.79806e-10
4.79537e-10
4.79599e-10
4.79514e-10
1.49228e-12
5.35367e-10
2.86252e-10
2.56463e-10
2.52539e-10
2.52296e-10
2.52133e-10
2.52167e-10
2.52144e-10
7.6593e-13
3.51316e-10
1.63183e-10
1.43856e-10
1.41369e-10
1.41251e-10
1.41158e-10
1.41171e-10
1.41173e-10
5.20985e-13
2.49345e-10
1.02102e-10
8.53966e-11
8.28106e-11
8.26705e-11
8.26048e-11
8.26049e-11
8.26201e-11
4.30893e-13
1.89192e-10
6.96262e-11
5.59769e-11
5.41018e-11
5.40292e-11
5.39921e-11
5.39868e-11
5.40043e-11
4.24011e-13
1.50649e-10
5.06718e-11
3.94363e-11
3.72679e-11
3.70919e-11
3.70497e-11
3.70363e-11
3.70597e-11
5.71473e-13
1.23822e-10
3.80123e-11
2.914e-11
2.75764e-11
2.74325e-11
2.74011e-11
2.7386e-11
2.74094e-11
1.14785e-12
1.03837e-10
3.06294e-11
2.19931e-11
2.05182e-11
2.03979e-11
2.03749e-11
2.03598e-11
2.0381e-11
2.24927e-12
8.81873e-11
2.54446e-11
1.7117e-11
1.62667e-11
1.61683e-11
1.61506e-11
1.61354e-11
1.61556e-11
1.61539e-11
4.14891e-12
7.55259e-11
2.12563e-11
1.40663e-11
1.31264e-11
1.30118e-11
1.2992e-11
1.29746e-11
1.29968e-11
1.29886e-11
6.3368e-12
6.50969e-11
1.80328e-11
1.15777e-11
1.06862e-11
1.05829e-11
1.05655e-11
1.05486e-11
1.05694e-11
1.05603e-11
8.23756e-12
5.64274e-11
1.57918e-11
9.69236e-12
8.86452e-12
8.76996e-12
8.75406e-12
8.73782e-12
8.75716e-12
8.74826e-12
9.80931e-12
4.91761e-11
1.3808e-11
8.23958e-12
7.47339e-12
7.38556e-12
7.37064e-12
7.35502e-12
7.37307e-12
7.36449e-12
1.11928e-11
4.30889e-11
1.21035e-11
7.09485e-12
6.38777e-12
6.30601e-12
6.29172e-12
6.27671e-12
6.29357e-12
6.28531e-12
1.2429e-11
3.74427e-11
1.06471e-11
6.17337e-12
5.52325e-12
5.4471e-12
5.43324e-12
5.41883e-12
5.43459e-12
5.42662e-12
1.34362e-11
3.22949e-11
9.37955e-12
5.41642e-12
4.82111e-12
4.75026e-12
4.73673e-12
4.72289e-12
4.73762e-12
4.72991e-12
1.40921e-11
2.77938e-11
8.26361e-12
4.78271e-12
4.2398e-12
4.17402e-12
4.16077e-12
4.14752e-12
4.16126e-12
4.15381e-12
1.43201e-11
2.38152e-11
7.27455e-12
4.24278e-12
3.74947e-12
3.6886e-12
3.67564e-12
3.66298e-12
3.67577e-12
3.66858e-12
1.41342e-11
2.07604e-11
6.39525e-12
3.77539e-12
3.32829e-12
3.27221e-12
3.25959e-12
3.24758e-12
3.25939e-12
3.2525e-12
1.36113e-11
1.77894e-11
5.60885e-12
3.36489e-12
2.95964e-12
2.90828e-12
2.89607e-12
2.8848e-12
2.89557e-12
2.88904e-12
1.27917e-11
1.50598e-11
4.90388e-12
2.99926e-12
2.66857e-12
2.62163e-12
2.6099e-12
2.59913e-12
2.6092e-12
2.60292e-12
1.18891e-11
1.28159e-11
4.27309e-12
2.70734e-12
2.39459e-12
2.35172e-12
2.34023e-12
2.32939e-12
2.33938e-12
2.3326e-12
1.09143e-11
1.08093e-11
3.70581e-12
2.42066e-12
2.16403e-12
2.12521e-12
2.11429e-12
2.10399e-12
2.11331e-12
2.10679e-12
9.89376e-12
9.09608e-12
3.25193e-12
2.18479e-12
1.95838e-12
1.92338e-12
1.91308e-12
1.90338e-12
1.912e-12
1.90578e-12
)
;

boundaryField
{
    fuel
    {
        type            fixedValue;
        value           uniform 0;
    }
    wall
    {
        type            zeroGradient;
    }
    outlet
    {
        type            zeroGradient;
    }
    frontAndBack
    {
        type            empty;
    }
    procBoundary2to0
    {
        type            processor;
        value           nonuniform List<scalar> 
12
(
2.10614e-12
8.86667e-12
7.63216e-12
2.85132e-12
1.97347e-12
1.77518e-12
1.74375e-12
1.73415e-12
1.72512e-12
1.733e-12
1.90503e-12
1.72716e-12
)
;
    }
    procBoundary2to3
    {
        type            processor;
        value           nonuniform List<scalar> 
25
(
1.42641e-09
9.12991e-10
4.79593e-10
2.52166e-10
1.41177e-10
8.26129e-11
5.3996e-11
3.70485e-11
2.73995e-11
2.03773e-11
2.03773e-11
1.61425e-11
1.2983e-11
1.05563e-11
8.74487e-12
7.36145e-12
6.28254e-12
5.4241e-12
4.72764e-12
4.15178e-12
3.66678e-12
3.25092e-12
2.88771e-12
2.60179e-12
2.33177e-12
)
;
    }
}


// ************************************************************************* //
