/*--------------------------------*- C++ -*----------------------------------*\
| =========                 |                                                 |
| \\      /  F ield         | OpenFOAM: The Open Source CFD Toolbox           |
|  \\    /   O peration     | Version:  dev                                   |
|   \\  /    A nd           | Web:      www.OpenFOAM.org                      |
|    \\/     M anipulation  |                                                 |
\*---------------------------------------------------------------------------*/
FoamFile
{
    version     2.0;
    format      ascii;
    class       volScalarField;
    location    "0.045";
    object      CH;
}
// * * * * * * * * * * * * * * * * * * * * * * * * * * * * * * * * * * * * * //

dimensions      [0 0 0 0 0 0 0];

internalField   nonuniform List<scalar> 
250
(
1.00227e-09
3.07391e-06
3.61009e-06
3.63876e-06
3.64459e-06
3.64438e-06
3.64412e-06
3.64437e-06
3.6448e-06
9.45317e-10
1.78031e-06
1.98818e-06
2.00626e-06
2.00682e-06
2.00802e-06
2.00724e-06
2.00818e-06
2.00765e-06
4.63492e-10
6.91626e-07
7.70299e-07
7.83113e-07
7.82016e-07
7.82946e-07
7.8211e-07
7.8294e-07
7.82313e-07
2.18474e-10
2.526e-07
2.84997e-07
2.93703e-07
2.92459e-07
2.92775e-07
2.92491e-07
2.92705e-07
2.92372e-07
1.15229e-10
1.00091e-07
1.17442e-07
1.23757e-07
1.2298e-07
1.22311e-07
1.23101e-07
1.22245e-07
1.22126e-07
6.49934e-11
4.69122e-08
5.8621e-08
6.12937e-08
6.09093e-08
6.1961e-08
6.10678e-08
6.1924e-08
6.19113e-08
4.59726e-11
2.67981e-08
3.60095e-08
3.8047e-08
3.82466e-08
3.871e-08
3.84988e-08
3.86924e-08
3.87231e-08
5.16944e-11
1.8569e-08
2.62344e-08
2.76399e-08
2.74422e-08
2.75374e-08
2.75695e-08
2.75403e-08
2.75932e-08
1.08234e-10
1.46182e-08
2.1095e-08
2.24288e-08
2.26407e-08
2.25956e-08
2.26906e-08
2.26081e-08
2.26662e-08
3.34681e-10
1.25383e-08
1.81966e-08
1.9639e-08
1.99944e-08
1.98485e-08
1.99802e-08
1.9868e-08
1.99359e-08
1.06694e-09
1.1473e-08
1.65836e-08
1.77188e-08
1.8184e-08
1.79857e-08
1.81305e-08
1.80114e-08
1.80788e-08
1.80225e-08
2.88279e-09
1.07151e-08
1.53595e-08
1.63963e-08
1.695e-08
1.672e-08
1.68739e-08
1.67499e-08
1.68172e-08
1.67642e-08
6.14823e-09
1.00583e-08
1.43837e-08
1.53859e-08
1.6005e-08
1.5751e-08
1.59137e-08
1.57839e-08
1.58522e-08
1.58e-08
1.03653e-08
9.34788e-09
1.35616e-08
1.45366e-08
1.52055e-08
1.49302e-08
1.51021e-08
1.49653e-08
1.50358e-08
1.49832e-08
1.40946e-08
8.6418e-09
1.28258e-08
1.37705e-08
1.44776e-08
1.41815e-08
1.43631e-08
1.42183e-08
1.42918e-08
1.42379e-08
1.59595e-08
7.94641e-09
1.21411e-08
1.30455e-08
1.37814e-08
1.34642e-08
1.36557e-08
1.35022e-08
1.35795e-08
1.35235e-08
1.56244e-08
7.27413e-09
1.14876e-08
1.23377e-08
1.30943e-08
1.27553e-08
1.29566e-08
1.27941e-08
1.28755e-08
1.28171e-08
1.37301e-08
6.63205e-09
1.08528e-08
1.16321e-08
1.2402e-08
1.20404e-08
1.22511e-08
1.20795e-08
1.21652e-08
1.21043e-08
1.1205e-08
6.12441e-09
1.02275e-08
1.09183e-08
1.16949e-08
1.13099e-08
1.1529e-08
1.13488e-08
1.14387e-08
1.13752e-08
8.74114e-09
5.64995e-09
9.60325e-09
1.01881e-08
1.09657e-08
1.05566e-08
1.07822e-08
1.05947e-08
1.06884e-08
1.06227e-08
6.67431e-09
5.20881e-09
8.97312e-09
9.43412e-09
1.02086e-08
9.77473e-09
1.00039e-08
9.81152e-09
9.90766e-09
9.84056e-09
5.07999e-09
4.78482e-09
8.33087e-09
8.64788e-09
9.41858e-09
8.95869e-09
9.18678e-09
8.99354e-09
9.09006e-09
9.02308e-09
3.90527e-09
4.34716e-09
7.67061e-09
7.92285e-09
8.59e-09
8.19817e-09
8.4303e-09
8.23201e-09
8.33227e-09
8.26317e-09
3.05836e-09
3.94422e-09
6.97682e-09
7.13487e-09
7.82452e-09
7.36686e-09
7.62185e-09
7.40156e-09
7.512e-09
7.43571e-09
2.44967e-09
3.58002e-09
6.3069e-09
6.37119e-09
7.03831e-09
6.56462e-09
6.8208e-09
6.59788e-09
6.71065e-09
6.63319e-09
2.00489e-09
3.22447e-09
5.64369e-09
5.59944e-09
6.23764e-09
5.75474e-09
6.00981e-09
5.78666e-09
5.90052e-09
5.82277e-09
)
;

boundaryField
{
    fuel
    {
        type            fixedValue;
        value           uniform 0;
    }
    wall
    {
        type            zeroGradient;
    }
    outlet
    {
        type            zeroGradient;
    }
    frontAndBack
    {
        type            empty;
    }
    procBoundary2to0
    {
        type            processor;
        value           nonuniform List<scalar> 
12
(
6.63724e-09
1.67158e-09
2.8417e-09
4.98228e-09
4.83115e-09
5.43157e-09
4.94881e-09
5.19928e-09
4.97912e-09
5.0925e-09
5.82604e-09
5.01546e-09
)
;
    }
    procBoundary2to3
    {
        type            processor;
        value           nonuniform List<scalar> 
25
(
3.64415e-06
2.00778e-06
7.8262e-07
2.92516e-07
1.22155e-07
6.18901e-08
3.86826e-08
2.7544e-08
2.26159e-08
1.98783e-08
1.98783e-08
1.80517e-08
1.67885e-08
1.58214e-08
1.50024e-08
1.42555e-08
1.35398e-08
1.28322e-08
1.21181e-08
1.13879e-08
1.06338e-08
9.84997e-09
9.03013e-09
8.26944e-09
7.44072e-09
)
;
    }
}


// ************************************************************************* //
