/*--------------------------------*- C++ -*----------------------------------*\
| =========                 |                                                 |
| \\      /  F ield         | OpenFOAM: The Open Source CFD Toolbox           |
|  \\    /   O peration     | Version:  dev                                   |
|   \\  /    A nd           | Web:      www.OpenFOAM.org                      |
|    \\/     M anipulation  |                                                 |
\*---------------------------------------------------------------------------*/
FoamFile
{
    version     2.0;
    format      ascii;
    class       volScalarField;
    location    "0.045";
    object      CH2(S);
}
// * * * * * * * * * * * * * * * * * * * * * * * * * * * * * * * * * * * * * //

dimensions      [0 0 0 0 0 0 0];

internalField   nonuniform List<scalar> 
250
(
6.75719e-10
2.06811e-06
2.27473e-06
2.28497e-06
2.28661e-06
2.28667e-06
2.28654e-06
2.2866e-06
2.28704e-06
6.7561e-10
1.23464e-06
1.32954e-06
1.33709e-06
1.33693e-06
1.33742e-06
1.33702e-06
1.33717e-06
1.33723e-06
4.91546e-10
5.85666e-07
6.37772e-07
6.45068e-07
6.44242e-07
6.44668e-07
6.44187e-07
6.44609e-07
6.44285e-07
4.11444e-10
2.77649e-07
3.10085e-07
3.1682e-07
3.15844e-07
3.15926e-07
3.15792e-07
3.15865e-07
3.15629e-07
2.99015e-10
1.44843e-07
1.68831e-07
1.75203e-07
1.74497e-07
1.73674e-07
1.7458e-07
1.7361e-07
1.73512e-07
1.96509e-10
8.6919e-08
1.06655e-07
1.09949e-07
1.09572e-07
1.10813e-07
1.09785e-07
1.10773e-07
1.10775e-07
1.58142e-10
6.00974e-08
7.74511e-08
8.03837e-08
8.07662e-08
8.13734e-08
8.11296e-08
8.13532e-08
8.14115e-08
2.07804e-10
4.73116e-08
6.26989e-08
6.49142e-08
6.46627e-08
6.47576e-08
6.48475e-08
6.47671e-08
6.48644e-08
4.72925e-10
4.05156e-08
5.40022e-08
5.62647e-08
5.66888e-08
5.65549e-08
5.67477e-08
5.65808e-08
5.66924e-08
1.39362e-09
3.67185e-08
4.86875e-08
5.12572e-08
5.19483e-08
5.16265e-08
5.18919e-08
5.16658e-08
5.18004e-08
4.02396e-09
3.4705e-08
4.55595e-08
4.75942e-08
4.85092e-08
4.80781e-08
4.83762e-08
4.81303e-08
4.82684e-08
4.8155e-08
9.76023e-09
3.3225e-08
4.30801e-08
4.49487e-08
4.60534e-08
4.55495e-08
4.58724e-08
4.5611e-08
4.57522e-08
4.5642e-08
1.88313e-08
3.18797e-08
4.10346e-08
4.28511e-08
4.41029e-08
4.35404e-08
4.38872e-08
4.36088e-08
4.3755e-08
4.36442e-08
2.95307e-08
3.03389e-08
3.92637e-08
4.10378e-08
4.24072e-08
4.17913e-08
4.21624e-08
4.18652e-08
4.20182e-08
4.19047e-08
3.86977e-08
2.87216e-08
3.76438e-08
3.93679e-08
4.08328e-08
4.01646e-08
4.05608e-08
4.02428e-08
4.04042e-08
4.02865e-08
4.37445e-08
2.70532e-08
3.61086e-08
3.77628e-08
3.93054e-08
3.8584e-08
3.90058e-08
3.86656e-08
3.88368e-08
3.87135e-08
4.40877e-08
2.53745e-08
3.46196e-08
3.61755e-08
3.77806e-08
3.70041e-08
3.74517e-08
3.70882e-08
3.72703e-08
3.71404e-08
4.08529e-08
2.3712e-08
3.31512e-08
3.45748e-08
3.6229e-08
3.53949e-08
3.58679e-08
3.54806e-08
3.56741e-08
3.55372e-08
3.57466e-08
2.23533e-08
3.16836e-08
3.29369e-08
3.46287e-08
3.37338e-08
3.42308e-08
3.38201e-08
3.40252e-08
3.3881e-08
3.01905e-08
2.10452e-08
3.01974e-08
3.12408e-08
3.29613e-08
3.20019e-08
3.25198e-08
3.20875e-08
3.23035e-08
3.21526e-08
2.50442e-08
1.97936e-08
2.86745e-08
2.94654e-08
3.12097e-08
3.01809e-08
3.07146e-08
3.02647e-08
3.04896e-08
3.03334e-08
2.06773e-08
1.85565e-08
2.70976e-08
2.75842e-08
2.93561e-08
2.82507e-08
2.87913e-08
2.83315e-08
2.85613e-08
2.84025e-08
1.71525e-08
1.72426e-08
2.54479e-08
2.58156e-08
2.73792e-08
2.64169e-08
2.69776e-08
2.64969e-08
2.67401e-08
2.65732e-08
1.43836e-08
1.59968e-08
2.36802e-08
2.38529e-08
2.55143e-08
2.43702e-08
2.50004e-08
2.44544e-08
2.47285e-08
2.45398e-08
1.22285e-08
1.48404e-08
2.19352e-08
2.19012e-08
2.3555e-08
2.23426e-08
2.29927e-08
2.24256e-08
2.2713e-08
2.25162e-08
1.0534e-08
1.36818e-08
2.0163e-08
1.98701e-08
2.15055e-08
2.02335e-08
2.09015e-08
2.03159e-08
2.06153e-08
2.04114e-08
)
;

boundaryField
{
    fuel
    {
        type            fixedValue;
        value           uniform 0;
    }
    wall
    {
        type            zeroGradient;
    }
    outlet
    {
        type            zeroGradient;
    }
    frontAndBack
    {
        type            empty;
    }
    procBoundary2to0
    {
        type            processor;
        value           nonuniform List<scalar> 
12
(
2.25268e-08
9.17802e-09
1.24014e-08
1.83444e-08
1.77777e-08
1.93758e-08
1.80598e-08
1.87404e-08
1.8141e-08
1.84505e-08
2.04202e-08
1.82407e-08
)
;
    }
    procBoundary2to3
    {
        type            processor;
        value           nonuniform List<scalar> 
25
(
2.28649e-06
1.33727e-06
6.44463e-07
3.15727e-07
1.73526e-07
1.10737e-07
8.13429e-08
6.47764e-08
5.65974e-08
5.16878e-08
5.16878e-08
4.82127e-08
4.5692e-08
4.36894e-08
4.19462e-08
4.0325e-08
3.87496e-08
3.71743e-08
3.55688e-08
3.39101e-08
3.21788e-08
3.03557e-08
2.84197e-08
2.65887e-08
2.45525e-08
)
;
    }
}


// ************************************************************************* //
