/*--------------------------------*- C++ -*----------------------------------*\
| =========                 |                                                 |
| \\      /  F ield         | OpenFOAM: The Open Source CFD Toolbox           |
|  \\    /   O peration     | Version:  dev                                   |
|   \\  /    A nd           | Web:      www.OpenFOAM.org                      |
|    \\/     M anipulation  |                                                 |
\*---------------------------------------------------------------------------*/
FoamFile
{
    version     2.0;
    format      ascii;
    class       volScalarField;
    location    "0.045";
    object      CH2(S);
}
// * * * * * * * * * * * * * * * * * * * * * * * * * * * * * * * * * * * * * //

dimensions      [0 0 0 0 0 0 0];

internalField   nonuniform List<scalar> 
1997
(
1.65008e-08
1.6522e-08
1.64858e-08
1.64623e-08
1.64166e-08
1.63907e-08
1.63634e-08
1.63449e-08
1.63287e-08
1.63181e-08
1.63088e-08
1.63036e-08
1.62985e-08
1.62958e-08
1.62926e-08
1.62913e-08
1.62894e-08
1.62889e-08
1.59422e-08
1.59603e-08
1.59206e-08
1.58947e-08
1.58473e-08
1.58205e-08
1.57926e-08
1.57738e-08
1.57575e-08
1.57468e-08
1.57375e-08
1.57322e-08
1.5727e-08
1.57243e-08
1.57211e-08
1.57198e-08
1.57179e-08
1.57173e-08
1.57162e-08
1.57159e-08
1.57152e-08
1.57152e-08
1.57148e-08
1.57147e-08
1.57146e-08
1.57146e-08
1.57147e-08
1.57147e-08
1.53797e-08
1.53948e-08
1.53517e-08
1.53236e-08
1.52745e-08
1.52468e-08
1.52186e-08
1.51994e-08
1.5183e-08
1.51723e-08
1.51629e-08
1.51575e-08
1.51523e-08
1.51496e-08
1.51464e-08
1.51451e-08
1.51432e-08
1.51426e-08
1.51415e-08
1.51412e-08
1.51406e-08
1.51405e-08
1.51401e-08
1.51401e-08
1.51399e-08
1.51399e-08
1.514e-08
1.514e-08
1.51404e-08
1.51405e-08
1.51411e-08
1.51414e-08
1.51425e-08
1.51431e-08
1.5145e-08
1.51463e-08
1.51495e-08
1.51522e-08
1.51574e-08
1.51628e-08
1.48142e-08
1.48262e-08
1.478e-08
1.47495e-08
1.46991e-08
1.46706e-08
1.46419e-08
1.46225e-08
1.46061e-08
1.45953e-08
1.45859e-08
1.45804e-08
1.45752e-08
1.45724e-08
1.45693e-08
1.45679e-08
1.4566e-08
1.45655e-08
1.45643e-08
1.45641e-08
1.45634e-08
1.45634e-08
1.4563e-08
1.45629e-08
1.45628e-08
1.45628e-08
1.45629e-08
1.45629e-08
1.45633e-08
1.45634e-08
1.4564e-08
1.45643e-08
1.45654e-08
1.4566e-08
1.45679e-08
1.45692e-08
1.45724e-08
1.45751e-08
1.45804e-08
1.45858e-08
1.45952e-08
1.4606e-08
1.46224e-08
1.46418e-08
1.46704e-08
1.4699e-08
1.47495e-08
1.47802e-08
1.48264e-08
1.48141e-08
1.42462e-08
1.42553e-08
1.4206e-08
1.41732e-08
1.41218e-08
1.40924e-08
1.40634e-08
1.40438e-08
1.40274e-08
1.40166e-08
1.40073e-08
1.40017e-08
1.39965e-08
1.39937e-08
1.39906e-08
1.39892e-08
1.39873e-08
1.39868e-08
1.39857e-08
1.39854e-08
1.39848e-08
1.39847e-08
1.39843e-08
1.39843e-08
1.39841e-08
1.39841e-08
1.39842e-08
1.39842e-08
1.39846e-08
1.39847e-08
1.39854e-08
1.39856e-08
1.39867e-08
1.39873e-08
1.39892e-08
1.39905e-08
1.39937e-08
1.39964e-08
1.40017e-08
1.40072e-08
1.40165e-08
1.40273e-08
1.40437e-08
1.40634e-08
1.40923e-08
1.41217e-08
1.41733e-08
1.42061e-08
1.42556e-08
1.42462e-08
1.36757e-08
1.3683e-08
1.36306e-08
1.35955e-08
1.35425e-08
1.35111e-08
1.34806e-08
1.34602e-08
1.34433e-08
1.34322e-08
1.34227e-08
1.34171e-08
1.34118e-08
1.3409e-08
1.34058e-08
1.34044e-08
1.34025e-08
1.34019e-08
1.34008e-08
1.34006e-08
1.33999e-08
1.33998e-08
1.33994e-08
1.33994e-08
1.33993e-08
1.33992e-08
1.33994e-08
1.33994e-08
1.33998e-08
1.33998e-08
1.34005e-08
1.34007e-08
1.34019e-08
1.34025e-08
1.34044e-08
1.34057e-08
1.3409e-08
1.34118e-08
1.34171e-08
1.34227e-08
1.34322e-08
1.34433e-08
1.34602e-08
1.34807e-08
1.3511e-08
1.35424e-08
1.35957e-08
1.36306e-08
1.36831e-08
1.36758e-08
1.31054e-08
1.31103e-08
1.30546e-08
1.30175e-08
1.2964e-08
1.29318e-08
1.2901e-08
1.28804e-08
1.28637e-08
1.28526e-08
1.28432e-08
1.28376e-08
1.28322e-08
1.28294e-08
1.28262e-08
1.28249e-08
1.2823e-08
1.28224e-08
1.28213e-08
1.28211e-08
1.28204e-08
1.28203e-08
1.28199e-08
1.28199e-08
1.28198e-08
1.28198e-08
1.28199e-08
1.28199e-08
1.28203e-08
1.28204e-08
1.2821e-08
1.28213e-08
1.28224e-08
1.2823e-08
1.28249e-08
1.28262e-08
1.28294e-08
1.28322e-08
1.28376e-08
1.28432e-08
1.28526e-08
1.28637e-08
1.28805e-08
1.29011e-08
1.29317e-08
1.29639e-08
1.30177e-08
1.30549e-08
1.31097e-08
1.31054e-08
1.25352e-08
1.25387e-08
1.24782e-08
1.24401e-08
1.23864e-08
1.23534e-08
1.23224e-08
1.23017e-08
1.22851e-08
1.22741e-08
1.22648e-08
1.22592e-08
1.22538e-08
1.22511e-08
1.22479e-08
1.22466e-08
1.22447e-08
1.22441e-08
1.2243e-08
1.22428e-08
1.22421e-08
1.2242e-08
1.22416e-08
1.22416e-08
1.22415e-08
1.22415e-08
1.22416e-08
1.22416e-08
1.2242e-08
1.22421e-08
1.22427e-08
1.2243e-08
1.22441e-08
1.22446e-08
1.22466e-08
1.22479e-08
1.22511e-08
1.22538e-08
1.22591e-08
1.22647e-08
1.22741e-08
1.22851e-08
1.23018e-08
1.23225e-08
1.23534e-08
1.23864e-08
1.24402e-08
1.24804e-08
1.25359e-08
1.25353e-08
1.19663e-08
1.1958e-08
1.19007e-08
1.18643e-08
1.18107e-08
1.17771e-08
1.17459e-08
1.17251e-08
1.17087e-08
1.16978e-08
1.16886e-08
1.1683e-08
1.16778e-08
1.1675e-08
1.16719e-08
1.16705e-08
1.16687e-08
1.16681e-08
1.1667e-08
1.16668e-08
1.16661e-08
1.16661e-08
1.16657e-08
1.16656e-08
1.16655e-08
1.16655e-08
1.16656e-08
1.16656e-08
1.1666e-08
1.16661e-08
1.16668e-08
1.1667e-08
1.16681e-08
1.16687e-08
1.16705e-08
1.16719e-08
1.1675e-08
1.16778e-08
1.1683e-08
1.16886e-08
1.16978e-08
1.17087e-08
1.17252e-08
1.1746e-08
1.17771e-08
1.18107e-08
1.18644e-08
1.18986e-08
1.19609e-08
1.19664e-08
1.13999e-08
1.13898e-08
1.13282e-08
1.12911e-08
1.12372e-08
1.12016e-08
1.11691e-08
1.11477e-08
1.11311e-08
1.112e-08
1.11108e-08
1.11052e-08
1.10999e-08
1.10972e-08
1.1094e-08
1.10927e-08
1.10908e-08
1.10903e-08
1.10892e-08
1.1089e-08
1.10883e-08
1.10882e-08
1.10878e-08
1.10878e-08
1.10877e-08
1.10877e-08
1.10878e-08
1.10878e-08
1.10882e-08
1.10883e-08
1.10889e-08
1.10891e-08
1.10903e-08
1.10908e-08
1.10927e-08
1.1094e-08
1.10972e-08
1.10999e-08
1.11052e-08
1.11108e-08
1.112e-08
1.11311e-08
1.11478e-08
1.11692e-08
1.12016e-08
1.12373e-08
1.12913e-08
1.13281e-08
1.13907e-08
1.14e-08
1.08312e-08
1.08231e-08
1.07605e-08
1.07222e-08
1.06688e-08
1.06327e-08
1.06001e-08
1.05787e-08
1.05624e-08
1.05514e-08
1.05423e-08
1.05369e-08
1.05316e-08
1.05289e-08
1.05258e-08
1.05246e-08
1.05227e-08
1.05222e-08
1.05211e-08
1.05209e-08
1.05202e-08
1.05201e-08
1.05198e-08
1.05197e-08
1.05196e-08
1.05196e-08
1.05197e-08
1.05197e-08
1.05201e-08
1.05202e-08
1.05208e-08
1.0521e-08
1.05222e-08
1.05227e-08
1.05246e-08
1.05258e-08
1.0529e-08
1.05317e-08
1.05369e-08
1.05424e-08
1.05514e-08
1.05624e-08
1.05788e-08
1.06003e-08
1.06327e-08
1.06689e-08
1.07224e-08
1.07607e-08
1.08232e-08
1.08313e-08
1.0273e-08
1.02624e-08
1.01982e-08
1.01587e-08
1.01059e-08
1.00694e-08
1.00369e-08
1.00154e-08
9.99946e-09
9.98864e-09
9.97983e-09
9.97443e-09
9.96931e-09
9.96664e-09
9.96358e-09
9.96234e-09
9.96051e-09
9.95999e-09
9.95891e-09
9.95872e-09
9.95807e-09
9.95801e-09
9.95764e-09
9.95762e-09
9.95749e-09
9.95748e-09
9.95759e-09
9.95761e-09
9.95798e-09
9.95805e-09
9.95871e-09
9.9589e-09
9.96e-09
9.96052e-09
9.96236e-09
9.96361e-09
9.96667e-09
9.96934e-09
9.97445e-09
9.97983e-09
9.98871e-09
9.99947e-09
1.00155e-08
1.00371e-08
1.00695e-08
1.0106e-08
1.01589e-08
1.01983e-08
1.02623e-08
1.0273e-08
9.7158e-09
9.70469e-09
9.63945e-09
9.59875e-09
9.54606e-09
9.50837e-09
9.47515e-09
9.45331e-09
9.43735e-09
9.42657e-09
9.41786e-09
9.41255e-09
9.4075e-09
9.40491e-09
9.40189e-09
9.4007e-09
9.39888e-09
9.3984e-09
9.39733e-09
9.39716e-09
9.39651e-09
9.39645e-09
9.39609e-09
9.39607e-09
9.39595e-09
9.39594e-09
9.39605e-09
9.39606e-09
9.39643e-09
9.39649e-09
9.39714e-09
9.39732e-09
9.39841e-09
9.3989e-09
9.40072e-09
9.40192e-09
9.40495e-09
9.40754e-09
9.41258e-09
9.41787e-09
9.42667e-09
9.43735e-09
9.4534e-09
9.47534e-09
9.50846e-09
9.54614e-09
9.59886e-09
9.63951e-09
9.70458e-09
9.71585e-09
9.17071e-09
9.15712e-09
9.09126e-09
9.04989e-09
8.99804e-09
8.96037e-09
8.92727e-09
8.90546e-09
8.88984e-09
8.87935e-09
8.87086e-09
8.86569e-09
8.86077e-09
8.85824e-09
8.85529e-09
8.85413e-09
8.85236e-09
8.85189e-09
8.85084e-09
8.85068e-09
8.85005e-09
8.85e-09
8.84965e-09
8.84963e-09
8.8495e-09
8.84949e-09
8.8496e-09
8.84961e-09
8.84997e-09
8.85003e-09
8.85067e-09
8.85083e-09
8.8519e-09
8.85237e-09
8.85415e-09
8.85532e-09
8.85828e-09
8.8608e-09
8.86572e-09
8.87087e-09
8.87942e-09
8.88985e-09
8.90556e-09
8.92746e-09
8.96045e-09
8.99811e-09
9.04999e-09
9.09121e-09
9.15703e-09
9.17075e-09
8.63355e-09
8.61763e-09
8.54911e-09
8.50608e-09
8.45369e-09
8.415e-09
8.38153e-09
8.35903e-09
8.3434e-09
8.33304e-09
8.3246e-09
8.31948e-09
8.31462e-09
8.31213e-09
8.30921e-09
8.30807e-09
8.30631e-09
8.30586e-09
8.30481e-09
8.30466e-09
8.30403e-09
8.30399e-09
8.30364e-09
8.30362e-09
8.3035e-09
8.30349e-09
8.3036e-09
8.3036e-09
8.30396e-09
8.30401e-09
8.30464e-09
8.3048e-09
8.30586e-09
8.30632e-09
8.30809e-09
8.30924e-09
8.31216e-09
8.31466e-09
8.31951e-09
8.32461e-09
8.33307e-09
8.34344e-09
8.35913e-09
8.38173e-09
8.41509e-09
8.45377e-09
8.50618e-09
8.54903e-09
8.61759e-09
8.63362e-09
8.09202e-09
8.07317e-09
8.0049e-09
7.9617e-09
7.91059e-09
7.87215e-09
7.83984e-09
7.81652e-09
7.80136e-09
7.79137e-09
7.78324e-09
7.77829e-09
7.7736e-09
7.77119e-09
7.76838e-09
7.76727e-09
7.76558e-09
7.76513e-09
7.76413e-09
7.76397e-09
7.76337e-09
7.76333e-09
7.76299e-09
7.76297e-09
7.76285e-09
7.76284e-09
7.76295e-09
7.76296e-09
7.7633e-09
7.76335e-09
7.76396e-09
7.76412e-09
7.76513e-09
7.76558e-09
7.76729e-09
7.7684e-09
7.77122e-09
7.77364e-09
7.77832e-09
7.78324e-09
7.79138e-09
7.80142e-09
7.81661e-09
7.84002e-09
7.87226e-09
7.91067e-09
7.96179e-09
8.00482e-09
8.07315e-09
8.09208e-09
7.56214e-09
7.54009e-09
7.47239e-09
7.42933e-09
7.37967e-09
7.34156e-09
7.31134e-09
7.28628e-09
7.27158e-09
7.262e-09
7.25418e-09
7.24942e-09
7.24494e-09
7.24261e-09
7.23991e-09
7.23884e-09
7.23721e-09
7.23679e-09
7.23582e-09
7.23567e-09
7.23509e-09
7.23505e-09
7.23473e-09
7.23471e-09
7.2346e-09
7.23459e-09
7.23469e-09
7.2347e-09
7.23502e-09
7.23507e-09
7.23566e-09
7.23581e-09
7.23678e-09
7.23722e-09
7.23885e-09
7.23993e-09
7.24264e-09
7.24497e-09
7.24945e-09
7.25418e-09
7.26199e-09
7.27165e-09
7.28635e-09
7.31151e-09
7.34169e-09
7.37974e-09
7.4294e-09
7.47233e-09
7.54008e-09
7.5622e-09
7.04534e-09
7.01956e-09
6.95276e-09
6.91008e-09
6.86211e-09
6.82444e-09
6.79732e-09
6.78386e-09
6.76975e-09
6.76054e-09
6.75303e-09
6.74847e-09
6.74418e-09
6.74196e-09
6.73936e-09
6.73835e-09
6.73678e-09
6.73637e-09
6.73544e-09
6.7353e-09
6.73475e-09
6.73471e-09
6.7344e-09
6.73438e-09
6.73427e-09
6.73426e-09
6.73436e-09
6.73437e-09
6.73468e-09
6.73472e-09
6.73529e-09
6.73543e-09
6.73637e-09
6.73678e-09
6.73835e-09
6.73938e-09
6.74198e-09
6.74421e-09
6.7485e-09
6.75302e-09
6.7605e-09
6.76983e-09
6.78392e-09
6.79748e-09
6.82458e-09
6.86216e-09
6.91015e-09
6.95272e-09
7.01955e-09
7.04539e-09
6.54269e-09
6.52753e-09
6.46157e-09
6.41953e-09
6.37313e-09
6.33607e-09
6.31089e-09
6.29587e-09
6.28133e-09
6.2719e-09
6.26426e-09
6.25961e-09
6.25525e-09
6.25296e-09
6.25032e-09
6.24926e-09
6.24767e-09
6.24724e-09
6.24629e-09
6.24614e-09
6.24558e-09
6.24553e-09
6.24521e-09
6.2452e-09
6.24509e-09
6.24508e-09
6.24518e-09
6.24518e-09
6.2455e-09
6.24555e-09
6.24612e-09
6.24627e-09
6.24723e-09
6.24766e-09
6.24926e-09
6.25033e-09
6.25297e-09
6.25527e-09
6.25962e-09
6.26423e-09
6.27184e-09
6.28141e-09
6.29591e-09
6.31103e-09
6.33622e-09
6.37317e-09
6.41959e-09
6.46154e-09
6.52753e-09
6.54274e-09
6.06844e-09
6.05074e-09
5.98586e-09
5.94468e-09
5.90004e-09
5.86352e-09
5.8398e-09
5.8244e-09
5.81045e-09
5.80142e-09
5.7941e-09
5.78967e-09
5.78552e-09
5.78334e-09
5.78081e-09
5.77981e-09
5.77828e-09
5.77787e-09
5.77697e-09
5.77683e-09
5.77628e-09
5.77624e-09
5.77594e-09
5.77592e-09
5.77582e-09
5.77581e-09
5.7759e-09
5.77591e-09
5.77622e-09
5.77626e-09
5.7768e-09
5.77695e-09
5.77786e-09
5.77827e-09
5.77981e-09
5.78082e-09
5.78335e-09
5.78553e-09
5.78968e-09
5.79407e-09
5.80134e-09
5.81053e-09
5.82444e-09
5.83992e-09
5.86366e-09
5.90007e-09
5.94474e-09
5.98584e-09
6.05074e-09
6.06848e-09
5.59923e-09
5.57977e-09
5.5162e-09
5.47602e-09
5.43307e-09
5.39675e-09
5.37408e-09
5.35865e-09
5.3453e-09
5.33658e-09
5.32955e-09
5.32534e-09
5.32138e-09
5.31931e-09
5.31689e-09
5.31594e-09
5.31448e-09
5.3141e-09
5.31323e-09
5.31311e-09
5.31259e-09
5.31255e-09
5.31226e-09
5.31225e-09
5.31215e-09
5.31214e-09
5.31223e-09
5.31223e-09
5.31253e-09
5.31256e-09
5.31308e-09
5.31321e-09
5.31409e-09
5.31448e-09
5.31594e-09
5.3169e-09
5.31931e-09
5.32139e-09
5.32534e-09
5.32953e-09
5.33649e-09
5.34537e-09
5.3587e-09
5.37418e-09
5.3969e-09
5.4331e-09
5.47608e-09
5.51619e-09
5.57978e-09
5.59927e-09
5.14449e-09
5.12346e-09
5.06193e-09
5.02305e-09
4.98221e-09
4.94673e-09
4.92525e-09
4.91021e-09
4.89764e-09
4.8893e-09
4.88265e-09
4.87867e-09
4.87495e-09
4.87299e-09
4.87071e-09
4.86981e-09
4.86843e-09
4.86807e-09
4.86725e-09
4.86713e-09
4.86664e-09
4.86661e-09
4.86633e-09
4.86632e-09
4.86622e-09
4.86622e-09
4.8663e-09
4.8663e-09
4.86658e-09
4.86661e-09
4.86711e-09
4.86723e-09
4.86806e-09
4.86842e-09
4.86981e-09
4.87071e-09
4.87299e-09
4.87496e-09
4.87868e-09
4.88262e-09
4.88921e-09
4.8977e-09
4.91026e-09
4.92534e-09
4.94687e-09
4.98224e-09
5.02311e-09
5.06194e-09
5.12348e-09
5.14453e-09
4.71984e-09
4.69796e-09
4.63828e-09
4.60086e-09
4.56195e-09
4.52747e-09
4.50704e-09
4.49249e-09
4.4807e-09
4.47269e-09
4.46643e-09
4.46267e-09
4.45916e-09
4.45732e-09
4.45517e-09
4.45432e-09
4.45302e-09
4.45268e-09
4.4519e-09
4.45179e-09
4.45133e-09
4.4513e-09
4.45104e-09
4.45103e-09
4.45094e-09
4.45093e-09
4.45101e-09
4.45101e-09
4.45127e-09
4.4513e-09
4.45177e-09
4.45188e-09
4.45267e-09
4.45301e-09
4.45432e-09
4.45517e-09
4.45732e-09
4.45917e-09
4.46267e-09
4.46639e-09
4.4726e-09
4.48075e-09
4.49255e-09
4.50713e-09
4.52758e-09
4.56199e-09
4.60091e-09
4.63829e-09
4.69798e-09
4.71987e-09
4.31402e-09
4.29159e-09
4.23397e-09
4.19818e-09
4.1614e-09
4.12779e-09
4.10852e-09
4.09457e-09
4.08355e-09
4.07591e-09
4.07002e-09
4.06649e-09
4.0632e-09
4.06148e-09
4.05945e-09
4.05867e-09
4.05744e-09
4.05713e-09
4.05639e-09
4.05629e-09
4.05585e-09
4.05583e-09
4.05558e-09
4.05557e-09
4.05549e-09
4.05548e-09
4.05556e-09
4.05556e-09
4.0558e-09
4.05583e-09
4.05627e-09
4.05637e-09
4.05711e-09
4.05743e-09
4.05866e-09
4.05945e-09
4.06148e-09
4.06321e-09
4.06649e-09
4.06998e-09
4.07581e-09
4.0836e-09
4.09464e-09
4.10859e-09
4.1279e-09
4.16143e-09
4.19823e-09
4.23399e-09
4.29161e-09
4.31405e-09
3.92794e-09
3.90505e-09
3.84978e-09
3.81583e-09
3.78114e-09
3.74849e-09
3.7305e-09
3.71716e-09
3.70691e-09
3.69965e-09
3.69412e-09
3.69082e-09
3.68776e-09
3.68616e-09
3.68427e-09
3.68354e-09
3.68238e-09
3.6821e-09
3.68141e-09
3.68132e-09
3.6809e-09
3.68088e-09
3.68065e-09
3.68064e-09
3.68056e-09
3.68055e-09
3.68063e-09
3.68063e-09
3.68086e-09
3.68088e-09
3.68129e-09
3.68139e-09
3.68208e-09
3.68237e-09
3.68353e-09
3.68426e-09
3.68616e-09
3.68777e-09
3.69083e-09
3.69408e-09
3.69954e-09
3.70696e-09
3.71724e-09
3.73057e-09
3.74858e-09
3.78117e-09
3.81587e-09
3.8498e-09
3.90507e-09
3.92796e-09
3.55659e-09
3.53893e-09
3.48652e-09
3.4544e-09
3.42181e-09
3.39024e-09
3.37354e-09
3.36085e-09
3.35138e-09
3.34448e-09
3.33934e-09
3.33626e-09
3.33343e-09
3.33195e-09
3.33018e-09
3.32951e-09
3.32843e-09
3.32817e-09
3.32753e-09
3.32745e-09
3.32706e-09
3.32704e-09
3.32683e-09
3.32682e-09
3.32674e-09
3.32674e-09
3.32681e-09
3.32681e-09
3.32702e-09
3.32704e-09
3.32743e-09
3.32751e-09
3.32816e-09
3.32842e-09
3.32951e-09
3.33018e-09
3.33194e-09
3.33343e-09
3.33627e-09
3.33929e-09
3.34436e-09
3.35143e-09
3.36093e-09
3.3736e-09
3.39031e-09
3.42183e-09
3.45444e-09
3.48654e-09
3.53895e-09
3.55661e-09
3.21158e-09
3.19263e-09
3.14084e-09
3.10955e-09
3.07824e-09
3.04713e-09
3.03133e-09
3.01916e-09
3.01032e-09
3.00365e-09
2.99884e-09
2.99595e-09
2.99329e-09
2.99191e-09
2.99026e-09
2.98963e-09
2.98861e-09
2.98837e-09
2.98776e-09
2.98769e-09
2.98732e-09
2.98731e-09
2.9871e-09
2.9871e-09
2.98703e-09
2.98702e-09
2.98708e-09
2.98708e-09
2.98729e-09
2.9873e-09
2.98767e-09
2.98774e-09
2.98835e-09
2.9886e-09
2.98962e-09
2.99025e-09
2.9919e-09
2.9933e-09
2.99596e-09
2.99878e-09
3.00354e-09
3.01036e-09
3.01925e-09
3.03139e-09
3.04719e-09
3.07826e-09
3.10959e-09
3.14086e-09
3.19264e-09
3.2116e-09
2.87952e-09
2.86018e-09
2.81176e-09
2.78252e-09
2.75351e-09
2.73168e-09
2.71714e-09
2.70571e-09
2.69764e-09
2.69128e-09
2.68689e-09
2.68422e-09
2.68178e-09
2.68051e-09
2.67898e-09
2.67841e-09
2.67747e-09
2.67725e-09
2.67669e-09
2.67663e-09
2.67629e-09
2.67628e-09
2.67609e-09
2.67609e-09
2.67602e-09
2.67601e-09
2.67607e-09
2.67607e-09
2.67626e-09
2.67627e-09
2.67661e-09
2.67667e-09
2.67724e-09
2.67746e-09
2.6784e-09
2.67898e-09
2.6805e-09
2.68178e-09
2.68422e-09
2.68682e-09
2.69116e-09
2.69768e-09
2.7058e-09
2.71719e-09
2.73172e-09
2.75351e-09
2.78256e-09
2.81178e-09
2.86019e-09
2.87953e-09
2.57672e-09
2.5578e-09
2.5126e-09
2.48535e-09
2.45862e-09
2.43782e-09
2.42456e-09
2.41391e-09
2.40659e-09
2.4005e-09
2.39652e-09
2.39407e-09
2.39184e-09
2.39069e-09
2.38929e-09
2.38878e-09
2.38791e-09
2.38772e-09
2.3872e-09
2.38715e-09
2.38683e-09
2.38683e-09
2.38665e-09
2.38665e-09
2.38659e-09
2.38658e-09
2.38664e-09
2.38663e-09
2.38681e-09
2.38681e-09
2.38713e-09
2.38718e-09
2.3877e-09
2.3879e-09
2.38877e-09
2.38929e-09
2.39068e-09
2.39184e-09
2.39408e-09
2.39645e-09
2.40039e-09
2.40664e-09
2.414e-09
2.4246e-09
2.43786e-09
2.45862e-09
2.48538e-09
2.51261e-09
2.55781e-09
2.57673e-09
2.29521e-09
2.27692e-09
2.23492e-09
2.20973e-09
2.1851e-09
2.16453e-09
2.1521e-09
2.14193e-09
2.13517e-09
2.13122e-09
2.12763e-09
2.12539e-09
2.12338e-09
2.12235e-09
2.12107e-09
2.12061e-09
2.11982e-09
2.11965e-09
2.11918e-09
2.11913e-09
2.11885e-09
2.11884e-09
2.11868e-09
2.11868e-09
2.11862e-09
2.11862e-09
2.11867e-09
2.11866e-09
2.11882e-09
2.11883e-09
2.11911e-09
2.11916e-09
2.11963e-09
2.11981e-09
2.1206e-09
2.12107e-09
2.12234e-09
2.12338e-09
2.12541e-09
2.12756e-09
2.1311e-09
2.13521e-09
2.14202e-09
2.15214e-09
2.16456e-09
2.1851e-09
2.20975e-09
2.23493e-09
2.27693e-09
2.29521e-09
2.03488e-09
2.01742e-09
1.97859e-09
1.95549e-09
1.93294e-09
1.91354e-09
1.90233e-09
1.89293e-09
1.88687e-09
1.88306e-09
1.87969e-09
1.87757e-09
1.87567e-09
1.8747e-09
1.8735e-09
1.87306e-09
1.87232e-09
1.87216e-09
1.87171e-09
1.87167e-09
1.8714e-09
1.87139e-09
1.87124e-09
1.87124e-09
1.87119e-09
1.87118e-09
1.87123e-09
1.87123e-09
1.87138e-09
1.87138e-09
1.87165e-09
1.87169e-09
1.87214e-09
1.87231e-09
1.87305e-09
1.87349e-09
1.87469e-09
1.87567e-09
1.87759e-09
1.87961e-09
1.88294e-09
1.88691e-09
1.89301e-09
1.90237e-09
1.91357e-09
1.93294e-09
1.95551e-09
1.9786e-09
2.01743e-09
2.03489e-09
1.79243e-09
1.77535e-09
1.73904e-09
1.71757e-09
1.69685e-09
1.67829e-09
1.66809e-09
1.65942e-09
1.65397e-09
1.65041e-09
1.64738e-09
1.64544e-09
1.64372e-09
1.64284e-09
1.64175e-09
1.64136e-09
1.64068e-09
1.64054e-09
1.64013e-09
1.64009e-09
1.63985e-09
1.63984e-09
1.6397e-09
1.6397e-09
1.63966e-09
1.63965e-09
1.63969e-09
1.63969e-09
1.63983e-09
1.63983e-09
1.64007e-09
1.64011e-09
1.64052e-09
1.64067e-09
1.64135e-09
1.64174e-09
1.64283e-09
1.64371e-09
1.64546e-09
1.64729e-09
1.6503e-09
1.65401e-09
1.6595e-09
1.66812e-09
1.67831e-09
1.69684e-09
1.71759e-09
1.73905e-09
1.77536e-09
1.79244e-09
1.56767e-09
1.55155e-09
1.51866e-09
1.49911e-09
1.48068e-09
1.46837e-09
1.45922e-09
1.45133e-09
1.44649e-09
1.44321e-09
1.44054e-09
1.43879e-09
1.43724e-09
1.43647e-09
1.43549e-09
1.43514e-09
1.43453e-09
1.4344e-09
1.43404e-09
1.434e-09
1.43378e-09
1.43378e-09
1.43366e-09
1.43366e-09
1.43361e-09
1.43361e-09
1.43365e-09
1.43365e-09
1.43377e-09
1.43377e-09
1.43399e-09
1.43402e-09
1.43439e-09
1.43452e-09
1.43513e-09
1.43548e-09
1.43646e-09
1.43724e-09
1.43881e-09
1.44043e-09
1.44312e-09
1.44652e-09
1.45141e-09
1.45925e-09
1.46839e-09
1.48068e-09
1.49912e-09
1.51866e-09
1.55156e-09
1.56768e-09
1.36823e-09
1.35322e-09
1.32334e-09
1.30558e-09
1.28922e-09
1.27789e-09
1.26953e-09
1.26268e-09
1.25841e-09
1.25541e-09
1.25307e-09
1.2515e-09
1.25012e-09
1.24944e-09
1.24857e-09
1.24826e-09
1.24772e-09
1.2476e-09
1.24728e-09
1.24725e-09
1.24705e-09
1.24705e-09
1.24694e-09
1.24694e-09
1.2469e-09
1.2469e-09
1.24694e-09
1.24693e-09
1.24704e-09
1.24704e-09
1.24724e-09
1.24726e-09
1.24759e-09
1.24771e-09
1.24825e-09
1.24856e-09
1.24943e-09
1.25012e-09
1.25152e-09
1.25296e-09
1.25534e-09
1.25843e-09
1.26276e-09
1.26956e-09
1.27789e-09
1.28922e-09
1.30559e-09
1.32334e-09
1.35322e-09
1.36824e-09
1.18776e-09
1.17391e-09
1.1469e-09
1.1309e-09
1.11645e-09
1.10616e-09
1.0988e-09
1.09265e-09
1.0889e-09
1.08618e-09
1.08414e-09
1.08275e-09
1.08152e-09
1.08093e-09
1.08015e-09
1.07988e-09
1.0794e-09
1.07931e-09
1.07901e-09
1.07899e-09
1.07882e-09
1.07882e-09
1.07872e-09
1.07872e-09
1.07869e-09
1.07868e-09
1.07872e-09
1.07871e-09
1.07881e-09
1.07881e-09
1.07898e-09
1.079e-09
1.07929e-09
1.07939e-09
1.07987e-09
1.08014e-09
1.08092e-09
1.08152e-09
1.08276e-09
1.08403e-09
1.08612e-09
1.08892e-09
1.09272e-09
1.09882e-09
1.10616e-09
1.11645e-09
1.1309e-09
1.14689e-09
1.17391e-09
1.18776e-09
1.0254e-09
1.01274e-09
9.88443e-10
9.74143e-10
9.61445e-10
9.51916e-10
9.45375e-10
9.39755e-10
9.36389e-10
9.33924e-10
9.32108e-10
9.30869e-10
9.29775e-10
9.29241e-10
9.28546e-10
9.28311e-10
9.27879e-10
9.27797e-10
9.27536e-10
9.2752e-10
9.27363e-10
9.27365e-10
9.27276e-10
9.27277e-10
9.27245e-10
9.27242e-10
9.27271e-10
9.27266e-10
9.27354e-10
9.27351e-10
9.27508e-10
9.27525e-10
9.27787e-10
9.2787e-10
9.28303e-10
9.28541e-10
9.29234e-10
9.29768e-10
9.30879e-10
9.32015e-10
9.33884e-10
9.36411e-10
9.39822e-10
9.45394e-10
9.51917e-10
9.61443e-10
9.7414e-10
9.88435e-10
1.01274e-09
1.0254e-09
8.80199e-10
8.68699e-10
8.47035e-10
8.34316e-10
8.2322e-10
8.14693e-10
8.09012e-10
8.04032e-10
8.01098e-10
7.989e-10
7.97328e-10
7.96246e-10
7.95287e-10
7.94821e-10
7.94213e-10
7.9401e-10
7.93631e-10
7.93562e-10
7.93333e-10
7.9332e-10
7.93182e-10
7.93185e-10
7.93107e-10
7.93108e-10
7.9308e-10
7.93078e-10
7.93103e-10
7.93098e-10
7.93175e-10
7.93171e-10
7.9331e-10
7.93323e-10
7.93553e-10
7.93623e-10
7.94003e-10
7.94208e-10
7.94815e-10
7.9528e-10
7.9625e-10
7.97245e-10
7.98872e-10
8.01112e-10
8.04089e-10
8.09025e-10
8.1469e-10
8.23218e-10
8.34309e-10
8.47024e-10
8.68697e-10
8.80195e-10
7.51139e-10
7.40757e-10
7.21605e-10
7.10354e-10
7.00716e-10
6.93154e-10
6.88256e-10
6.83867e-10
6.8133e-10
6.79391e-10
6.78035e-10
6.77096e-10
6.76261e-10
6.75859e-10
6.75329e-10
6.75156e-10
6.74826e-10
6.74767e-10
6.74568e-10
6.74559e-10
6.74438e-10
6.74441e-10
6.74373e-10
6.74375e-10
6.7435e-10
6.74348e-10
6.7437e-10
6.74366e-10
6.74433e-10
6.74429e-10
6.74549e-10
6.74559e-10
6.7476e-10
6.74819e-10
6.7515e-10
6.75325e-10
6.75853e-10
6.76255e-10
6.77095e-10
6.77964e-10
6.79372e-10
6.8134e-10
6.8391e-10
6.88264e-10
6.93149e-10
7.00713e-10
7.10343e-10
7.21591e-10
7.40753e-10
7.51133e-10
6.37139e-10
6.27854e-10
6.11018e-10
6.01148e-10
5.92829e-10
5.86184e-10
5.81995e-10
5.7815e-10
5.75972e-10
5.74275e-10
5.73114e-10
5.72305e-10
5.71584e-10
5.71238e-10
5.70781e-10
5.70634e-10
5.70348e-10
5.703e-10
5.70127e-10
5.7012e-10
5.70016e-10
5.70019e-10
5.6996e-10
5.69962e-10
5.6994e-10
5.69938e-10
5.69958e-10
5.69953e-10
5.70012e-10
5.70007e-10
5.70112e-10
5.70119e-10
5.70293e-10
5.70342e-10
5.70629e-10
5.70777e-10
5.71234e-10
5.71578e-10
5.72301e-10
5.73052e-10
5.74263e-10
5.75978e-10
5.78183e-10
5.81999e-10
5.86177e-10
5.92825e-10
6.01133e-10
6.11002e-10
6.27848e-10
6.37132e-10
5.37086e-10
5.28861e-10
5.14144e-10
5.05565e-10
4.98432e-10
4.92652e-10
4.89101e-10
4.85755e-10
4.83896e-10
4.82424e-10
4.8144e-10
4.80746e-10
4.80127e-10
4.79834e-10
4.79441e-10
4.79318e-10
4.79072e-10
4.79033e-10
4.78884e-10
4.7888e-10
4.78789e-10
4.78794e-10
4.78742e-10
4.78744e-10
4.78726e-10
4.78724e-10
4.78741e-10
4.78737e-10
4.78787e-10
4.78782e-10
4.78873e-10
4.78877e-10
4.79027e-10
4.79067e-10
4.79314e-10
4.79438e-10
4.7983e-10
4.80122e-10
4.8074e-10
4.81383e-10
4.82419e-10
4.83898e-10
4.85779e-10
4.89099e-10
4.92641e-10
4.98427e-10
5.05547e-10
5.14127e-10
5.28853e-10
5.37077e-10
4.49845e-10
4.42632e-10
4.29631e-10
4.21993e-10
4.15742e-10
4.10652e-10
4.07605e-10
4.04658e-10
4.0305e-10
4.01763e-10
4.00922e-10
4.00321e-10
3.99785e-10
3.99533e-10
3.99194e-10
3.99089e-10
3.98877e-10
3.98843e-10
3.98715e-10
3.98712e-10
3.98634e-10
3.98638e-10
3.98593e-10
3.98595e-10
3.98579e-10
3.98577e-10
3.98592e-10
3.98588e-10
3.98632e-10
3.98627e-10
3.98706e-10
3.98708e-10
3.98838e-10
3.98872e-10
3.99085e-10
3.99191e-10
3.99529e-10
3.9978e-10
4.00311e-10
4.0087e-10
4.0176e-10
4.03047e-10
4.04678e-10
4.076e-10
4.1064e-10
4.15736e-10
4.21971e-10
4.2961e-10
4.42622e-10
4.49834e-10
3.74282e-10
3.68032e-10
3.5675e-10
3.50174e-10
3.44912e-10
3.40534e-10
3.37993e-10
3.35459e-10
3.34091e-10
3.32993e-10
3.32292e-10
)
;

boundaryField
{
    fuel
    {
        type            fixedValue;
        value           nonuniform 0();
    }
    wall
    {
        type            zeroGradient;
    }
    outlet
    {
        type            zeroGradient;
    }
    frontAndBack
    {
        type            empty;
    }
    procBoundary2to0
    {
        type            processor;
        value           nonuniform List<scalar> 
53
(
1.7055e-08
1.70793e-08
1.70468e-08
1.70257e-08
1.6982e-08
1.6957e-08
1.69301e-08
1.69121e-08
1.6896e-08
1.68855e-08
1.68763e-08
1.68713e-08
1.68662e-08
1.68635e-08
1.68604e-08
1.68591e-08
1.68572e-08
1.68566e-08
1.62877e-08
1.62877e-08
1.62875e-08
1.62868e-08
1.62867e-08
1.62863e-08
1.62863e-08
1.62862e-08
1.62862e-08
1.62863e-08
1.62863e-08
1.57151e-08
1.57151e-08
1.57152e-08
1.57158e-08
1.57161e-08
1.57172e-08
1.57178e-08
1.57197e-08
1.5721e-08
1.57242e-08
1.57269e-08
1.57321e-08
1.57374e-08
1.51722e-08
1.51722e-08
1.51829e-08
1.51993e-08
1.52184e-08
1.52467e-08
1.52744e-08
1.53236e-08
1.53521e-08
1.5395e-08
1.53797e-08
)
;
    }
    procBoundary2to3
    {
        type            processor;
        value           nonuniform List<scalar> 
51
(
3.31786e-10
3.31333e-10
3.31121e-10
3.30835e-10
3.30748e-10
3.30567e-10
3.30541e-10
3.30431e-10
3.3043e-10
3.30363e-10
3.30367e-10
3.30329e-10
3.30331e-10
3.30317e-10
3.30316e-10
3.30328e-10
3.30325e-10
3.30362e-10
3.30358e-10
3.30425e-10
3.30426e-10
3.30536e-10
3.30563e-10
3.30744e-10
3.30832e-10
3.31118e-10
3.31328e-10
3.31776e-10
3.32249e-10
3.32998e-10
3.34088e-10
3.35484e-10
3.37991e-10
3.40523e-10
3.44905e-10
3.50158e-10
3.56736e-10
3.68027e-10
3.74276e-10
3.09291e-10
3.03906e-10
2.94215e-10
2.88551e-10
2.8419e-10
2.80435e-10
2.78343e-10
2.76181e-10
2.75021e-10
2.74086e-10
3.31786e-10
2.73507e-10
)
;
    }
}


// ************************************************************************* //
