/*--------------------------------*- C++ -*----------------------------------*\
| =========                 |                                                 |
| \\      /  F ield         | OpenFOAM: The Open Source CFD Toolbox           |
|  \\    /   O peration     | Version:  dev                                   |
|   \\  /    A nd           | Web:      www.OpenFOAM.org                      |
|    \\/     M anipulation  |                                                 |
\*---------------------------------------------------------------------------*/
FoamFile
{
    version     2.0;
    format      ascii;
    class       volScalarField;
    location    "0.045";
    object      CH2O;
}
// * * * * * * * * * * * * * * * * * * * * * * * * * * * * * * * * * * * * * //

dimensions      [0 0 0 0 0 0 0];

internalField   nonuniform List<scalar> 
250
(
0.000451338
0.000169331
0.000149624
0.000148767
0.000148769
0.000148718
0.000148724
0.000148772
0.000148621
0.000486986
8.18249e-05
7.32334e-05
7.29692e-05
7.28828e-05
7.28846e-05
7.28701e-05
7.29068e-05
7.28585e-05
0.000282191
3.9187e-05
3.53961e-05
3.53948e-05
3.53033e-05
3.53076e-05
3.52881e-05
3.53101e-05
3.52878e-05
0.000124363
2.0234e-05
1.88059e-05
1.89083e-05
1.88254e-05
1.88145e-05
1.88115e-05
1.88122e-05
1.88009e-05
4.80434e-05
1.18104e-05
1.15409e-05
1.16983e-05
1.16355e-05
1.15782e-05
1.16296e-05
1.1575e-05
1.15714e-05
1.71049e-05
7.8951e-06
8.15731e-06
8.18787e-06
8.14514e-06
8.20162e-06
8.14751e-06
8.19941e-06
8.20134e-06
5.8418e-06
5.94959e-06
6.45048e-06
6.47875e-06
6.48179e-06
6.5037e-06
6.49336e-06
6.50254e-06
6.508e-06
2.09129e-06
4.9593e-06
5.52547e-06
5.51496e-06
5.47668e-06
5.46699e-06
5.47697e-06
5.46766e-06
5.47596e-06
1.01545e-06
4.40126e-06
4.94222e-06
4.93673e-06
4.94134e-06
4.91589e-06
4.93293e-06
4.91765e-06
4.92729e-06
8.90107e-07
4.07396e-06
4.56278e-06
4.5781e-06
4.59925e-06
4.55952e-06
4.58219e-06
4.5622e-06
4.57387e-06
1.17943e-06
3.89662e-06
4.32738e-06
4.29701e-06
4.33233e-06
4.28365e-06
4.30905e-06
4.28723e-06
4.2994e-06
4.28979e-06
1.72252e-06
3.76775e-06
4.13182e-06
4.0826e-06
4.13015e-06
4.07534e-06
4.10271e-06
4.07956e-06
4.09205e-06
4.08265e-06
2.40567e-06
3.65517e-06
3.96513e-06
3.90686e-06
3.96365e-06
3.90418e-06
3.93318e-06
3.90884e-06
3.92165e-06
3.91226e-06
3.09774e-06
3.53113e-06
3.81828e-06
3.75339e-06
3.81732e-06
3.75409e-06
3.78452e-06
3.75906e-06
3.77222e-06
3.76276e-06
3.6678e-06
3.40339e-06
3.68319e-06
3.61328e-06
3.68275e-06
3.61645e-06
3.64812e-06
3.62162e-06
3.63513e-06
3.62557e-06
4.03249e-06
3.27137e-06
3.55547e-06
3.48149e-06
3.55526e-06
3.4864e-06
3.51915e-06
3.49169e-06
3.50555e-06
3.49587e-06
4.17713e-06
3.13625e-06
3.43261e-06
3.35495e-06
3.43205e-06
3.36101e-06
3.39469e-06
3.36635e-06
3.38056e-06
3.37074e-06
4.13846e-06
2.99875e-06
3.31293e-06
3.23159e-06
3.31124e-06
3.23828e-06
3.27274e-06
3.24361e-06
3.25816e-06
3.24819e-06
3.97412e-06
2.88315e-06
3.1952e-06
3.10978e-06
3.19141e-06
3.11666e-06
3.15171e-06
3.1219e-06
3.13677e-06
3.12667e-06
3.73878e-06
2.76807e-06
3.07818e-06
2.98799e-06
3.0713e-06
2.99473e-06
3.03015e-06
2.99981e-06
3.01494e-06
3.00473e-06
3.47455e-06
2.65428e-06
2.96072e-06
2.86456e-06
2.94964e-06
2.871e-06
2.90646e-06
2.87586e-06
2.89113e-06
2.88089e-06
3.20906e-06
2.53824e-06
2.84162e-06
2.73736e-06
2.825e-06
2.74373e-06
2.77872e-06
2.74832e-06
2.76348e-06
2.75338e-06
2.95799e-06
2.41188e-06
2.71947e-06
2.62062e-06
2.6955e-06
2.62588e-06
2.66152e-06
2.63037e-06
2.64609e-06
2.63567e-06
2.72857e-06
2.29035e-06
2.59077e-06
2.49288e-06
2.57598e-06
2.49622e-06
2.53594e-06
2.50096e-06
2.51848e-06
2.50678e-06
2.52197e-06
2.17641e-06
2.4652e-06
2.36671e-06
2.4519e-06
2.36861e-06
2.40956e-06
2.37331e-06
2.39164e-06
2.37944e-06
2.33592e-06
2.06199e-06
2.33877e-06
2.23492e-06
2.32235e-06
2.23528e-06
2.27774e-06
2.24002e-06
2.25927e-06
2.2465e-06
)
;

boundaryField
{
    fuel
    {
        type            fixedValue;
        value           uniform 0;
    }
    wall
    {
        type            zeroGradient;
    }
    outlet
    {
        type            zeroGradient;
    }
    frontAndBack
    {
        type            empty;
    }
    procBoundary2to0
    {
        type            processor;
        value           nonuniform List<scalar> 
12
(
2.3803e-06
2.16387e-06
1.93519e-06
2.20891e-06
2.09717e-06
2.18647e-06
2.09561e-06
2.13976e-06
2.1004e-06
2.1207e-06
2.24722e-06
2.10726e-06
)
;
    }
    procBoundary2to3
    {
        type            processor;
        value           nonuniform List<scalar> 
25
(
0.000148749
7.2885e-05
3.52996e-05
1.88055e-05
1.15712e-05
8.19804e-06
6.50265e-06
5.469e-06
4.91952e-06
4.5645e-06
4.5645e-06
4.29467e-06
4.08699e-06
3.91626e-06
3.76646e-06
3.62901e-06
3.49905e-06
3.37367e-06
3.25088e-06
3.12909e-06
3.00688e-06
2.88271e-06
2.75479e-06
2.63693e-06
2.50782e-06
)
;
    }
}


// ************************************************************************* //
