/*--------------------------------*- C++ -*----------------------------------*\
| =========                 |                                                 |
| \\      /  F ield         | OpenFOAM: The Open Source CFD Toolbox           |
|  \\    /   O peration     | Version:  dev                                   |
|   \\  /    A nd           | Web:      www.OpenFOAM.org                      |
|    \\/     M anipulation  |                                                 |
\*---------------------------------------------------------------------------*/
FoamFile
{
    version     2.0;
    format      ascii;
    class       volScalarField;
    location    "0.045";
    object      CH3O;
}
// * * * * * * * * * * * * * * * * * * * * * * * * * * * * * * * * * * * * * //

dimensions      [0 0 0 0 0 0 0];

internalField   nonuniform List<scalar> 
1997
(
3.35747e-10
3.3619e-10
3.35608e-10
3.35239e-10
3.34464e-10
3.34029e-10
3.3356e-10
3.33245e-10
3.32964e-10
3.32783e-10
3.32623e-10
3.32535e-10
3.32447e-10
3.32401e-10
3.32347e-10
3.32325e-10
3.32292e-10
3.32282e-10
3.25916e-10
3.26301e-10
3.25655e-10
3.25241e-10
3.24431e-10
3.23979e-10
3.235e-10
3.23178e-10
3.22895e-10
3.22712e-10
3.2255e-10
3.22459e-10
3.2237e-10
3.22324e-10
3.22269e-10
3.22247e-10
3.22214e-10
3.22204e-10
3.22184e-10
3.2218e-10
3.22168e-10
3.22167e-10
3.2216e-10
3.2216e-10
3.22158e-10
3.22157e-10
3.22159e-10
3.2216e-10
3.15998e-10
3.16327e-10
3.15617e-10
3.1516e-10
3.14318e-10
3.13849e-10
3.13361e-10
3.13032e-10
3.12747e-10
3.12561e-10
3.12398e-10
3.12305e-10
3.12215e-10
3.12168e-10
3.12113e-10
3.12091e-10
3.12058e-10
3.12048e-10
3.12028e-10
3.12024e-10
3.12013e-10
3.12011e-10
3.12005e-10
3.12004e-10
3.12002e-10
3.12002e-10
3.12003e-10
3.12004e-10
3.1201e-10
3.12011e-10
3.12023e-10
3.12026e-10
3.12046e-10
3.12055e-10
3.12089e-10
3.12111e-10
3.12166e-10
3.12213e-10
3.12303e-10
3.12395e-10
3.06e-10
3.06275e-10
3.05504e-10
3.05001e-10
3.04133e-10
3.03647e-10
3.03149e-10
3.02814e-10
3.02528e-10
3.0234e-10
3.02177e-10
3.02082e-10
3.01991e-10
3.01944e-10
3.01888e-10
3.01866e-10
3.01833e-10
3.01823e-10
3.01803e-10
3.01799e-10
3.01787e-10
3.01786e-10
3.0178e-10
3.01779e-10
3.01777e-10
3.01776e-10
3.01778e-10
3.01779e-10
3.01785e-10
3.01786e-10
3.01798e-10
3.01801e-10
3.01821e-10
3.01831e-10
3.01864e-10
3.01886e-10
3.01942e-10
3.01989e-10
3.0208e-10
3.02174e-10
3.02337e-10
3.02525e-10
3.02811e-10
3.03147e-10
3.03643e-10
3.04129e-10
3.05001e-10
3.05507e-10
3.06277e-10
3.05998e-10
2.95933e-10
2.96153e-10
2.95323e-10
2.94775e-10
2.93884e-10
2.93381e-10
2.92876e-10
2.92534e-10
2.92247e-10
2.92058e-10
2.91895e-10
2.91799e-10
2.91707e-10
2.91659e-10
2.91604e-10
2.91581e-10
2.91548e-10
2.91538e-10
2.91519e-10
2.91515e-10
2.91503e-10
2.91502e-10
2.91495e-10
2.91494e-10
2.91492e-10
2.91492e-10
2.91494e-10
2.91494e-10
2.915e-10
2.91502e-10
2.91513e-10
2.91517e-10
2.91537e-10
2.91546e-10
2.9158e-10
2.91602e-10
2.91658e-10
2.91705e-10
2.91797e-10
2.91893e-10
2.92056e-10
2.92245e-10
2.92533e-10
2.92874e-10
2.93377e-10
2.93881e-10
2.94776e-10
2.95323e-10
2.96157e-10
2.95931e-10
2.85788e-10
2.85974e-10
2.85083e-10
2.84491e-10
2.83563e-10
2.83022e-10
2.82488e-10
2.82131e-10
2.81834e-10
2.81639e-10
2.81472e-10
2.81374e-10
2.81279e-10
2.81231e-10
2.81174e-10
2.81151e-10
2.81117e-10
2.81107e-10
2.81087e-10
2.81083e-10
2.81071e-10
2.8107e-10
2.81063e-10
2.81062e-10
2.8106e-10
2.8106e-10
2.81062e-10
2.81062e-10
2.81069e-10
2.8107e-10
2.81082e-10
2.81086e-10
2.81106e-10
2.81116e-10
2.8115e-10
2.81173e-10
2.8123e-10
2.81278e-10
2.81373e-10
2.8147e-10
2.81638e-10
2.81833e-10
2.8213e-10
2.82488e-10
2.8302e-10
2.83561e-10
2.84492e-10
2.85081e-10
2.85976e-10
2.85788e-10
2.75609e-10
2.75751e-10
2.74794e-10
2.74162e-10
2.7322e-10
2.72661e-10
2.72119e-10
2.71757e-10
2.71461e-10
2.71265e-10
2.71098e-10
2.70999e-10
2.70904e-10
2.70856e-10
2.70799e-10
2.70776e-10
2.70742e-10
2.70732e-10
2.70712e-10
2.70708e-10
2.70696e-10
2.70695e-10
2.70688e-10
2.70687e-10
2.70685e-10
2.70685e-10
2.70687e-10
2.70687e-10
2.70694e-10
2.70695e-10
2.70707e-10
2.70711e-10
2.70731e-10
2.70741e-10
2.70775e-10
2.70798e-10
2.70855e-10
2.70904e-10
2.70998e-10
2.71097e-10
2.71264e-10
2.7146e-10
2.71757e-10
2.7212e-10
2.7266e-10
2.73219e-10
2.74163e-10
2.74797e-10
2.7574e-10
2.75609e-10
2.65393e-10
2.65505e-10
2.64453e-10
2.638e-10
2.6285e-10
2.62273e-10
2.61724e-10
2.61358e-10
2.61062e-10
2.60866e-10
2.607e-10
2.60601e-10
2.60506e-10
2.60457e-10
2.604e-10
2.60377e-10
2.60343e-10
2.60334e-10
2.60313e-10
2.6031e-10
2.60298e-10
2.60296e-10
2.6029e-10
2.60289e-10
2.60287e-10
2.60287e-10
2.60289e-10
2.60289e-10
2.60296e-10
2.60297e-10
2.60309e-10
2.60313e-10
2.60333e-10
2.60343e-10
2.60377e-10
2.604e-10
2.60457e-10
2.60505e-10
2.606e-10
2.60699e-10
2.60865e-10
2.61061e-10
2.61358e-10
2.61725e-10
2.62272e-10
2.62848e-10
2.63801e-10
2.64493e-10
2.65455e-10
2.65393e-10
2.55153e-10
2.55048e-10
2.54043e-10
2.53419e-10
2.52466e-10
2.51873e-10
2.51317e-10
2.50947e-10
2.50653e-10
2.50457e-10
2.50293e-10
2.50194e-10
2.50099e-10
2.5005e-10
2.49993e-10
2.49971e-10
2.49937e-10
2.49927e-10
2.49907e-10
2.49904e-10
2.49891e-10
2.4989e-10
2.49883e-10
2.49883e-10
2.49881e-10
2.4988e-10
2.49882e-10
2.49883e-10
2.49889e-10
2.49891e-10
2.49903e-10
2.49906e-10
2.49927e-10
2.49936e-10
2.4997e-10
2.49993e-10
2.5005e-10
2.50099e-10
2.50193e-10
2.50292e-10
2.50457e-10
2.50653e-10
2.50948e-10
2.51319e-10
2.51872e-10
2.52465e-10
2.53421e-10
2.54007e-10
2.55099e-10
2.55153e-10
2.44907e-10
2.44765e-10
2.43676e-10
2.43034e-10
2.42067e-10
2.41434e-10
2.40849e-10
2.40465e-10
2.40166e-10
2.39966e-10
2.39799e-10
2.39699e-10
2.39603e-10
2.39555e-10
2.39497e-10
2.39475e-10
2.3944e-10
2.39431e-10
2.3941e-10
2.39407e-10
2.39395e-10
2.39394e-10
2.39387e-10
2.39386e-10
2.39384e-10
2.39384e-10
2.39386e-10
2.39386e-10
2.39393e-10
2.39394e-10
2.39407e-10
2.3941e-10
2.39431e-10
2.3944e-10
2.39475e-10
2.39497e-10
2.39555e-10
2.39604e-10
2.39699e-10
2.39799e-10
2.39967e-10
2.40166e-10
2.40467e-10
2.40851e-10
2.41434e-10
2.42067e-10
2.43036e-10
2.43675e-10
2.4478e-10
2.44907e-10
2.34561e-10
2.34456e-10
2.33338e-10
2.32669e-10
2.31704e-10
2.31056e-10
2.30466e-10
2.30079e-10
2.29782e-10
2.29583e-10
2.29419e-10
2.29319e-10
2.29224e-10
2.29176e-10
2.29119e-10
2.29096e-10
2.29062e-10
2.29053e-10
2.29033e-10
2.29029e-10
2.29017e-10
2.29016e-10
2.29009e-10
2.29009e-10
2.29006e-10
2.29006e-10
2.29008e-10
2.29009e-10
2.29016e-10
2.29017e-10
2.29029e-10
2.29032e-10
2.29053e-10
2.29062e-10
2.29096e-10
2.29119e-10
2.29176e-10
2.29225e-10
2.2932e-10
2.29419e-10
2.29584e-10
2.29782e-10
2.3008e-10
2.30469e-10
2.31057e-10
2.31705e-10
2.32671e-10
2.33342e-10
2.34456e-10
2.34561e-10
2.24347e-10
2.24192e-10
2.23037e-10
2.2234e-10
2.21379e-10
2.20719e-10
2.20125e-10
2.19733e-10
2.19441e-10
2.19243e-10
2.19082e-10
2.18983e-10
2.18889e-10
2.18841e-10
2.18785e-10
2.18762e-10
2.18728e-10
2.18719e-10
2.18699e-10
2.18696e-10
2.18684e-10
2.18683e-10
2.18676e-10
2.18676e-10
2.18674e-10
2.18673e-10
2.18675e-10
2.18676e-10
2.18683e-10
2.18684e-10
2.18696e-10
2.18699e-10
2.18719e-10
2.18728e-10
2.18762e-10
2.18785e-10
2.18841e-10
2.18889e-10
2.18984e-10
2.19082e-10
2.19245e-10
2.19441e-10
2.19734e-10
2.20128e-10
2.20719e-10
2.21379e-10
2.22342e-10
2.23039e-10
2.24189e-10
2.24347e-10
2.14086e-10
2.13919e-10
2.12734e-10
2.12006e-10
2.1104e-10
2.10352e-10
2.09739e-10
2.09337e-10
2.09042e-10
2.08844e-10
2.08683e-10
2.08585e-10
2.08491e-10
2.08444e-10
2.08388e-10
2.08367e-10
2.08333e-10
2.08324e-10
2.08304e-10
2.08301e-10
2.08289e-10
2.08288e-10
2.08282e-10
2.08281e-10
2.08279e-10
2.08279e-10
2.08281e-10
2.08281e-10
2.08288e-10
2.08289e-10
2.08301e-10
2.08304e-10
2.08324e-10
2.08333e-10
2.08367e-10
2.08389e-10
2.08445e-10
2.08492e-10
2.08586e-10
2.08683e-10
2.08846e-10
2.09042e-10
2.09338e-10
2.09742e-10
2.10353e-10
2.11041e-10
2.12008e-10
2.12734e-10
2.13917e-10
2.14087e-10
2.0398e-10
2.03762e-10
2.02554e-10
2.01807e-10
2.00847e-10
2.00153e-10
1.99536e-10
1.9913e-10
1.9884e-10
1.98645e-10
1.98487e-10
1.98391e-10
1.98299e-10
1.98252e-10
1.98197e-10
1.98176e-10
1.98143e-10
1.98134e-10
1.98114e-10
1.98112e-10
1.981e-10
1.98099e-10
1.98092e-10
1.98092e-10
1.9809e-10
1.98089e-10
1.98092e-10
1.98092e-10
1.98098e-10
1.98099e-10
1.98111e-10
1.98114e-10
1.98134e-10
1.98143e-10
1.98176e-10
1.98197e-10
1.98253e-10
1.98299e-10
1.98391e-10
1.98487e-10
1.98646e-10
1.9884e-10
1.99132e-10
1.99539e-10
2.00154e-10
2.00848e-10
2.01808e-10
2.02553e-10
2.0376e-10
2.0398e-10
1.93944e-10
1.93678e-10
1.92407e-10
1.91619e-10
1.9064e-10
1.8992e-10
1.89289e-10
1.88866e-10
1.88572e-10
1.88378e-10
1.88219e-10
1.88124e-10
1.88032e-10
1.87985e-10
1.8793e-10
1.87909e-10
1.87876e-10
1.87868e-10
1.87848e-10
1.87845e-10
1.87833e-10
1.87833e-10
1.87826e-10
1.87826e-10
1.87823e-10
1.87823e-10
1.87825e-10
1.87825e-10
1.87832e-10
1.87833e-10
1.87845e-10
1.87848e-10
1.87868e-10
1.87876e-10
1.8791e-10
1.87931e-10
1.87986e-10
1.88032e-10
1.88124e-10
1.88219e-10
1.88379e-10
1.88573e-10
1.88868e-10
1.89292e-10
1.89921e-10
1.90641e-10
1.91621e-10
1.92405e-10
1.93677e-10
1.93945e-10
1.83737e-10
1.8341e-10
1.8213e-10
1.8133e-10
1.80365e-10
1.79643e-10
1.79027e-10
1.78584e-10
1.78297e-10
1.78108e-10
1.77953e-10
1.7786e-10
1.7777e-10
1.77725e-10
1.77671e-10
1.77651e-10
1.77618e-10
1.7761e-10
1.77591e-10
1.77588e-10
1.77577e-10
1.77576e-10
1.77569e-10
1.77569e-10
1.77567e-10
1.77567e-10
1.77569e-10
1.77569e-10
1.77575e-10
1.77576e-10
1.77588e-10
1.77591e-10
1.7761e-10
1.77618e-10
1.77651e-10
1.77672e-10
1.77726e-10
1.77771e-10
1.7786e-10
1.77953e-10
1.78108e-10
1.78298e-10
1.78586e-10
1.79031e-10
1.79645e-10
1.80366e-10
1.81332e-10
1.82128e-10
1.83409e-10
1.83738e-10
1.7366e-10
1.73265e-10
1.71983e-10
1.71176e-10
1.70228e-10
1.69505e-10
1.68924e-10
1.68444e-10
1.68162e-10
1.67979e-10
1.67829e-10
1.67738e-10
1.67652e-10
1.67608e-10
1.67556e-10
1.67535e-10
1.67504e-10
1.67496e-10
1.67477e-10
1.67475e-10
1.67463e-10
1.67463e-10
1.67456e-10
1.67456e-10
1.67454e-10
1.67454e-10
1.67456e-10
1.67456e-10
1.67462e-10
1.67463e-10
1.67474e-10
1.67477e-10
1.67496e-10
1.67504e-10
1.67536e-10
1.67556e-10
1.67608e-10
1.67652e-10
1.67739e-10
1.67829e-10
1.67979e-10
1.68163e-10
1.68445e-10
1.68928e-10
1.69507e-10
1.7023e-10
1.71177e-10
1.71981e-10
1.73265e-10
1.73661e-10
1.6374e-10
1.63268e-10
1.61988e-10
1.61179e-10
1.60253e-10
1.59531e-10
1.59007e-10
1.58749e-10
1.58476e-10
1.58298e-10
1.58152e-10
1.58064e-10
1.57981e-10
1.57938e-10
1.57887e-10
1.57868e-10
1.57837e-10
1.5783e-10
1.57811e-10
1.57809e-10
1.57798e-10
1.57797e-10
1.57791e-10
1.57791e-10
1.57789e-10
1.57789e-10
1.57791e-10
1.57791e-10
1.57797e-10
1.57798e-10
1.57809e-10
1.57811e-10
1.5783e-10
1.57837e-10
1.57868e-10
1.57888e-10
1.57938e-10
1.57981e-10
1.58065e-10
1.58152e-10
1.58297e-10
1.58477e-10
1.5875e-10
1.5901e-10
1.59533e-10
1.60254e-10
1.6118e-10
1.61987e-10
1.63267e-10
1.63741e-10
1.53999e-10
1.5373e-10
1.52452e-10
1.51645e-10
1.5074e-10
1.50021e-10
1.49531e-10
1.49239e-10
1.48954e-10
1.4877e-10
1.48619e-10
1.48528e-10
1.48442e-10
1.48398e-10
1.48345e-10
1.48325e-10
1.48294e-10
1.48285e-10
1.48267e-10
1.48264e-10
1.48253e-10
1.48252e-10
1.48245e-10
1.48245e-10
1.48243e-10
1.48243e-10
1.48245e-10
1.48245e-10
1.48251e-10
1.48252e-10
1.48263e-10
1.48266e-10
1.48285e-10
1.48293e-10
1.48325e-10
1.48346e-10
1.48398e-10
1.48443e-10
1.48529e-10
1.48619e-10
1.48768e-10
1.48955e-10
1.4924e-10
1.49533e-10
1.50024e-10
1.50741e-10
1.51646e-10
1.52451e-10
1.5373e-10
1.53999e-10
1.44715e-10
1.44392e-10
1.43119e-10
1.42319e-10
1.41438e-10
1.40721e-10
1.40254e-10
1.39951e-10
1.39674e-10
1.39495e-10
1.3935e-10
1.39262e-10
1.39179e-10
1.39136e-10
1.39085e-10
1.39066e-10
1.39035e-10
1.39027e-10
1.39009e-10
1.39006e-10
1.38995e-10
1.38995e-10
1.38989e-10
1.38988e-10
1.38986e-10
1.38986e-10
1.38988e-10
1.38988e-10
1.38994e-10
1.38995e-10
1.39006e-10
1.39009e-10
1.39027e-10
1.39035e-10
1.39066e-10
1.39085e-10
1.39136e-10
1.39179e-10
1.39262e-10
1.39349e-10
1.39494e-10
1.39675e-10
1.39952e-10
1.40256e-10
1.40724e-10
1.41439e-10
1.4232e-10
1.43119e-10
1.44392e-10
1.44716e-10
1.35425e-10
1.3506e-10
1.33797e-10
1.33006e-10
1.32148e-10
1.31424e-10
1.30971e-10
1.30665e-10
1.30395e-10
1.30221e-10
1.30079e-10
1.29995e-10
1.29915e-10
1.29873e-10
1.29824e-10
1.29805e-10
1.29775e-10
1.29768e-10
1.2975e-10
1.29748e-10
1.29737e-10
1.29737e-10
1.29731e-10
1.29731e-10
1.29728e-10
1.29728e-10
1.2973e-10
1.2973e-10
1.29736e-10
1.29737e-10
1.29748e-10
1.2975e-10
1.29768e-10
1.29775e-10
1.29805e-10
1.29824e-10
1.29873e-10
1.29915e-10
1.29995e-10
1.30079e-10
1.30219e-10
1.30397e-10
1.30666e-10
1.30973e-10
1.31427e-10
1.32148e-10
1.33007e-10
1.33797e-10
1.3506e-10
1.35426e-10
1.26314e-10
1.2591e-10
1.24671e-10
1.23895e-10
1.23068e-10
1.2235e-10
1.21916e-10
1.21612e-10
1.21355e-10
1.21186e-10
1.2105e-10
1.20969e-10
1.20893e-10
1.20853e-10
1.20806e-10
1.20788e-10
1.20759e-10
1.20752e-10
1.20735e-10
1.20733e-10
1.20723e-10
1.20722e-10
1.20717e-10
1.20716e-10
1.20714e-10
1.20714e-10
1.20716e-10
1.20716e-10
1.20722e-10
1.20722e-10
1.20733e-10
1.20735e-10
1.20752e-10
1.20759e-10
1.20788e-10
1.20806e-10
1.20853e-10
1.20893e-10
1.20969e-10
1.21049e-10
1.21184e-10
1.21356e-10
1.21613e-10
1.21917e-10
1.22353e-10
1.23068e-10
1.23896e-10
1.24671e-10
1.25911e-10
1.26315e-10
1.17705e-10
1.17276e-10
1.16058e-10
1.153e-10
1.14501e-10
1.13793e-10
1.13373e-10
1.13076e-10
1.12831e-10
1.12666e-10
1.12536e-10
1.12459e-10
1.12386e-10
1.12348e-10
1.12303e-10
1.12286e-10
1.12258e-10
1.12252e-10
1.12235e-10
1.12233e-10
1.12223e-10
1.12223e-10
1.12217e-10
1.12217e-10
1.12215e-10
1.12215e-10
1.12217e-10
1.12217e-10
1.12222e-10
1.12223e-10
1.12233e-10
1.12235e-10
1.12251e-10
1.12258e-10
1.12286e-10
1.12303e-10
1.12348e-10
1.12386e-10
1.12459e-10
1.12536e-10
1.12664e-10
1.12832e-10
1.13077e-10
1.13375e-10
1.13795e-10
1.14502e-10
1.15301e-10
1.16058e-10
1.17277e-10
1.17706e-10
1.09372e-10
1.08924e-10
1.07731e-10
1.06995e-10
1.06228e-10
1.05527e-10
1.05125e-10
1.04835e-10
1.04603e-10
1.04444e-10
1.04319e-10
1.04245e-10
1.04176e-10
1.0414e-10
1.04097e-10
1.04081e-10
1.04055e-10
1.04048e-10
1.04033e-10
1.04031e-10
1.04021e-10
1.04021e-10
1.04016e-10
1.04015e-10
1.04014e-10
1.04013e-10
1.04015e-10
1.04015e-10
1.0402e-10
1.04021e-10
1.0403e-10
1.04032e-10
1.04048e-10
1.04054e-10
1.04081e-10
1.04097e-10
1.0414e-10
1.04176e-10
1.04246e-10
1.04318e-10
1.04441e-10
1.04604e-10
1.04837e-10
1.05126e-10
1.05529e-10
1.06229e-10
1.06996e-10
1.07731e-10
1.08924e-10
1.09373e-10
1.01335e-10
1.0087e-10
9.9707e-11
9.89987e-11
9.82641e-11
9.75703e-11
9.71893e-11
9.69077e-11
9.66886e-11
9.65342e-11
9.64158e-11
9.63457e-11
9.628e-11
9.62459e-11
9.62052e-11
9.61899e-11
9.61649e-11
9.6159e-11
9.61441e-11
9.61423e-11
9.61333e-11
9.61329e-11
9.61279e-11
9.61278e-11
9.6126e-11
9.61258e-11
9.61274e-11
9.61274e-11
9.61324e-11
9.61328e-11
9.61418e-11
9.61437e-11
9.61587e-11
9.61647e-11
9.61897e-11
9.62052e-11
9.62459e-11
9.62802e-11
9.63458e-11
9.64149e-11
9.65318e-11
9.66896e-11
9.69093e-11
9.71907e-11
9.75723e-11
9.82647e-11
9.89995e-11
9.97073e-11
1.0087e-10
1.01335e-10
9.34885e-11
9.31284e-11
9.20072e-11
9.13259e-11
9.06241e-11
8.99409e-11
8.95815e-11
8.9309e-11
8.91032e-11
8.89538e-11
8.88416e-11
8.87753e-11
8.87134e-11
8.86814e-11
8.86428e-11
8.86285e-11
8.86048e-11
8.85993e-11
8.85851e-11
8.85835e-11
8.85749e-11
8.85746e-11
8.85698e-11
8.85697e-11
8.8568e-11
8.85678e-11
8.85694e-11
8.85693e-11
8.85741e-11
8.85744e-11
8.8583e-11
8.85847e-11
8.8599e-11
8.86045e-11
8.86283e-11
8.86428e-11
8.86813e-11
8.87135e-11
8.87754e-11
8.88407e-11
8.89512e-11
8.91042e-11
8.93107e-11
8.95828e-11
8.99425e-11
9.06246e-11
9.13267e-11
9.20076e-11
9.31288e-11
9.34889e-11
8.60855e-11
8.56895e-11
8.45617e-11
8.38855e-11
8.31987e-11
8.25143e-11
8.21678e-11
8.19016e-11
8.17059e-11
8.15588e-11
8.1452e-11
8.13883e-11
8.13293e-11
8.12988e-11
8.1262e-11
8.12483e-11
8.12256e-11
8.12204e-11
8.12067e-11
8.12052e-11
8.1197e-11
8.11967e-11
8.11921e-11
8.1192e-11
8.11904e-11
8.11902e-11
8.11917e-11
8.11916e-11
8.11962e-11
8.11965e-11
8.12047e-11
8.12063e-11
8.122e-11
8.12253e-11
8.12481e-11
8.12619e-11
8.12987e-11
8.13294e-11
8.13885e-11
8.14508e-11
8.15561e-11
8.17068e-11
8.19034e-11
8.2169e-11
8.25156e-11
8.3199e-11
8.38862e-11
8.45621e-11
8.56898e-11
8.60859e-11
7.88399e-11
7.84261e-11
7.73518e-11
7.67079e-11
7.6059e-11
7.55719e-11
7.52471e-11
7.49925e-11
7.48104e-11
7.46673e-11
7.4568e-11
7.4508e-11
7.44528e-11
7.44244e-11
7.43898e-11
7.4377e-11
7.43557e-11
7.43509e-11
7.4338e-11
7.43367e-11
7.43289e-11
7.43287e-11
7.43244e-11
7.43243e-11
7.43227e-11
7.43226e-11
7.4324e-11
7.43239e-11
7.43282e-11
7.43284e-11
7.43362e-11
7.43376e-11
7.43505e-11
7.43554e-11
7.43768e-11
7.43897e-11
7.44243e-11
7.44529e-11
7.45083e-11
7.45666e-11
7.46646e-11
7.48112e-11
7.49944e-11
7.52482e-11
7.5573e-11
7.60591e-11
7.67087e-11
7.73521e-11
7.84264e-11
7.88401e-11
7.212e-11
7.17061e-11
7.0684e-11
7.00723e-11
6.94627e-11
6.89897e-11
6.86873e-11
6.84453e-11
6.8277e-11
6.81375e-11
6.80457e-11
6.79894e-11
6.79381e-11
6.79118e-11
6.78795e-11
6.78677e-11
6.78477e-11
6.78433e-11
6.78312e-11
6.783e-11
6.78228e-11
6.78226e-11
6.78185e-11
6.78185e-11
6.7817e-11
6.78169e-11
6.78182e-11
6.78181e-11
6.78221e-11
6.78223e-11
6.78296e-11
6.78308e-11
6.78429e-11
6.78474e-11
6.78674e-11
6.78793e-11
6.79117e-11
6.79381e-11
6.79898e-11
6.80441e-11
6.81348e-11
6.82778e-11
6.84472e-11
6.86883e-11
6.89906e-11
6.94628e-11
7.0073e-11
7.06843e-11
7.17063e-11
7.21202e-11
6.57585e-11
6.53494e-11
6.43805e-11
6.38034e-11
6.32299e-11
6.27515e-11
6.2462e-11
6.22258e-11
6.2067e-11
6.19752e-11
6.18907e-11
6.18383e-11
6.17908e-11
6.17667e-11
6.17366e-11
6.17257e-11
6.17071e-11
6.17031e-11
6.16919e-11
6.16908e-11
6.1684e-11
6.16839e-11
6.16801e-11
6.16801e-11
6.16787e-11
6.16786e-11
6.16798e-11
6.16797e-11
6.16835e-11
6.16836e-11
6.16904e-11
6.16915e-11
6.17028e-11
6.17068e-11
6.17255e-11
6.17364e-11
6.17665e-11
6.17908e-11
6.18387e-11
6.18889e-11
6.19723e-11
6.20679e-11
6.22279e-11
6.2463e-11
6.27522e-11
6.32299e-11
6.3804e-11
6.43807e-11
6.53495e-11
6.57587e-11
5.97609e-11
5.9361e-11
5.84458e-11
5.79054e-11
5.73683e-11
5.69067e-11
5.66398e-11
5.64164e-11
5.6271e-11
5.61808e-11
5.60996e-11
5.60487e-11
5.60029e-11
5.59798e-11
5.59507e-11
5.59403e-11
5.59223e-11
5.59184e-11
5.59076e-11
5.59066e-11
5.59e-11
5.58999e-11
5.58962e-11
5.58962e-11
5.58949e-11
5.58948e-11
5.5896e-11
5.58958e-11
5.58995e-11
5.58995e-11
5.59062e-11
5.59071e-11
5.59181e-11
5.5922e-11
5.59401e-11
5.59505e-11
5.59796e-11
5.60029e-11
5.60492e-11
5.60975e-11
5.61778e-11
5.6272e-11
5.64184e-11
5.66407e-11
5.69073e-11
5.73682e-11
5.79059e-11
5.8446e-11
5.93611e-11
5.9761e-11
5.4057e-11
5.36555e-11
5.27799e-11
5.22657e-11
5.17602e-11
5.13092e-11
5.10602e-11
5.08493e-11
5.07155e-11
5.0629e-11
5.05543e-11
5.05066e-11
5.0464e-11
5.04426e-11
5.04155e-11
5.04059e-11
5.03891e-11
5.03856e-11
5.03754e-11
5.03745e-11
5.03684e-11
5.03684e-11
5.03649e-11
5.03649e-11
5.03637e-11
5.03636e-11
5.03647e-11
5.03645e-11
5.0368e-11
5.0368e-11
5.03741e-11
5.0375e-11
5.03852e-11
5.03888e-11
5.04057e-11
5.04154e-11
5.04424e-11
5.04639e-11
5.05072e-11
5.05519e-11
5.06262e-11
5.07163e-11
5.08514e-11
5.1061e-11
5.13096e-11
5.17601e-11
5.2266e-11
5.27801e-11
5.36555e-11
5.4057e-11
4.86507e-11
4.82617e-11
4.74489e-11
4.6969e-11
4.65083e-11
4.62035e-11
4.59744e-11
4.57778e-11
4.56559e-11
4.55744e-11
4.55065e-11
4.54625e-11
4.54233e-11
4.54038e-11
4.53789e-11
4.53702e-11
4.53547e-11
4.53515e-11
4.53421e-11
4.53414e-11
4.53357e-11
4.53357e-11
4.53325e-11
4.53325e-11
4.53314e-11
4.53313e-11
4.53323e-11
4.53322e-11
4.53353e-11
4.53353e-11
4.5341e-11
4.53418e-11
4.53512e-11
4.53544e-11
4.53699e-11
4.53788e-11
4.54036e-11
4.54232e-11
4.54631e-11
4.55039e-11
4.55718e-11
4.56566e-11
4.57798e-11
4.59752e-11
4.62038e-11
4.65082e-11
4.69692e-11
4.7449e-11
4.82617e-11
4.86507e-11
4.37442e-11
4.33721e-11
4.26149e-11
4.21677e-11
4.17482e-11
4.14608e-11
4.12459e-11
4.10709e-11
4.09605e-11
4.0884e-11
4.08229e-11
4.07823e-11
4.07464e-11
4.07288e-11
4.0706e-11
4.06981e-11
4.06839e-11
4.0681e-11
4.06724e-11
4.06718e-11
4.06666e-11
4.06666e-11
4.06637e-11
4.06637e-11
4.06626e-11
4.06626e-11
4.06635e-11
4.06634e-11
4.06663e-11
4.06662e-11
4.06714e-11
4.06721e-11
4.06807e-11
4.06836e-11
4.06978e-11
4.07058e-11
4.07286e-11
4.07463e-11
4.0783e-11
4.082e-11
4.08817e-11
4.09611e-11
4.10729e-11
4.12465e-11
4.14608e-11
4.17481e-11
4.21678e-11
4.26149e-11
4.33721e-11
4.37441e-11
3.91963e-11
3.88434e-11
3.81404e-11
3.77265e-11
3.73456e-11
3.70777e-11
3.68829e-11
3.67215e-11
3.66218e-11
3.65503e-11
3.64956e-11
3.64585e-11
3.64258e-11
3.64099e-11
3.6389e-11
3.63819e-11
3.6369e-11
3.63665e-11
3.63586e-11
3.63581e-11
3.63533e-11
3.63534e-11
3.63507e-11
3.63507e-11
3.63498e-11
3.63497e-11
3.63505e-11
3.63504e-11
3.6353e-11
3.6353e-11
3.63577e-11
3.63583e-11
3.63662e-11
3.63687e-11
3.63817e-11
3.63889e-11
3.64097e-11
3.64257e-11
3.64591e-11
3.64926e-11
3.65485e-11
3.66222e-11
3.67233e-11
3.68834e-11
3.70776e-11
3.73455e-11
3.77265e-11
3.81403e-11
3.88434e-11
3.91962e-11
3.49991e-11
3.46671e-11
3.40165e-11
3.36358e-11
3.32912e-11
3.30357e-11
3.28573e-11
3.27053e-11
3.26133e-11
3.25463e-11
3.24963e-11
3.24621e-11
3.2432e-11
3.24173e-11
3.23981e-11
3.23917e-11
3.23797e-11
3.23775e-11
3.23702e-11
3.23698e-11
3.23654e-11
3.23654e-11
3.2363e-11
3.2363e-11
3.23621e-11
3.2362e-11
3.23628e-11
3.23627e-11
3.23652e-11
3.2365e-11
3.23695e-11
3.23699e-11
3.23772e-11
3.23795e-11
3.23915e-11
3.2398e-11
3.24172e-11
3.24318e-11
3.24625e-11
3.24935e-11
3.25449e-11
3.26138e-11
3.27071e-11
3.28578e-11
3.30356e-11
3.32911e-11
3.36356e-11
3.40162e-11
3.4667e-11
3.49989e-11
3.11424e-11
3.08313e-11
3.02334e-11
2.98844e-11
2.95739e-11
2.9338e-11
2.9178e-11
2.90391e-11
2.89563e-11
2.88947e-11
2.88499e-11
2.88191e-11
2.87918e-11
2.87786e-11
2.87612e-11
2.87555e-11
2.87447e-11
2.87427e-11
2.87361e-11
2.87358e-11
2.87318e-11
2.87319e-11
2.87296e-11
2.87297e-11
2.87289e-11
2.87288e-11
2.87295e-11
2.87294e-11
2.87316e-11
2.87315e-11
2.87355e-11
2.87358e-11
2.87425e-11
2.87444e-11
2.87553e-11
2.87611e-11
2.87785e-11
2.87916e-11
2.88193e-11
2.88474e-11
2.88935e-11
2.89566e-11
2.90406e-11
2.91783e-11
2.93378e-11
2.95737e-11
2.98841e-11
3.0233e-11
3.08311e-11
3.11421e-11
2.76142e-11
2.73241e-11
2.67783e-11
2.64594e-11
2.61807e-11
2.59644e-11
2.58218e-11
2.56952e-11
2.56212e-11
2.55649e-11
2.5525e-11
2.54973e-11
2.54727e-11
2.54609e-11
2.54453e-11
2.54402e-11
2.54304e-11
2.54287e-11
2.54228e-11
2.54225e-11
2.54189e-11
2.5419e-11
2.5417e-11
2.5417e-11
2.54163e-11
2.54162e-11
2.54169e-11
2.54168e-11
2.54188e-11
2.54186e-11
2.54223e-11
2.54225e-11
2.54285e-11
2.54302e-11
2.544e-11
2.54452e-11
2.54608e-11
2.54726e-11
2.54974e-11
2.55227e-11
2.5564e-11
2.56213e-11
2.56964e-11
2.58219e-11
2.59641e-11
2.61805e-11
2.6459e-11
2.67778e-11
2.73239e-11
2.76139e-11
2.44011e-11
2.41325e-11
2.36358e-11
2.33463e-11
2.30972e-11
2.29003e-11
2.27738e-11
2.26589e-11
2.25931e-11
2.2542e-11
2.25066e-11
2.24818e-11
2.24598e-11
2.24493e-11
2.24353e-11
2.24308e-11
2.2422e-11
2.24206e-11
2.24152e-11
2.2415e-11
2.24118e-11
2.24119e-11
2.24101e-11
2.24101e-11
2.24095e-11
2.24094e-11
2.241e-11
2.24099e-11
2.24117e-11
2.24115e-11
2.24148e-11
2.2415e-11
2.24203e-11
2.24218e-11
2.24306e-11
2.24351e-11
2.24491e-11
2.24596e-11
2.24817e-11
2.25044e-11
2.25413e-11
2.25931e-11
2.26598e-11
2.27738e-11
2.28999e-11
2.30969e-11
2.33457e-11
2.36353e-11
2.41322e-11
2.44007e-11
2.14879e-11
2.12411e-11
2.07905e-11
2.05293e-11
2.03075e-11
2.01296e-11
2.00182e-11
1.99144e-11
1.98559e-11
1.98099e-11
1.97787e-11
1.97566e-11
1.9737e-11
1.97277e-11
1.97152e-11
1.97113e-11
1.97034e-11
1.97022e-11
1.96974e-11
1.96973e-11
1.96944e-11
1.96945e-11
1.96929e-11
1.96929e-11
1.96923e-11
1.96923e-11
1.96928e-11
1.96927e-11
1.96943e-11
1.96942e-11
1.96971e-11
1.96972e-11
1.9702e-11
1.97033e-11
1.97111e-11
1.97151e-11
1.97276e-11
1.97368e-11
1.97565e-11
1.97767e-11
1.98094e-11
1.98558e-11
1.9915e-11
2.00181e-11
2.01292e-11
2.03072e-11
2.05287e-11
2.07899e-11
2.12407e-11
2.14875e-11
1.88583e-11
1.86334e-11
1.82192e-11
1.79772e-11
1.77748e-11
1.76118e-11
1.75121e-11
1.74168e-11
1.73641e-11
1.73221e-11
1.72944e-11
1.72744e-11
1.72568e-11
1.72484e-11
1.72372e-11
1.72338e-11
1.72267e-11
1.72256e-11
1.72213e-11
1.72212e-11
1.72186e-11
1.72187e-11
1.72172e-11
1.72173e-11
1.72168e-11
1.72167e-11
1.72172e-11
1.72171e-11
1.72185e-11
1.72184e-11
1.7221e-11
1.72211e-11
1.72254e-11
1.72265e-11
1.72336e-11
1.72371e-11
1.72483e-11
1.72566e-11
1.72742e-11
1.72925e-11
1.73219e-11
1.73639e-11
1.74175e-11
1.7512e-11
1.76113e-11
1.77745e-11
1.79764e-11
1.82186e-11
1.86331e-11
1.88579e-11
1.64955e-11
1.62924e-11
1.59174e-11
1.56999e-11
1.55222e-11
1.53758e-11
1.5289e-11
1.52034e-11
1.51565e-11
1.5119e-11
1.50949e-11
)
;

boundaryField
{
    fuel
    {
        type            fixedValue;
        value           nonuniform 0();
    }
    wall
    {
        type            zeroGradient;
    }
    outlet
    {
        type            zeroGradient;
    }
    frontAndBack
    {
        type            empty;
    }
    procBoundary2to0
    {
        type            processor;
        value           nonuniform List<scalar> 
53
(
3.45487e-10
3.45984e-10
3.45474e-10
3.45147e-10
3.44409e-10
3.43991e-10
3.43533e-10
3.43225e-10
3.42948e-10
3.4277e-10
3.42611e-10
3.42526e-10
3.42439e-10
3.42395e-10
3.4234e-10
3.42319e-10
3.42286e-10
3.42276e-10
3.32263e-10
3.32263e-10
3.32259e-10
3.32247e-10
3.32246e-10
3.32239e-10
3.32239e-10
3.32237e-10
3.32236e-10
3.32238e-10
3.32238e-10
3.22166e-10
3.22166e-10
3.22167e-10
3.22179e-10
3.22182e-10
3.22202e-10
3.22212e-10
3.22245e-10
3.22267e-10
3.22322e-10
3.22368e-10
3.22457e-10
3.22547e-10
3.12558e-10
3.12558e-10
3.12744e-10
3.13029e-10
3.13358e-10
3.13845e-10
3.14315e-10
3.1516e-10
3.15622e-10
3.16329e-10
3.15995e-10
)
;
    }
    procBoundary2to3
    {
        type            processor;
        value           nonuniform List<scalar> 
51
(
1.50775e-11
1.50619e-11
1.50546e-11
1.50447e-11
1.50417e-11
1.50354e-11
1.50345e-11
1.50307e-11
1.50306e-11
1.50283e-11
1.50284e-11
1.50271e-11
1.50272e-11
1.50267e-11
1.50266e-11
1.50271e-11
1.5027e-11
1.50283e-11
1.50281e-11
1.50304e-11
1.50305e-11
1.50343e-11
1.50353e-11
1.50416e-11
1.50446e-11
1.50545e-11
1.50618e-11
1.50772e-11
1.50934e-11
1.51192e-11
1.51564e-11
1.52043e-11
1.5289e-11
1.53755e-11
1.5522e-11
1.56994e-11
1.5917e-11
1.62923e-11
1.64953e-11
1.43819e-11
1.4199e-11
1.38622e-11
1.3666e-11
1.3512e-11
1.33805e-11
1.33057e-11
1.32292e-11
1.31873e-11
1.3154e-11
1.50775e-11
1.31332e-11
)
;
    }
}


// ************************************************************************* //
