/*--------------------------------*- C++ -*----------------------------------*\
| =========                 |                                                 |
| \\      /  F ield         | OpenFOAM: The Open Source CFD Toolbox           |
|  \\    /   O peration     | Version:  dev                                   |
|   \\  /    A nd           | Web:      www.OpenFOAM.org                      |
|    \\/     M anipulation  |                                                 |
\*---------------------------------------------------------------------------*/
FoamFile
{
    version     2.0;
    format      ascii;
    class       volScalarField;
    location    "0.045";
    object      H2C4O;
}
// * * * * * * * * * * * * * * * * * * * * * * * * * * * * * * * * * * * * * //

dimensions      [0 0 0 0 0 0 0];

internalField   nonuniform List<scalar> 
250
(
3.19609e-06
1.14408e-05
1.06817e-05
1.05605e-05
1.0542e-05
1.05406e-05
1.05404e-05
1.05391e-05
1.05377e-05
6.03468e-06
9.63937e-06
8.74811e-06
8.59795e-06
8.57474e-06
8.57311e-06
8.57206e-06
8.57171e-06
8.57159e-06
6.89406e-06
7.91278e-06
6.97529e-06
6.80273e-06
6.77425e-06
6.77249e-06
6.77133e-06
6.77111e-06
6.77138e-06
6.87241e-06
6.8104e-06
5.84841e-06
5.65415e-06
5.62115e-06
5.61909e-06
5.61804e-06
5.6177e-06
5.61823e-06
6.5886e-06
6.09479e-06
5.11587e-06
4.91788e-06
4.88162e-06
4.8793e-06
4.87838e-06
4.87787e-06
4.87862e-06
6.31869e-06
5.58428e-06
4.61926e-06
4.38032e-06
4.32802e-06
4.32429e-06
4.32328e-06
4.32253e-06
4.32356e-06
6.17375e-06
5.1829e-06
4.24576e-06
3.99109e-06
3.93479e-06
3.93092e-06
3.93e-06
3.92904e-06
3.93029e-06
6.16919e-06
4.84415e-06
3.93419e-06
3.67748e-06
3.6e-06
3.5924e-06
3.59098e-06
3.58964e-06
3.5913e-06
6.16063e-06
4.54488e-06
3.63928e-06
3.40277e-06
3.32968e-06
3.32164e-06
3.32021e-06
3.31861e-06
3.32053e-06
5.41254e-06
4.27329e-06
3.40968e-06
3.14077e-06
3.05936e-06
3.05091e-06
3.04946e-06
3.04761e-06
3.04976e-06
3.40799e-06
4.02247e-06
3.2019e-06
2.90563e-06
2.8483e-06
2.83987e-06
2.83841e-06
2.83633e-06
2.83871e-06
2.83758e-06
1.71935e-06
3.7903e-06
2.99102e-06
2.721e-06
2.6506e-06
2.63987e-06
2.63795e-06
2.63548e-06
2.63829e-06
2.63702e-06
9.79194e-07
3.57564e-06
2.79453e-06
2.53409e-06
2.4592e-06
2.44812e-06
2.44609e-06
2.44342e-06
2.44641e-06
2.44504e-06
7.85058e-07
3.3767e-06
2.63571e-06
2.36233e-06
2.28534e-06
2.27396e-06
2.27179e-06
2.26896e-06
2.27209e-06
2.27064e-06
8.11457e-07
3.19121e-06
2.47484e-06
2.20521e-06
2.1271e-06
2.11546e-06
2.11315e-06
2.1102e-06
2.11342e-06
2.1119e-06
9.23675e-07
3.01792e-06
2.32021e-06
2.06118e-06
1.98278e-06
1.97101e-06
1.96856e-06
1.96552e-06
1.96879e-06
1.96721e-06
1.067e-06
2.8396e-06
2.17574e-06
1.92893e-06
1.85101e-06
1.8392e-06
1.83663e-06
1.83353e-06
1.83682e-06
1.83521e-06
1.21406e-06
2.66069e-06
2.04066e-06
1.80734e-06
1.73059e-06
1.71885e-06
1.71616e-06
1.71305e-06
1.71632e-06
1.71469e-06
1.34817e-06
2.49024e-06
1.91449e-06
1.69548e-06
1.62045e-06
1.60887e-06
1.60609e-06
1.60299e-06
1.60619e-06
1.60457e-06
1.45894e-06
2.32747e-06
1.79684e-06
1.59252e-06
1.51961e-06
1.50826e-06
1.50541e-06
1.50238e-06
1.50547e-06
1.50388e-06
1.54123e-06
2.19348e-06
1.6874e-06
1.49772e-06
1.42713e-06
1.41609e-06
1.41321e-06
1.41026e-06
1.4132e-06
1.41166e-06
1.59334e-06
2.05422e-06
1.58569e-06
1.41037e-06
1.34206e-06
1.33139e-06
1.3285e-06
1.32569e-06
1.32844e-06
1.32698e-06
1.61848e-06
1.91832e-06
1.49134e-06
1.32976e-06
1.27272e-06
1.2625e-06
1.25964e-06
1.25692e-06
1.25953e-06
1.25813e-06
1.61843e-06
1.80026e-06
1.40398e-06
1.26398e-06
1.20573e-06
1.19593e-06
1.19303e-06
1.19024e-06
1.19288e-06
1.19134e-06
1.59883e-06
1.68844e-06
1.32261e-06
1.19798e-06
1.14845e-06
1.13915e-06
1.13631e-06
1.13361e-06
1.13611e-06
1.13461e-06
1.56394e-06
1.58695e-06
1.25546e-06
1.14287e-06
1.09662e-06
1.08782e-06
1.08505e-06
1.08245e-06
1.08481e-06
1.08336e-06
)
;

boundaryField
{
    fuel
    {
        type            fixedValue;
        value           uniform 0;
    }
    wall
    {
        type            zeroGradient;
    }
    outlet
    {
        type            zeroGradient;
    }
    frontAndBack
    {
        type            empty;
    }
    procBoundary2to0
    {
        type            processor;
        value           nonuniform List<scalar> 
12
(
1.13435e-06
1.51755e-06
1.49412e-06
1.19391e-06
1.09268e-06
1.04967e-06
1.04137e-06
1.0387e-06
1.03619e-06
1.03842e-06
1.08314e-06
1.037e-06
)
;
    }
    procBoundary2to3
    {
        type            processor;
        value           nonuniform List<scalar> 
25
(
1.05392e-05
8.57171e-06
6.77121e-06
5.61797e-06
4.8783e-06
4.32311e-06
3.92974e-06
3.59056e-06
3.31968e-06
3.0488e-06
3.0488e-06
2.8372e-06
2.63654e-06
2.44452e-06
2.27011e-06
2.11137e-06
1.96669e-06
1.8347e-06
1.71419e-06
1.6041e-06
1.50344e-06
1.41127e-06
1.32663e-06
1.25782e-06
1.19106e-06
)
;
    }
}


// ************************************************************************* //
