/*--------------------------------*- C++ -*----------------------------------*\
| =========                 |                                                 |
| \\      /  F ield         | OpenFOAM: The Open Source CFD Toolbox           |
|  \\    /   O peration     | Version:  dev                                   |
|   \\  /    A nd           | Web:      www.OpenFOAM.org                      |
|    \\/     M anipulation  |                                                 |
\*---------------------------------------------------------------------------*/
FoamFile
{
    version     2.0;
    format      ascii;
    class       volScalarField;
    location    "0.045";
    object      H2O;
}
// * * * * * * * * * * * * * * * * * * * * * * * * * * * * * * * * * * * * * //

dimensions      [0 0 0 0 0 0 0];

internalField   nonuniform List<scalar> 
250
(
0.00372915
0.0586901
0.0587321
0.058716
0.0587121
0.0587121
0.0587125
0.058712
0.0587107
0.0100799
0.0669007
0.0665907
0.0665097
0.0665001
0.0664986
0.0664983
0.066498
0.0664979
0.0164721
0.0678581
0.0673692
0.0672415
0.0672206
0.067219
0.0672183
0.067218
0.0672183
0.0226376
0.067451
0.0668821
0.0667185
0.0666897
0.066688
0.0666871
0.0666867
0.0666872
0.0284039
0.0668427
0.066233
0.0660564
0.0660218
0.06602
0.0660191
0.0660185
0.0660193
0.0336566
0.0662665
0.0656551
0.0654231
0.0653666
0.0653632
0.0653621
0.0653612
0.0653624
0.0383471
0.0657562
0.0651559
0.0648984
0.0648348
0.0648313
0.0648303
0.0648291
0.0648306
0.0424933
0.0653061
0.0647068
0.064443
0.0643463
0.0643373
0.0643355
0.0643336
0.0643359
0.046174
0.064905
0.0642619
0.0640251
0.0639328
0.063923
0.0639212
0.0639188
0.0639216
0.049482
0.0645438
0.0639054
0.0636122
0.0635036
0.0634929
0.063491
0.0634882
0.0634914
0.0523701
0.0642143
0.0635753
0.0632292
0.0631571
0.0631463
0.0631443
0.0631409
0.0631447
0.063143
0.0547751
0.0639091
0.0632323
0.0629188
0.0628217
0.0628065
0.0628037
0.0627995
0.0628042
0.062802
0.0566559
0.0636227
0.0629042
0.062594
0.062485
0.0624686
0.0624654
0.0624607
0.0624659
0.0624635
0.0580615
0.0633511
0.0626319
0.0622845
0.0621668
0.0621492
0.0621456
0.0621403
0.0621461
0.0621433
0.0590858
0.0630906
0.0623482
0.0619902
0.0618648
0.0618459
0.0618419
0.0618361
0.0618423
0.0618393
0.0598141
0.0628392
0.0620665
0.0617091
0.0615769
0.0615569
0.0615524
0.0615461
0.0615528
0.0615495
0.0603116
0.0625709
0.0617941
0.0614398
0.0613018
0.0612807
0.0612758
0.061269
0.0612761
0.0612724
0.0606299
0.0622908
0.0615298
0.0611809
0.0610381
0.0610161
0.0610106
0.0610035
0.0610109
0.061007
0.0608107
0.0620126
0.0612728
0.0609314
0.0607846
0.0607619
0.0607559
0.0607484
0.0607561
0.0607519
0.0608885
0.0617351
0.0610227
0.0606903
0.0605402
0.0605169
0.0605104
0.0605026
0.0605105
0.0605061
0.0608908
0.0614968
0.0607793
0.0604568
0.0603037
0.0602799
0.060273
0.0602649
0.0602729
0.0602683
0.0608375
0.0612383
0.0605419
0.0602298
0.0600735
0.0600494
0.0600421
0.0600339
0.0600418
0.0600371
0.0607362
0.0609743
0.06031
0.0600083
0.059875
0.0598511
0.0598435
0.0598351
0.0598431
0.0598382
0.060611
0.060734
0.0600832
0.0598172
0.0596715
0.0596475
0.0596393
0.0596302
0.0596388
0.0596331
0.0604641
0.0604952
0.0598592
0.0596134
0.0594865
0.0594628
0.0594544
0.059445
0.0594537
0.0594478
0.0603015
0.0602674
0.0596633
0.0594324
0.059308
0.0592847
0.0592761
0.0592665
0.0592753
0.0592691
)
;

boundaryField
{
    fuel
    {
        type            fixedValue;
        value           uniform 0;
    }
    wall
    {
        type            zeroGradient;
    }
    outlet
    {
        type            zeroGradient;
    }
    frontAndBack
    {
        type            empty;
    }
    procBoundary2to0
    {
        type            processor;
        value           nonuniform List<scalar> 
12
(
0.059447
0.0601275
0.0600475
0.0594726
0.0592567
0.0591352
0.0591125
0.0591038
0.0590939
0.0591028
0.0592684
0.0590962
)
;
    }
    procBoundary2to3
    {
        type            processor;
        value           nonuniform List<scalar> 
25
(
0.0587111
0.0664979
0.0672181
0.0666869
0.0660189
0.0653619
0.0648299
0.0643348
0.0639203
0.06349
0.06349
0.0631423
0.0628013
0.0624626
0.0621424
0.0618383
0.0615485
0.0612714
0.0610059
0.0607509
0.0605051
0.0602674
0.0600362
0.0598374
0.0596323
)
;
    }
}


// ************************************************************************* //
