/*--------------------------------*- C++ -*----------------------------------*\
| =========                 |                                                 |
| \\      /  F ield         | OpenFOAM: The Open Source CFD Toolbox           |
|  \\    /   O peration     | Version:  dev                                   |
|   \\  /    A nd           | Web:      www.OpenFOAM.org                      |
|    \\/     M anipulation  |                                                 |
\*---------------------------------------------------------------------------*/
FoamFile
{
    version     2.0;
    format      ascii;
    class       volScalarField;
    location    "0.045";
    object      n-A1C2H2;
}
// * * * * * * * * * * * * * * * * * * * * * * * * * * * * * * * * * * * * * //

dimensions      [0 0 0 0 0 0 0];

internalField   nonuniform List<scalar> 
1997
(
2.1636e-11
2.16918e-11
2.17412e-11
2.1773e-11
2.1795e-11
2.18072e-11
2.1814e-11
2.18195e-11
2.18224e-11
2.18252e-11
2.18268e-11
2.18289e-11
2.18302e-11
2.18316e-11
2.18323e-11
2.18331e-11
2.18335e-11
2.1834e-11
2.15415e-11
2.15953e-11
2.16439e-11
2.16758e-11
2.16987e-11
2.17113e-11
2.17188e-11
2.17246e-11
2.17278e-11
2.17308e-11
2.17325e-11
2.17346e-11
2.17361e-11
2.17374e-11
2.17382e-11
2.1739e-11
2.17395e-11
2.174e-11
2.17402e-11
2.17405e-11
2.17406e-11
2.17408e-11
2.17409e-11
2.1741e-11
2.1741e-11
2.1741e-11
2.1741e-11
2.17409e-11
2.14654e-11
2.15174e-11
2.15655e-11
2.15974e-11
2.16212e-11
2.16343e-11
2.16424e-11
2.16485e-11
2.16522e-11
2.16553e-11
2.16572e-11
2.16593e-11
2.16608e-11
2.16622e-11
2.1663e-11
2.16639e-11
2.16643e-11
2.16649e-11
2.1665e-11
2.16654e-11
2.16655e-11
2.16657e-11
2.16658e-11
2.16659e-11
2.16659e-11
2.16659e-11
2.16659e-11
2.16658e-11
2.16657e-11
2.16655e-11
2.16653e-11
2.1665e-11
2.16647e-11
2.16642e-11
2.16637e-11
2.16629e-11
2.16621e-11
2.16607e-11
2.16592e-11
2.1657e-11
2.14073e-11
2.14577e-11
2.15054e-11
2.15374e-11
2.1562e-11
2.15756e-11
2.15843e-11
2.15908e-11
2.15948e-11
2.15981e-11
2.16002e-11
2.16023e-11
2.16038e-11
2.16053e-11
2.16061e-11
2.1607e-11
2.16075e-11
2.16081e-11
2.16082e-11
2.16086e-11
2.16087e-11
2.16089e-11
2.1609e-11
2.16091e-11
2.16092e-11
2.16092e-11
2.16091e-11
2.1609e-11
2.16089e-11
2.16087e-11
2.16085e-11
2.16082e-11
2.16079e-11
2.16074e-11
2.16069e-11
2.1606e-11
2.16051e-11
2.16037e-11
2.16021e-11
2.16e-11
2.15978e-11
2.15945e-11
2.15905e-11
2.15839e-11
2.15752e-11
2.15616e-11
2.1537e-11
2.1505e-11
2.14573e-11
2.14069e-11
2.13667e-11
2.14155e-11
2.1463e-11
2.14952e-11
2.15205e-11
2.15346e-11
2.15441e-11
2.15509e-11
2.15552e-11
2.15587e-11
2.15609e-11
2.15631e-11
2.15647e-11
2.15661e-11
2.1567e-11
2.15679e-11
2.15684e-11
2.1569e-11
2.15692e-11
2.15695e-11
2.15697e-11
2.15699e-11
2.157e-11
2.15701e-11
2.15701e-11
2.15702e-11
2.15701e-11
2.157e-11
2.15698e-11
2.15696e-11
2.15695e-11
2.15691e-11
2.15688e-11
2.15683e-11
2.15677e-11
2.15669e-11
2.15659e-11
2.15645e-11
2.15629e-11
2.15607e-11
2.15583e-11
2.15548e-11
2.15505e-11
2.15436e-11
2.15342e-11
2.15201e-11
2.14948e-11
2.14627e-11
2.1415e-11
2.13662e-11
2.1343e-11
2.13904e-11
2.14379e-11
2.14702e-11
2.14961e-11
2.15108e-11
2.15208e-11
2.15279e-11
2.15325e-11
2.15361e-11
2.15385e-11
2.15407e-11
2.15423e-11
2.15438e-11
2.15447e-11
2.15456e-11
2.15462e-11
2.15467e-11
2.1547e-11
2.15473e-11
2.15475e-11
2.15477e-11
2.15478e-11
2.15479e-11
2.15479e-11
2.15479e-11
2.15479e-11
2.15478e-11
2.15476e-11
2.15474e-11
2.15472e-11
2.15469e-11
2.15466e-11
2.1546e-11
2.15454e-11
2.15446e-11
2.15436e-11
2.15421e-11
2.15405e-11
2.15383e-11
2.15358e-11
2.15321e-11
2.15275e-11
2.15203e-11
2.15103e-11
2.14956e-11
2.14698e-11
2.14376e-11
2.13899e-11
2.13425e-11
2.13356e-11
2.13818e-11
2.14293e-11
2.14619e-11
2.14883e-11
2.15036e-11
2.15142e-11
2.15217e-11
2.15265e-11
2.15303e-11
2.15329e-11
2.15351e-11
2.15368e-11
2.15382e-11
2.15392e-11
2.15401e-11
2.15407e-11
2.15412e-11
2.15415e-11
2.15418e-11
2.1542e-11
2.15422e-11
2.15423e-11
2.15424e-11
2.15425e-11
2.15425e-11
2.15425e-11
2.15424e-11
2.15422e-11
2.1542e-11
2.15418e-11
2.15414e-11
2.15411e-11
2.15406e-11
2.15399e-11
2.15391e-11
2.1538e-11
2.15366e-11
2.15349e-11
2.15326e-11
2.153e-11
2.15262e-11
2.15212e-11
2.15137e-11
2.15031e-11
2.14878e-11
2.14614e-11
2.14288e-11
2.13813e-11
2.13351e-11
2.1344e-11
2.13889e-11
2.14365e-11
2.14694e-11
2.14963e-11
2.15123e-11
2.15235e-11
2.15313e-11
2.15364e-11
2.15404e-11
2.1543e-11
2.15453e-11
2.1547e-11
2.15485e-11
2.15496e-11
2.15504e-11
2.15511e-11
2.15516e-11
2.15519e-11
2.15522e-11
2.15524e-11
2.15526e-11
2.15527e-11
2.15528e-11
2.15529e-11
2.15529e-11
2.15528e-11
2.15527e-11
2.15525e-11
2.15523e-11
2.15521e-11
2.15518e-11
2.15514e-11
2.15509e-11
2.15503e-11
2.15494e-11
2.15483e-11
2.15468e-11
2.15451e-11
2.15428e-11
2.154e-11
2.15361e-11
2.15309e-11
2.1523e-11
2.15118e-11
2.14958e-11
2.14689e-11
2.14359e-11
2.13886e-11
2.13434e-11
2.13673e-11
2.14114e-11
2.14587e-11
2.14921e-11
2.15194e-11
2.1536e-11
2.15479e-11
2.15559e-11
2.15613e-11
2.15654e-11
2.15682e-11
2.15705e-11
2.15723e-11
2.15737e-11
2.15749e-11
2.15757e-11
2.15764e-11
2.15769e-11
2.15772e-11
2.15775e-11
2.15777e-11
2.15779e-11
2.15781e-11
2.15782e-11
2.15782e-11
2.15782e-11
2.15782e-11
2.15781e-11
2.15779e-11
2.15777e-11
2.15774e-11
2.15771e-11
2.15767e-11
2.15762e-11
2.15755e-11
2.15747e-11
2.15735e-11
2.15721e-11
2.15703e-11
2.1568e-11
2.1565e-11
2.1561e-11
2.15555e-11
2.15474e-11
2.15355e-11
2.15189e-11
2.14916e-11
2.14584e-11
2.14107e-11
2.13668e-11
2.14048e-11
2.14479e-11
2.14954e-11
2.15292e-11
2.15568e-11
2.15741e-11
2.15866e-11
2.1595e-11
2.16006e-11
2.16048e-11
2.16077e-11
2.16101e-11
2.16119e-11
2.16134e-11
2.16145e-11
2.16154e-11
2.1616e-11
2.16165e-11
2.16169e-11
2.16172e-11
2.16174e-11
2.16176e-11
2.16177e-11
2.16178e-11
2.16179e-11
2.16179e-11
2.16179e-11
2.16178e-11
2.16175e-11
2.16174e-11
2.16171e-11
2.16168e-11
2.16164e-11
2.16159e-11
2.16152e-11
2.16143e-11
2.16132e-11
2.16117e-11
2.16098e-11
2.16075e-11
2.16044e-11
2.16002e-11
2.15945e-11
2.15861e-11
2.15736e-11
2.15563e-11
2.15287e-11
2.1495e-11
2.14474e-11
2.14042e-11
2.1456e-11
2.14981e-11
2.15456e-11
2.15797e-11
2.16076e-11
2.16255e-11
2.16384e-11
2.16471e-11
2.16529e-11
2.16572e-11
2.16603e-11
2.16626e-11
2.16645e-11
2.16659e-11
2.16671e-11
2.1668e-11
2.16687e-11
2.16692e-11
2.16695e-11
2.16698e-11
2.16701e-11
2.16702e-11
2.16704e-11
2.16705e-11
2.16705e-11
2.16705e-11
2.16705e-11
2.16704e-11
2.16702e-11
2.167e-11
2.16697e-11
2.16694e-11
2.1669e-11
2.16685e-11
2.16678e-11
2.16669e-11
2.16657e-11
2.16643e-11
2.16624e-11
2.166e-11
2.16569e-11
2.16525e-11
2.16466e-11
2.16379e-11
2.1625e-11
2.16071e-11
2.15792e-11
2.15451e-11
2.14975e-11
2.14555e-11
2.15193e-11
2.15606e-11
2.16083e-11
2.16427e-11
2.16707e-11
2.16892e-11
2.17026e-11
2.17115e-11
2.17175e-11
2.17219e-11
2.1725e-11
2.17273e-11
2.17293e-11
2.17307e-11
2.17319e-11
2.17328e-11
2.17335e-11
2.17339e-11
2.17343e-11
2.17346e-11
2.17349e-11
2.1735e-11
2.17352e-11
2.17353e-11
2.17353e-11
2.17353e-11
2.17353e-11
2.17352e-11
2.1735e-11
2.17348e-11
2.17345e-11
2.17342e-11
2.17338e-11
2.17333e-11
2.17326e-11
2.17317e-11
2.17305e-11
2.1729e-11
2.17271e-11
2.17247e-11
2.17215e-11
2.17171e-11
2.1711e-11
2.1702e-11
2.16887e-11
2.16702e-11
2.16422e-11
2.16077e-11
2.15601e-11
2.15187e-11
2.15945e-11
2.1635e-11
2.16828e-11
2.17174e-11
2.17456e-11
2.17646e-11
2.17785e-11
2.17876e-11
2.17938e-11
2.17982e-11
2.18015e-11
2.18038e-11
2.18058e-11
2.18072e-11
2.18084e-11
2.18093e-11
2.181e-11
2.18105e-11
2.18108e-11
2.18111e-11
2.18114e-11
2.18115e-11
2.18117e-11
2.18118e-11
2.18119e-11
2.18119e-11
2.18118e-11
2.18117e-11
2.18115e-11
2.18113e-11
2.1811e-11
2.18107e-11
2.18103e-11
2.18098e-11
2.18091e-11
2.18082e-11
2.1807e-11
2.18055e-11
2.18036e-11
2.18012e-11
2.17979e-11
2.17934e-11
2.17871e-11
2.17779e-11
2.17641e-11
2.17451e-11
2.17168e-11
2.16822e-11
2.16345e-11
2.15939e-11
2.16795e-11
2.17195e-11
2.17672e-11
2.18018e-11
2.18301e-11
2.18496e-11
2.18636e-11
2.18728e-11
2.18792e-11
2.18837e-11
2.18869e-11
2.18893e-11
2.18913e-11
2.18927e-11
2.18939e-11
2.18947e-11
2.18955e-11
2.18959e-11
2.18963e-11
2.18966e-11
2.18969e-11
2.1897e-11
2.18972e-11
2.18973e-11
2.18973e-11
2.18974e-11
2.18973e-11
2.18972e-11
2.1897e-11
2.18968e-11
2.18965e-11
2.18962e-11
2.18958e-11
2.18953e-11
2.18945e-11
2.18937e-11
2.18925e-11
2.1891e-11
2.18891e-11
2.18867e-11
2.18833e-11
2.18788e-11
2.18724e-11
2.18631e-11
2.1849e-11
2.18296e-11
2.18013e-11
2.17666e-11
2.17189e-11
2.16789e-11
2.17736e-11
2.18129e-11
2.18609e-11
2.18957e-11
2.19241e-11
2.1944e-11
2.19582e-11
2.19677e-11
2.19742e-11
2.19787e-11
2.1982e-11
2.19844e-11
2.19864e-11
2.19878e-11
2.1989e-11
2.19899e-11
2.19906e-11
2.19911e-11
2.19915e-11
2.19917e-11
2.1992e-11
2.19921e-11
2.19923e-11
2.19924e-11
2.19925e-11
2.19925e-11
2.19924e-11
2.19923e-11
2.19921e-11
2.19919e-11
2.19916e-11
2.19914e-11
2.19909e-11
2.19904e-11
2.19897e-11
2.19888e-11
2.19876e-11
2.19862e-11
2.19842e-11
2.19818e-11
2.19784e-11
2.19738e-11
2.19672e-11
2.19577e-11
2.19435e-11
2.19235e-11
2.18951e-11
2.18603e-11
2.18124e-11
2.1773e-11
2.18774e-11
2.19162e-11
2.19639e-11
2.19985e-11
2.20267e-11
2.2047e-11
2.2061e-11
2.20707e-11
2.20772e-11
2.20817e-11
2.20851e-11
2.20875e-11
2.20894e-11
2.20908e-11
2.2092e-11
2.20928e-11
2.20936e-11
2.2094e-11
2.20944e-11
2.20947e-11
2.20949e-11
2.20951e-11
2.20953e-11
2.20953e-11
2.20954e-11
2.20954e-11
2.20953e-11
2.20952e-11
2.2095e-11
2.20949e-11
2.20946e-11
2.20943e-11
2.20939e-11
2.20934e-11
2.20926e-11
2.20918e-11
2.20906e-11
2.20892e-11
2.20872e-11
2.20848e-11
2.20814e-11
2.20768e-11
2.20702e-11
2.20604e-11
2.20464e-11
2.20262e-11
2.19979e-11
2.19633e-11
2.19156e-11
2.18768e-11
2.19874e-11
2.20258e-11
2.20731e-11
2.21074e-11
2.21353e-11
2.21558e-11
2.21695e-11
2.21796e-11
2.21862e-11
2.21907e-11
2.2194e-11
2.21964e-11
2.21983e-11
2.21997e-11
2.22009e-11
2.22017e-11
2.22024e-11
2.22028e-11
2.22032e-11
2.22035e-11
2.22037e-11
2.22039e-11
2.22041e-11
2.22041e-11
2.22042e-11
2.22042e-11
2.22042e-11
2.22041e-11
2.22038e-11
2.22037e-11
2.22034e-11
2.22031e-11
2.22027e-11
2.22022e-11
2.22015e-11
2.22007e-11
2.21994e-11
2.2198e-11
2.21961e-11
2.21937e-11
2.21904e-11
2.21858e-11
2.21791e-11
2.21689e-11
2.21552e-11
2.21347e-11
2.21067e-11
2.20725e-11
2.20252e-11
2.19868e-11
2.21024e-11
2.21406e-11
2.21873e-11
2.22212e-11
2.22487e-11
2.22694e-11
2.22829e-11
2.22909e-11
2.22974e-11
2.23018e-11
2.23051e-11
2.23074e-11
2.23093e-11
2.23106e-11
2.23118e-11
2.23126e-11
2.23133e-11
2.23137e-11
2.23141e-11
2.23144e-11
2.23146e-11
2.23148e-11
2.23149e-11
2.2315e-11
2.23151e-11
2.23151e-11
2.2315e-11
2.23149e-11
2.23147e-11
2.23145e-11
2.23143e-11
2.2314e-11
2.23136e-11
2.23131e-11
2.23124e-11
2.23116e-11
2.23104e-11
2.2309e-11
2.23071e-11
2.23048e-11
2.23015e-11
2.22969e-11
2.22903e-11
2.22823e-11
2.22688e-11
2.22481e-11
2.22206e-11
2.21867e-11
2.21399e-11
2.21017e-11
2.22212e-11
2.22565e-11
2.23027e-11
2.2336e-11
2.2363e-11
2.23837e-11
2.2397e-11
2.24054e-11
2.2412e-11
2.24164e-11
2.24198e-11
2.24221e-11
2.24239e-11
2.24253e-11
2.24264e-11
2.24272e-11
2.24279e-11
2.24283e-11
2.24287e-11
2.2429e-11
2.24292e-11
2.24294e-11
2.24295e-11
2.24296e-11
2.24297e-11
2.24297e-11
2.24296e-11
2.24295e-11
2.24293e-11
2.24292e-11
2.24289e-11
2.24286e-11
2.24282e-11
2.24277e-11
2.2427e-11
2.24262e-11
2.2425e-11
2.24237e-11
2.24218e-11
2.24195e-11
2.24161e-11
2.24115e-11
2.24048e-11
2.23964e-11
2.23831e-11
2.23624e-11
2.23354e-11
2.2302e-11
2.22559e-11
2.22206e-11
2.23396e-11
2.23747e-11
2.24201e-11
2.24527e-11
2.24791e-11
2.24998e-11
2.25126e-11
2.25211e-11
2.25275e-11
2.25319e-11
2.25351e-11
2.25373e-11
2.25392e-11
2.25404e-11
2.25416e-11
2.25423e-11
2.2543e-11
2.25434e-11
2.25438e-11
2.2544e-11
2.25443e-11
2.25444e-11
2.25445e-11
2.25446e-11
2.25447e-11
2.25447e-11
2.25446e-11
2.25445e-11
2.25443e-11
2.25442e-11
2.25439e-11
2.25437e-11
2.25432e-11
2.25428e-11
2.25421e-11
2.25413e-11
2.25402e-11
2.25389e-11
2.2537e-11
2.25348e-11
2.25315e-11
2.2527e-11
2.25205e-11
2.2512e-11
2.24991e-11
2.24785e-11
2.24521e-11
2.24194e-11
2.2374e-11
2.2339e-11
2.24609e-11
2.24954e-11
2.25397e-11
2.25716e-11
2.25972e-11
2.26178e-11
2.26302e-11
2.26386e-11
2.26448e-11
2.26491e-11
2.26522e-11
2.26543e-11
2.26561e-11
2.26573e-11
2.26584e-11
2.26591e-11
2.26598e-11
2.26601e-11
2.26605e-11
2.26607e-11
2.2661e-11
2.26611e-11
2.26613e-11
2.26613e-11
2.26614e-11
2.26614e-11
2.26614e-11
2.26613e-11
2.26611e-11
2.26609e-11
2.26606e-11
2.26604e-11
2.266e-11
2.26596e-11
2.26589e-11
2.26582e-11
2.26571e-11
2.26558e-11
2.2654e-11
2.26519e-11
2.26487e-11
2.26443e-11
2.2638e-11
2.26296e-11
2.26171e-11
2.25965e-11
2.2571e-11
2.25391e-11
2.24947e-11
2.24602e-11
2.25819e-11
2.26156e-11
2.26587e-11
2.26897e-11
2.27143e-11
2.27345e-11
2.27463e-11
2.27545e-11
2.27605e-11
2.27646e-11
2.27676e-11
2.27696e-11
2.27713e-11
2.27724e-11
2.27735e-11
2.27742e-11
2.27748e-11
2.27751e-11
2.27755e-11
2.27757e-11
2.27759e-11
2.27761e-11
2.27762e-11
2.27763e-11
2.27764e-11
2.27764e-11
2.27763e-11
2.27762e-11
2.2776e-11
2.27759e-11
2.27756e-11
2.27754e-11
2.2775e-11
2.27746e-11
2.27739e-11
2.27732e-11
2.27722e-11
2.2771e-11
2.27693e-11
2.27673e-11
2.27642e-11
2.276e-11
2.2754e-11
2.27457e-11
2.27338e-11
2.27136e-11
2.2689e-11
2.26581e-11
2.26149e-11
2.25812e-11
2.26986e-11
2.27314e-11
2.27733e-11
2.28032e-11
2.28268e-11
2.28463e-11
2.28577e-11
2.28656e-11
2.28713e-11
2.28752e-11
2.28781e-11
2.288e-11
2.28816e-11
2.28827e-11
2.28837e-11
2.28843e-11
2.28849e-11
2.28852e-11
2.28856e-11
2.28858e-11
2.2886e-11
2.28861e-11
2.28863e-11
2.28863e-11
2.28864e-11
2.28864e-11
2.28863e-11
2.28862e-11
2.28861e-11
2.28859e-11
2.28857e-11
2.28854e-11
2.28851e-11
2.28847e-11
2.28841e-11
2.28834e-11
2.28824e-11
2.28813e-11
2.28797e-11
2.28777e-11
2.28748e-11
2.28707e-11
2.2865e-11
2.2857e-11
2.28456e-11
2.28262e-11
2.28025e-11
2.27726e-11
2.27307e-11
2.26978e-11
2.28125e-11
2.28444e-11
2.28848e-11
2.29136e-11
2.29361e-11
2.29548e-11
2.29656e-11
2.29732e-11
2.29785e-11
2.29823e-11
2.2985e-11
2.29868e-11
2.29883e-11
2.29893e-11
2.29902e-11
2.29908e-11
2.29914e-11
2.29917e-11
2.2992e-11
2.29922e-11
2.29924e-11
2.29925e-11
2.29927e-11
2.29927e-11
2.29928e-11
2.29928e-11
2.29927e-11
2.29926e-11
2.29925e-11
2.29923e-11
2.29921e-11
2.29919e-11
2.29915e-11
2.29912e-11
2.29906e-11
2.299e-11
2.2989e-11
2.2988e-11
2.29865e-11
2.29846e-11
2.29819e-11
2.2978e-11
2.29726e-11
2.29649e-11
2.29541e-11
2.29355e-11
2.29129e-11
2.28841e-11
2.28437e-11
2.28118e-11
2.29221e-11
2.29533e-11
2.2992e-11
2.30195e-11
2.30409e-11
2.30585e-11
2.30686e-11
2.30759e-11
2.30809e-11
2.30844e-11
2.30869e-11
2.30886e-11
2.309e-11
2.3091e-11
2.30918e-11
2.30924e-11
2.30929e-11
2.30932e-11
2.30935e-11
2.30937e-11
2.30939e-11
2.3094e-11
2.30941e-11
2.30942e-11
2.30942e-11
2.30942e-11
2.30942e-11
2.30941e-11
2.30939e-11
2.30938e-11
2.30936e-11
2.30933e-11
2.3093e-11
2.30927e-11
2.30921e-11
2.30916e-11
2.30907e-11
2.30897e-11
2.30883e-11
2.30866e-11
2.3084e-11
2.30803e-11
2.30753e-11
2.3068e-11
2.30578e-11
2.30402e-11
2.30188e-11
2.29913e-11
2.29526e-11
2.29214e-11
2.30275e-11
2.30569e-11
2.30936e-11
2.31198e-11
2.31399e-11
2.31562e-11
2.31657e-11
2.31726e-11
2.31772e-11
2.31805e-11
2.31828e-11
2.31843e-11
2.31856e-11
2.31865e-11
2.31873e-11
2.31878e-11
2.31882e-11
2.31885e-11
2.31888e-11
2.3189e-11
2.31891e-11
2.31893e-11
2.31894e-11
2.31894e-11
2.31895e-11
2.31895e-11
2.31894e-11
2.31894e-11
2.31892e-11
2.31891e-11
2.31888e-11
2.31887e-11
2.31883e-11
2.3188e-11
2.31875e-11
2.3187e-11
2.31862e-11
2.31853e-11
2.3184e-11
2.31824e-11
2.318e-11
2.31766e-11
2.3172e-11
2.3165e-11
2.31555e-11
2.31392e-11
2.31191e-11
2.30929e-11
2.30562e-11
2.30267e-11
2.31254e-11
2.31544e-11
2.31892e-11
2.32141e-11
2.3233e-11
2.32483e-11
2.32571e-11
2.32637e-11
2.32678e-11
2.32708e-11
2.32729e-11
2.32743e-11
2.32754e-11
2.32763e-11
2.3277e-11
2.32775e-11
2.32779e-11
2.32781e-11
2.32784e-11
2.32785e-11
2.32787e-11
2.32788e-11
2.32789e-11
2.3279e-11
2.32791e-11
2.32791e-11
2.3279e-11
2.32789e-11
2.32788e-11
2.32786e-11
2.32784e-11
2.32782e-11
2.3278e-11
2.32777e-11
2.32772e-11
2.32767e-11
2.3276e-11
2.32751e-11
2.3274e-11
2.32725e-11
2.32704e-11
2.32672e-11
2.3263e-11
2.32565e-11
2.32476e-11
2.32323e-11
2.32134e-11
2.31885e-11
2.31536e-11
2.31247e-11
2.32181e-11
2.32461e-11
2.32785e-11
2.33018e-11
2.33192e-11
2.33327e-11
2.33408e-11
2.33469e-11
2.33506e-11
2.33533e-11
2.33551e-11
2.33564e-11
2.33574e-11
2.33582e-11
2.33588e-11
2.33593e-11
2.33596e-11
2.33599e-11
2.33601e-11
2.33602e-11
2.33604e-11
2.33605e-11
2.33606e-11
2.33607e-11
2.33607e-11
2.33607e-11
2.33607e-11
2.33606e-11
2.33604e-11
2.33603e-11
2.33601e-11
2.33599e-11
2.33597e-11
2.33594e-11
2.3359e-11
2.33585e-11
2.33579e-11
2.33571e-11
2.33561e-11
2.33547e-11
2.33528e-11
2.335e-11
2.33462e-11
2.33401e-11
2.3332e-11
2.33185e-11
2.33011e-11
2.32777e-11
2.32454e-11
2.32174e-11
2.3303e-11
2.33299e-11
2.336e-11
2.33819e-11
2.33978e-11
2.34106e-11
2.3418e-11
2.34236e-11
2.34269e-11
2.34294e-11
2.3431e-11
2.34321e-11
2.3433e-11
2.34337e-11
2.34342e-11
2.34346e-11
2.3435e-11
2.34352e-11
2.34354e-11
2.34355e-11
2.34356e-11
2.34357e-11
2.34358e-11
2.34359e-11
2.3436e-11
2.3436e-11
2.34359e-11
2.34358e-11
2.34357e-11
2.34356e-11
2.34354e-11
2.34352e-11
2.3435e-11
2.34348e-11
2.34344e-11
2.3434e-11
2.34334e-11
2.34327e-11
2.34318e-11
2.34306e-11
2.34289e-11
2.34263e-11
2.34228e-11
2.34173e-11
2.34099e-11
2.33971e-11
2.33812e-11
2.33592e-11
2.33292e-11
2.33023e-11
2.33819e-11
2.34077e-11
2.34356e-11
2.34561e-11
2.34706e-11
2.34821e-11
2.34888e-11
2.34939e-11
2.34969e-11
2.34992e-11
2.35005e-11
2.35015e-11
2.35023e-11
2.35029e-11
2.35033e-11
2.35037e-11
2.3504e-11
2.35042e-11
2.35043e-11
2.35044e-11
2.35046e-11
2.35047e-11
2.35047e-11
2.35048e-11
2.35049e-11
2.35049e-11
2.35048e-11
2.35047e-11
2.35046e-11
2.35045e-11
2.35043e-11
2.35042e-11
2.3504e-11
2.35037e-11
2.35034e-11
2.35031e-11
2.35026e-11
2.35019e-11
2.35012e-11
2.35001e-11
2.34986e-11
2.34962e-11
2.34932e-11
2.34881e-11
2.34814e-11
2.34698e-11
2.34554e-11
2.34348e-11
2.3407e-11
2.33811e-11
2.34548e-11
2.34795e-11
2.35052e-11
2.35244e-11
2.35374e-11
2.35475e-11
2.35534e-11
2.3558e-11
2.35606e-11
2.35629e-11
2.3564e-11
2.35648e-11
2.35655e-11
2.3566e-11
2.35664e-11
2.35667e-11
2.35669e-11
2.35671e-11
2.35672e-11
2.35673e-11
2.35674e-11
2.35675e-11
2.35676e-11
2.35677e-11
2.35677e-11
2.35677e-11
2.35677e-11
2.35676e-11
2.35675e-11
2.35673e-11
2.35672e-11
2.35671e-11
2.35669e-11
2.35667e-11
2.35664e-11
2.35661e-11
2.35657e-11
2.35651e-11
2.35645e-11
2.35635e-11
2.35623e-11
2.35599e-11
2.35573e-11
2.35527e-11
2.35467e-11
2.35366e-11
2.35237e-11
2.35044e-11
2.34787e-11
2.3454e-11
2.35222e-11
2.35458e-11
2.35694e-11
2.35874e-11
2.35989e-11
2.36081e-11
2.36134e-11
2.36175e-11
2.36197e-11
2.36218e-11
2.36227e-11
2.36234e-11
2.36239e-11
2.36243e-11
2.36246e-11
2.36249e-11
2.36251e-11
2.36252e-11
2.36253e-11
2.36254e-11
2.36255e-11
2.36256e-11
2.36256e-11
2.36257e-11
2.36258e-11
2.36258e-11
2.36257e-11
2.36256e-11
2.36255e-11
2.36254e-11
2.36253e-11
2.36252e-11
2.3625e-11
2.36248e-11
2.36246e-11
2.36243e-11
2.3624e-11
2.36236e-11
2.3623e-11
2.36222e-11
2.36212e-11
2.3619e-11
2.36167e-11
2.36126e-11
2.36073e-11
2.35981e-11
2.35867e-11
2.35687e-11
2.3545e-11
2.35215e-11
2.35856e-11
2.36081e-11
2.36298e-11
2.36468e-11
2.36568e-11
2.36659e-11
2.36705e-11
2.36743e-11
2.36763e-11
2.36782e-11
2.36788e-11
2.36793e-11
2.36797e-11
2.36801e-11
2.36803e-11
2.36806e-11
2.36807e-11
2.36808e-11
2.36809e-11
2.3681e-11
2.36811e-11
2.36812e-11
2.36812e-11
2.36813e-11
2.36813e-11
2.36813e-11
2.36813e-11
2.36812e-11
2.36811e-11
2.3681e-11
2.36809e-11
2.36808e-11
2.36807e-11
2.36805e-11
2.36803e-11
2.36801e-11
2.36798e-11
2.36794e-11
2.3679e-11
2.36783e-11
2.36775e-11
2.36756e-11
2.36735e-11
2.36698e-11
2.36651e-11
2.36561e-11
2.3646e-11
2.3629e-11
2.36073e-11
2.35848e-11
2.36478e-11
2.36694e-11
2.36897e-11
2.37058e-11
2.37148e-11
2.3724e-11
2.3728e-11
2.37316e-11
2.37334e-11
2.37351e-11
2.37356e-11
2.37359e-11
2.37363e-11
2.37366e-11
2.37368e-11
2.3737e-11
2.3737e-11
2.37372e-11
2.37372e-11
2.37373e-11
2.37373e-11
2.37374e-11
2.37375e-11
2.37375e-11
2.37376e-11
2.37376e-11
2.37375e-11
2.37374e-11
2.37374e-11
2.37372e-11
2.37372e-11
2.3737e-11
2.3737e-11
2.37368e-11
2.37367e-11
2.37365e-11
2.37363e-11
2.37359e-11
2.37356e-11
2.3735e-11
2.37343e-11
2.37326e-11
2.37309e-11
2.37273e-11
2.37232e-11
2.3714e-11
2.3705e-11
2.36889e-11
2.36686e-11
2.3647e-11
2.37124e-11
2.37333e-11
2.37526e-11
2.37682e-11
2.37764e-11
2.37854e-11
2.37888e-11
2.37923e-11
2.37939e-11
2.37955e-11
2.37958e-11
2.3796e-11
2.37963e-11
2.37966e-11
2.37967e-11
2.37968e-11
2.37969e-11
2.3797e-11
2.3797e-11
2.37971e-11
2.37971e-11
2.37972e-11
2.37972e-11
2.37973e-11
2.37973e-11
2.37973e-11
2.37973e-11
2.37972e-11
2.37971e-11
2.3797e-11
2.3797e-11
2.37968e-11
2.37968e-11
2.37966e-11
2.37966e-11
2.37964e-11
2.37963e-11
2.3796e-11
2.37957e-11
2.37952e-11
2.37946e-11
2.37931e-11
2.37915e-11
2.37881e-11
2.37846e-11
2.37755e-11
2.37674e-11
2.37518e-11
2.37325e-11
2.37115e-11
2.37826e-11
2.38032e-11
2.3822e-11
2.38374e-11
2.3845e-11
2.38538e-11
2.38568e-11
2.38602e-11
2.38616e-11
2.38631e-11
2.38633e-11
2.38634e-11
2.38636e-11
2.38638e-11
2.38639e-11
2.3864e-11
2.3864e-11
2.38641e-11
2.38641e-11
2.38642e-11
2.38642e-11
2.38643e-11
2.38643e-11
2.38644e-11
2.38644e-11
2.38644e-11
2.38644e-11
2.38643e-11
2.38642e-11
2.38641e-11
2.38641e-11
2.3864e-11
2.38639e-11
2.38638e-11
2.38638e-11
2.38636e-11
2.38635e-11
2.38632e-11
2.38631e-11
2.38626e-11
2.38622e-11
2.38608e-11
2.38594e-11
2.3856e-11
2.38529e-11
2.38441e-11
2.38365e-11
2.38212e-11
2.38024e-11
2.37817e-11
2.38626e-11
2.38834e-11
2.39022e-11
2.39178e-11
2.39252e-11
2.39338e-11
2.39365e-11
2.39401e-11
2.39414e-11
2.39428e-11
2.39429e-11
2.39429e-11
2.3943e-11
2.39432e-11
2.39433e-11
2.39434e-11
2.39434e-11
2.39435e-11
2.39435e-11
2.39435e-11
2.39435e-11
2.39436e-11
2.39436e-11
2.39437e-11
2.39438e-11
2.39437e-11
2.39437e-11
2.39436e-11
2.39435e-11
2.39434e-11
2.39434e-11
2.39433e-11
2.39433e-11
2.39432e-11
2.39431e-11
2.3943e-11
2.39429e-11
2.39427e-11
2.39426e-11
2.39422e-11
2.39418e-11
2.39405e-11
2.39392e-11
2.39357e-11
2.3933e-11
2.39243e-11
2.3917e-11
2.39014e-11
2.38825e-11
2.38618e-11
2.39578e-11
2.39791e-11
2.39987e-11
2.4015e-11
2.40224e-11
2.40313e-11
2.40339e-11
2.40376e-11
2.40389e-11
2.40403e-11
2.40405e-11
2.40403e-11
2.40405e-11
2.40407e-11
2.40407e-11
2.40408e-11
2.40408e-11
2.40408e-11
2.40408e-11
2.40409e-11
2.40409e-11
2.4041e-11
2.4041e-11
2.40411e-11
2.40411e-11
2.40411e-11
2.40411e-11
2.4041e-11
2.40409e-11
2.40408e-11
2.40408e-11
2.40407e-11
2.40407e-11
2.40406e-11
2.40405e-11
2.40404e-11
2.40404e-11
2.40402e-11
2.40401e-11
2.40396e-11
2.40393e-11
2.40381e-11
2.40367e-11
2.4033e-11
2.40304e-11
2.40215e-11
2.40141e-11
2.39979e-11
2.39782e-11
2.3957e-11
2.40744e-11
2.40967e-11
2.41178e-11
2.41353e-11
2.41431e-11
2.41526e-11
2.41551e-11
2.41593e-11
2.41607e-11
2.41622e-11
2.41624e-11
2.41621e-11
2.41623e-11
2.41625e-11
2.41625e-11
2.41626e-11
2.41626e-11
2.41626e-11
2.41626e-11
2.41627e-11
2.41627e-11
2.41628e-11
2.41628e-11
2.41629e-11
2.41629e-11
2.41629e-11
2.41629e-11
2.41628e-11
2.41627e-11
2.41626e-11
2.41626e-11
2.41625e-11
2.41625e-11
2.41624e-11
2.41623e-11
2.41622e-11
2.41622e-11
2.4162e-11
2.41619e-11
2.41614e-11
2.41611e-11
2.41598e-11
2.41583e-11
2.41542e-11
2.41517e-11
2.41422e-11
2.41344e-11
2.4117e-11
2.40958e-11
2.40735e-11
2.42194e-11
2.42434e-11
2.42668e-11
2.42858e-11
2.42943e-11
2.43047e-11
2.43073e-11
2.4312e-11
2.43136e-11
2.43153e-11
2.43155e-11
2.43153e-11
2.43155e-11
2.43157e-11
2.43158e-11
2.43158e-11
2.43158e-11
2.43159e-11
2.43159e-11
2.43159e-11
2.43159e-11
2.4316e-11
2.4316e-11
2.43161e-11
2.43162e-11
2.43161e-11
2.43161e-11
2.4316e-11
2.43159e-11
2.43158e-11
2.43158e-11
2.43157e-11
2.43157e-11
2.43156e-11
2.43156e-11
2.43155e-11
2.43154e-11
2.43152e-11
2.43151e-11
2.43146e-11
2.43141e-11
2.43127e-11
2.4311e-11
2.43065e-11
2.43038e-11
2.42934e-11
2.4285e-11
2.4266e-11
2.42426e-11
2.42186e-11
2.44011e-11
2.44275e-11
2.44539e-11
2.44753e-11
2.4485e-11
2.44968e-11
2.44996e-11
2.4505e-11
2.45069e-11
2.45089e-11
2.45093e-11
2.45092e-11
2.45095e-11
2.45097e-11
2.45098e-11
2.45099e-11
2.45099e-11
2.45099e-11
2.451e-11
2.451e-11
2.451e-11
2.45101e-11
2.45101e-11
2.45102e-11
2.45103e-11
2.45103e-11
2.45102e-11
2.45101e-11
2.451e-11
2.45099e-11
2.45099e-11
2.45098e-11
2.45098e-11
2.45097e-11
2.45096e-11
2.45095e-11
2.45094e-11
2.45092e-11
2.45091e-11
2.45084e-11
2.45079e-11
2.45062e-11
2.45041e-11
2.4499e-11
2.44961e-11
2.44843e-11
2.44747e-11
2.44533e-11
2.44268e-11
2.44005e-11
2.46285e-11
2.4658e-11
2.4688e-11
2.47119e-11
2.47231e-11
2.47365e-11
2.47396e-11
2.47456e-11
2.47479e-11
2.47502e-11
2.47508e-11
)
;

boundaryField
{
    fuel
    {
        type            fixedValue;
        value           nonuniform 0();
    }
    wall
    {
        type            zeroGradient;
    }
    outlet
    {
        type            zeroGradient;
    }
    frontAndBack
    {
        type            empty;
    }
    procBoundary2to0
    {
        type            processor;
        value           nonuniform List<scalar> 
53
(
2.17495e-11
2.18076e-11
2.18575e-11
2.18896e-11
2.19107e-11
2.19226e-11
2.19287e-11
2.19338e-11
2.19364e-11
2.1939e-11
2.19404e-11
2.19426e-11
2.19438e-11
2.19452e-11
2.19458e-11
2.19466e-11
2.19469e-11
2.19475e-11
2.18342e-11
2.18342e-11
2.18345e-11
2.18347e-11
2.18349e-11
2.18349e-11
2.1835e-11
2.18351e-11
2.18351e-11
2.18351e-11
2.1835e-11
2.17408e-11
2.17408e-11
2.17406e-11
2.17405e-11
2.17402e-11
2.174e-11
2.17394e-11
2.1739e-11
2.17382e-11
2.17374e-11
2.1736e-11
2.17346e-11
2.17325e-11
2.16551e-11
2.16551e-11
2.16519e-11
2.16482e-11
2.16421e-11
2.1634e-11
2.16209e-11
2.15971e-11
2.15652e-11
2.15171e-11
2.14651e-11
)
;
    }
    procBoundary2to3
    {
        type            processor;
        value           nonuniform List<scalar> 
51
(
2.47515e-11
2.47519e-11
2.47521e-11
2.47523e-11
2.47523e-11
2.47525e-11
2.47524e-11
2.47525e-11
2.47525e-11
2.47526e-11
2.47526e-11
2.47527e-11
2.47527e-11
2.47528e-11
2.47528e-11
2.47527e-11
2.47526e-11
2.47525e-11
2.47525e-11
2.47524e-11
2.47523e-11
2.47522e-11
2.47522e-11
2.47521e-11
2.4752e-11
2.47518e-11
2.47516e-11
2.47514e-11
2.47506e-11
2.475e-11
2.47479e-11
2.47454e-11
2.47397e-11
2.47366e-11
2.47231e-11
2.4712e-11
2.46881e-11
2.4658e-11
2.46285e-11
2.49114e-11
2.49448e-11
2.49795e-11
2.50064e-11
2.50197e-11
2.50351e-11
2.50387e-11
2.50454e-11
2.50482e-11
2.50508e-11
2.47515e-11
2.50517e-11
)
;
    }
}


// ************************************************************************* //
