/*--------------------------------*- C++ -*----------------------------------*\
| =========                 |                                                 |
| \\      /  F ield         | OpenFOAM: The Open Source CFD Toolbox           |
|  \\    /   O peration     | Version:  dev                                   |
|   \\  /    A nd           | Web:      www.OpenFOAM.org                      |
|    \\/     M anipulation  |                                                 |
\*---------------------------------------------------------------------------*/
FoamFile
{
    version     2.0;
    format      ascii;
    class       volScalarField;
    location    "0.045";
    object      N2;
}
// * * * * * * * * * * * * * * * * * * * * * * * * * * * * * * * * * * * * * //

dimensions      [0 0 0 0 0 0 0];

internalField   nonuniform List<scalar> 
250
(
0.0195534
0.000616756
3.63864e-05
4.07478e-06
8.34072e-07
5.31632e-07
4.85023e-07
4.95367e-07
4.25093e-07
0.022357
0.000972272
6.71528e-05
7.73903e-06
1.62931e-06
1.06349e-06
9.7255e-07
9.94639e-07
9.94179e-07
0.0157768
0.00109616
9.92444e-05
1.19256e-05
2.61913e-06
1.7688e-06
1.61903e-06
1.65841e-06
1.77005e-06
0.00967317
0.00111541
0.000132519
1.66569e-05
3.83501e-06
2.68774e-06
2.4571e-06
2.52383e-06
2.70235e-06
0.00604106
0.00112793
0.000166497
2.18979e-05
5.29312e-06
3.85188e-06
3.50367e-06
3.62328e-06
3.79164e-06
0.004211
0.0011729
0.000200375
2.80122e-05
7.14674e-06
5.31087e-06
4.88755e-06
5.00811e-06
5.09891e-06
0.00341011
0.00125687
0.000233123
3.43661e-05
9.22616e-06
7.1439e-06
6.54647e-06
6.76025e-06
6.73106e-06
0.00316637
0.00136722
0.00026372
4.14413e-05
1.21007e-05
9.84699e-06
9.00569e-06
9.36076e-06
9.16622e-06
0.00322797
0.00150339
0.000294526
4.9048e-05
1.52359e-05
1.2932e-05
1.18199e-05
1.23492e-05
1.19958e-05
0.00346258
0.001657
0.000323406
5.7052e-05
1.90774e-05
1.69263e-05
1.54412e-05
1.62392e-05
1.56936e-05
0.00379975
0.00178912
0.000346394
6.71738e-05
2.44877e-05
2.26993e-05
2.07128e-05
2.18843e-05
2.11191e-05
2.20024e-05
0.00420488
0.00191409
0.000369287
7.8696e-05
3.1262e-05
3.01375e-05
2.75152e-05
2.91845e-05
2.81572e-05
2.93182e-05
0.00465224
0.00202927
0.000391289
9.19399e-05
3.97934e-05
3.97297e-05
3.62978e-05
3.86263e-05
3.72691e-05
3.87128e-05
0.0051145
0.00213968
0.000412386
0.000107447
5.0589e-05
5.20842e-05
4.76266e-05
5.08157e-05
4.90368e-05
5.08129e-05
0.0055697
0.00222541
0.000433227
0.0001259
6.42927e-05
6.79568e-05
6.22107e-05
6.65065e-05
6.41873e-05
6.63795e-05
0.00600024
0.00228521
0.000454481
0.000148158
8.17174e-05
8.82838e-05
8.09378e-05
8.6634e-05
8.36282e-05
8.63446e-05
0.006392
0.00232071
0.00047689
0.000175292
0.000103882
0.000114219
0.000104915
0.000112353
0.000108487
0.000111858
0.00673351
0.00233441
0.000501355
0.000208643
0.00013205
0.000147179
0.000135521
0.000145082
0.000140159
0.000144334
0.00701543
0.00233093
0.000529034
0.00024988
0.000167774
0.000188888
0.000174463
0.000186555
0.000180361
0.000185508
0.00723032
0.00231559
0.000561429
0.000301094
0.000212948
0.000241445
0.000223848
0.000238879
0.000231201
0.000237493
0.0073728
0.00229212
0.000600473
0.000364908
0.00026988
0.000307392
0.000286264
0.000304604
0.000295253
0.000302851
0.00743997
0.00226373
0.000648621
0.000444637
0.000341398
0.000389789
0.000364858
0.000386786
0.00037563
0.000384661
0.00743186
0.00223403
0.000709034
0.000531449
0.000430936
0.000480402
0.000450637
0.000477047
0.000463467
0.000474357
0.00735178
0.00221395
0.000787014
0.000643429
0.000528186
0.000597864
0.000558959
0.000593716
0.00057599
0.000590071
0.00720598
0.00220857
0.000878581
0.00077176
0.000645822
0.000731785
0.000685537
0.000727069
0.000705684
0.000722565
0.00700354
0.00222183
0.000987952
0.000925857
0.000787647
0.000892477
0.000837488
0.00088703
0.000861254
0.000881483
)
;

boundaryField
{
    fuel
    {
        type            fixedValue;
        value           uniform 0;
    }
    wall
    {
        type            zeroGradient;
    }
    outlet
    {
        type            zeroGradient;
    }
    frontAndBack
    {
        type            empty;
    }
    procBoundary2to0
    {
        type            processor;
        value           nonuniform List<scalar> 
12
(
0.000723262
0.0067598
0.0022636
0.00112042
0.00110996
0.000957921
0.00108442
0.00101915
0.00107808
0.00104709
0.000882434
0.00107131
)
;
    }
    procBoundary2to3
    {
        type            processor;
        value           nonuniform List<scalar> 
25
(
4.74029e-07
1.06374e-06
1.86075e-06
2.82786e-06
3.96561e-06
5.33524e-06
7.04814e-06
9.61066e-06
1.26057e-05
1.65615e-05
1.65615e-05
2.18556e-05
2.91011e-05
3.84658e-05
5.05497e-05
6.61011e-05
8.60507e-05
0.000111552
0.000144025
0.000185217
0.000237259
0.000302746
0.000384805
0.000474623
0.000590577
)
;
    }
}


// ************************************************************************* //
