/*--------------------------------*- C++ -*----------------------------------*\
| =========                 |                                                 |
| \\      /  F ield         | OpenFOAM: The Open Source CFD Toolbox           |
|  \\    /   O peration     | Version:  dev                                   |
|   \\  /    A nd           | Web:      www.OpenFOAM.org                      |
|    \\/     M anipulation  |                                                 |
\*---------------------------------------------------------------------------*/
FoamFile
{
    version     2.0;
    format      ascii;
    class       volScalarField;
    location    "0.135";
    object      A2C2HA*;
}
// * * * * * * * * * * * * * * * * * * * * * * * * * * * * * * * * * * * * * //

dimensions      [0 0 0 0 0 0 0];

internalField   nonuniform List<scalar> 
50
(
8.34415e-20
7.52029e-20
6.78169e-20
6.11931e-20
5.52538e-20
4.99286e-20
4.52261e-20
4.09413e-20
3.70852e-20
3.36186e-20
3.05006e-20
2.774e-20
2.5246e-20
2.30044e-20
2.09817e-20
1.91273e-20
1.74736e-20
1.59758e-20
1.46182e-20
1.33835e-20
1.22667e-20
1.1253e-20
1.03167e-20
9.46591e-21
8.70586e-21
8.01376e-21
7.38263e-21
6.80651e-21
6.28022e-21
5.79914e-21
5.35672e-21
4.94859e-21
4.57951e-21
4.24021e-21
3.92817e-21
3.6409e-21
3.37514e-21
3.13081e-21
2.90513e-21
2.69634e-21
2.49944e-21
2.31628e-21
2.14631e-21
1.98842e-21
1.84162e-21
1.70794e-21
1.58343e-21
1.46624e-21
1.35712e-21
1.25432e-21
)
;

boundaryField
{
    wall
    {
        type            zeroGradient;
    }
    fuel
    {
        type            fixedValue;
        value           nonuniform 0();
    }
    outlet
    {
        type            inletOutlet;
        inletValue      nonuniform 0();
        value           nonuniform 0();
    }
    procBoundary2to1
    {
        type            processor;
        value           uniform 9.27659e-20;
    }
    procBoundary2to3
    {
        type            processor;
        value           uniform 1.15898e-21;
    }
}


// ************************************************************************* //
