/*--------------------------------*- C++ -*----------------------------------*\
| =========                 |                                                 |
| \\      /  F ield         | OpenFOAM: The Open Source CFD Toolbox           |
|  \\    /   O peration     | Version:  dev                                   |
|   \\  /    A nd           | Web:      www.OpenFOAM.org                      |
|    \\/     M anipulation  |                                                 |
\*---------------------------------------------------------------------------*/
FoamFile
{
    version     2.0;
    format      ascii;
    class       volScalarField;
    location    "0.135";
    object      CH3O;
}
// * * * * * * * * * * * * * * * * * * * * * * * * * * * * * * * * * * * * * //

dimensions      [0 0 0 0 0 0 0];

internalField   nonuniform List<scalar> 
50
(
5.6678e-15
5.60945e-15
5.55343e-15
5.49972e-15
5.44825e-15
5.39899e-15
5.35264e-15
5.3075e-15
5.26422e-15
5.2229e-15
5.18362e-15
5.14712e-15
5.11254e-15
5.08014e-15
5.04975e-15
5.02087e-15
4.99449e-15
4.97015e-15
4.94785e-15
4.92755e-15
4.90946e-15
4.89352e-15
4.87941e-15
4.86764e-15
4.85861e-15
4.85201e-15
4.84781e-15
4.84605e-15
4.84678e-15
4.85001e-15
4.85579e-15
4.86441e-15
4.87569e-15
4.88986e-15
4.90697e-15
4.92706e-15
4.95025e-15
4.97654e-15
5.00605e-15
5.03877e-15
5.07515e-15
5.11509e-15
5.15879e-15
5.20653e-15
5.25866e-15
5.31463e-15
5.37548e-15
5.44198e-15
5.51366e-15
5.59161e-15
)
;

boundaryField
{
    wall
    {
        type            zeroGradient;
    }
    fuel
    {
        type            fixedValue;
        value           nonuniform 0();
    }
    outlet
    {
        type            inletOutlet;
        inletValue      nonuniform 0();
        value           nonuniform 0();
    }
    procBoundary2to1
    {
        type            processor;
        value           uniform 5.72936e-15;
    }
    procBoundary2to3
    {
        type            processor;
        value           uniform 5.67502e-15;
    }
}


// ************************************************************************* //
