/*--------------------------------*- C++ -*----------------------------------*\
| =========                 |                                                 |
| \\      /  F ield         | OpenFOAM: The Open Source CFD Toolbox           |
|  \\    /   O peration     | Version:  dev                                   |
|   \\  /    A nd           | Web:      www.OpenFOAM.org                      |
|    \\/     M anipulation  |                                                 |
\*---------------------------------------------------------------------------*/
FoamFile
{
    version     2.0;
    format      ascii;
    class       volScalarField;
    location    "0.135";
    object      n-C4H3;
}
// * * * * * * * * * * * * * * * * * * * * * * * * * * * * * * * * * * * * * //

dimensions      [0 0 0 0 0 0 0];

internalField   nonuniform List<scalar> 
50
(
1.17795e-20
1.06331e-20
9.60609e-21
8.68561e-21
7.86043e-21
7.12051e-21
6.4668e-21
5.87098e-21
5.33446e-21
4.85176e-21
4.41717e-21
4.03188e-21
3.68338e-21
3.36976e-21
3.08643e-21
2.8264e-21
2.59418e-21
2.3836e-21
2.19245e-21
2.01836e-21
1.86058e-21
1.71706e-21
1.58416e-21
1.46295e-21
1.35413e-21
1.25448e-21
1.16298e-21
1.07877e-21
1.00109e-21
9.29261e-22
8.62324e-22
7.99609e-22
7.41901e-22
6.87829e-22
6.37076e-22
5.89336e-22
5.4419e-22
5.01755e-22
4.61704e-22
4.23892e-22
3.87573e-22
3.53228e-22
3.20913e-22
2.90575e-22
2.62167e-22
2.36225e-22
2.12106e-22
1.89563e-22
1.68826e-22
1.49635e-22
)
;

boundaryField
{
    wall
    {
        type            zeroGradient;
    }
    fuel
    {
        type            fixedValue;
        value           nonuniform 0();
    }
    outlet
    {
        type            inletOutlet;
        inletValue      nonuniform 0();
        value           nonuniform 0();
    }
    procBoundary2to1
    {
        type            processor;
        value           uniform 1.30686e-20;
    }
    procBoundary2to3
    {
        type            processor;
        value           uniform 1.32234e-22;
    }
}


// ************************************************************************* //
