/*--------------------------------*- C++ -*----------------------------------*\
| =========                 |                                                 |
| \\      /  F ield         | OpenFOAM: The Open Source CFD Toolbox           |
|  \\    /   O peration     | Version:  dev                                   |
|   \\  /    A nd           | Web:      www.OpenFOAM.org                      |
|    \\/     M anipulation  |                                                 |
\*---------------------------------------------------------------------------*/
FoamFile
{
    version     2.0;
    format      ascii;
    class       volScalarField;
    location    "0.135";
    object      naphthyne;
}
// * * * * * * * * * * * * * * * * * * * * * * * * * * * * * * * * * * * * * //

dimensions      [0 0 0 0 0 0 0];

internalField   nonuniform List<scalar> 
50
(
4.05884e-19
3.76993e-19
3.50515e-19
3.26228e-19
3.03952e-19
2.83524e-19
2.65077e-19
2.47888e-19
2.32066e-19
2.17517e-19
2.04132e-19
1.9201e-19
1.8081e-19
1.70515e-19
1.61015e-19
1.52109e-19
1.43987e-19
1.36468e-19
1.29501e-19
1.23028e-19
1.17046e-19
1.11502e-19
1.06278e-19
1.01434e-19
9.70234e-20
9.2933e-20
8.91376e-20
8.56151e-20
8.23454e-20
7.93094e-20
7.64731e-20
7.38115e-20
7.13592e-20
6.90554e-20
6.68808e-20
6.48132e-20
6.28219e-20
6.08961e-20
5.90036e-20
5.71188e-20
5.51823e-20
5.31946e-20
5.11381e-20
4.89929e-20
4.67447e-20
4.4437e-20
4.20235e-20
3.9488e-20
3.68737e-20
3.41749e-20
)
;

boundaryField
{
    wall
    {
        type            zeroGradient;
    }
    fuel
    {
        type            fixedValue;
        value           nonuniform 0();
    }
    outlet
    {
        type            inletOutlet;
        inletValue      nonuniform 0();
        value           nonuniform 0();
    }
    procBoundary2to1
    {
        type            processor;
        value           uniform 4.37866e-19;
    }
    procBoundary2to3
    {
        type            processor;
        value           uniform 3.14726e-20;
    }
}


// ************************************************************************* //
