/*--------------------------------*- C++ -*----------------------------------*\
| =========                 |                                                 |
| \\      /  F ield         | OpenFOAM: The Open Source CFD Toolbox           |
|  \\    /   O peration     | Version:  dev                                   |
|   \\  /    A nd           | Web:      www.OpenFOAM.org                      |
|    \\/     M anipulation  |                                                 |
\*---------------------------------------------------------------------------*/
FoamFile
{
    version     2.0;
    format      ascii;
    class       volScalarField;
    location    "0.135";
    object      p;
}
// * * * * * * * * * * * * * * * * * * * * * * * * * * * * * * * * * * * * * //

dimensions      [1 -1 -2 0 0 0 0];

internalField   nonuniform List<scalar> 
250
(
99998.8
99997.5
99996.7
99995.6
99994.6
99993.8
99993.1
99992.6
99992.2
99998.9
99997.3
99996.5
99995.4
99994.5
99993.6
99993
99992.4
99992.1
99998.9
99997.3
99996.5
99995.4
99994.4
99993.6
99992.9
99992.4
99992
99998.9
99997.3
99996.5
99995.4
99994.5
99993.6
99992.9
99992.4
99992
99998.9
99997.3
99996.5
99995.4
99994.5
99993.6
99992.9
99992.4
99992
99999
99997.3
99996.5
99995.4
99994.5
99993.6
99992.9
99992.4
99992
99999
99997.4
99996.5
99995.4
99994.5
99993.6
99992.9
99992.4
99992.1
99999.1
99997.4
99996.6
99995.4
99994.5
99993.6
99993
99992.4
99992.1
99999.1
99997.4
99996.6
99995.4
99994.5
99993.6
99993
99992.4
99992.1
99999.1
99997.4
99996.6
99995.4
99994.5
99993.7
99993
99992.5
99992.1
99999.2
99997.5
99996.6
99995.4
99994.5
99993.7
99993
99992.5
99992.1
99992
99999.2
99997.5
99996.6
99995.5
99994.5
99993.7
99993
99992.5
99992.1
99992
99999.2
99997.5
99996.6
99995.5
99994.5
99993.7
99993
99992.5
99992.1
99992
99999.2
99997.5
99996.6
99995.5
99994.6
99993.7
99993
99992.5
99992.1
99992
99999.3
99997.6
99996.6
99995.5
99994.6
99993.7
99993
99992.5
99992.1
99992
99999.3
99997.6
99996.6
99995.5
99994.6
99993.7
99993
99992.5
99992.1
99992
99999.3
99997.6
99996.7
99995.5
99994.6
99993.7
99993
99992.5
99992.1
99992
99999.3
99997.6
99996.7
99995.5
99994.6
99993.7
99993
99992.5
99992.1
99992
99999.3
99997.7
99996.7
99995.5
99994.6
99993.7
99993
99992.5
99992.1
99992
99999.3
99997.7
99996.7
99995.5
99994.6
99993.7
99993
99992.5
99992.1
99992
99999.3
99997.7
99996.7
99995.5
99994.6
99993.7
99993.1
99992.5
99992.2
99992
99999.4
99997.7
99996.7
99995.6
99994.6
99993.7
99993.1
99992.5
99992.2
99992
99999.4
99997.8
99996.7
99995.6
99994.6
99993.8
99993.1
99992.5
99992.2
99992.1
99999.4
99997.8
99996.7
99995.6
99994.6
99993.8
99993.1
99992.5
99992.2
99992.1
99999.4
99997.8
99996.7
99995.6
99994.6
99993.8
99993.1
99992.5
99992.2
99992.1
99999.4
99997.8
99996.7
99995.6
99994.6
99993.8
99993.1
99992.6
99992.2
99992.1
)
;

boundaryField
{
    fuel
    {
        type            zeroGradient;
    }
    wall
    {
        type            zeroGradient;
    }
    outlet
    {
        type            totalPressure;
        rho             none;
        psi             none;
        gamma           1;
        p0              uniform 100000;
        value           uniform 100000;
    }
    frontAndBack
    {
        type            empty;
    }
    procBoundary2to0
    {
        type            processor;
        value           nonuniform List<scalar> 
12
(
99992
99999.4
99997.8
99996.8
99995.6
99994.7
99993.8
99993.1
99992.6
99992.2
99992
99992.1
)
;
    }
    procBoundary2to3
    {
        type            processor;
        value           nonuniform List<scalar> 
25
(
99992.1
99992
99991.9
99991.9
99991.9
99991.9
99991.9
99992
99992
99992
99992
99991.9
99991.9
99992
99992
99992
99992
99992
99992
99992
99992
99992
99992
99992
99992
)
;
    }
}


// ************************************************************************* //
