/*--------------------------------*- C++ -*----------------------------------*\
| =========                 |                                                 |
| \\      /  F ield         | OpenFOAM: The Open Source CFD Toolbox           |
|  \\    /   O peration     | Version:  dev                                   |
|   \\  /    A nd           | Web:      www.OpenFOAM.org                      |
|    \\/     M anipulation  |                                                 |
\*---------------------------------------------------------------------------*/
FoamFile
{
    version     2.0;
    format      ascii;
    class       volScalarField;
    location    "0.135";
    object      P2-H;
}
// * * * * * * * * * * * * * * * * * * * * * * * * * * * * * * * * * * * * * //

dimensions      [0 0 0 0 0 0 0];

internalField   nonuniform List<scalar> 
50
(
1.22914e-27
1.12831e-27
1.03685e-27
9.53802e-28
8.78348e-28
8.09756e-28
7.48303e-28
6.91441e-28
6.39439e-28
5.91904e-28
5.48407e-28
5.09209e-28
4.73142e-28
4.40109e-28
4.09717e-28
3.81284e-28
3.554e-28
3.31452e-28
3.09265e-28
2.88627e-28
2.69521e-28
2.51759e-28
2.34941e-28
2.19263e-28
2.04889e-28
1.91446e-28
1.78847e-28
1.67023e-28
1.55913e-28
1.45463e-28
1.35571e-28
1.26179e-28
1.17438e-28
1.0917e-28
1.01354e-28
9.39613e-29
8.69439e-29
8.03347e-29
7.40917e-29
6.81976e-29
6.25363e-29
5.71866e-29
5.21579e-29
4.74402e-29
4.3024e-29
3.89911e-29
3.52361e-29
3.17159e-29
2.84633e-29
2.5436e-29
)
;

boundaryField
{
    wall
    {
        type            zeroGradient;
    }
    fuel
    {
        type            fixedValue;
        value           nonuniform 0();
    }
    outlet
    {
        type            inletOutlet;
        inletValue      nonuniform 0();
        value           nonuniform 0();
    }
    procBoundary2to1
    {
        type            processor;
        value           uniform 1.34155e-27;
    }
    procBoundary2to3
    {
        type            processor;
        value           uniform 2.26776e-29;
    }
}


// ************************************************************************* //
