/*--------------------------------*- C++ -*----------------------------------*\
| =========                 |                                                 |
| \\      /  F ield         | OpenFOAM: The Open Source CFD Toolbox           |
|  \\    /   O peration     | Version:  dev                                   |
|   \\  /    A nd           | Web:      www.OpenFOAM.org                      |
|    \\/     M anipulation  |                                                 |
\*---------------------------------------------------------------------------*/
FoamFile
{
    version     2.0;
    format      ascii;
    class       surfaceScalarField;
    location    "0.135";
    object      phi;
}
// * * * * * * * * * * * * * * * * * * * * * * * * * * * * * * * * * * * * * //

dimensions      [1 0 -1 0 0 0 0];

internalField   nonuniform List<scalar> 
464
(
-2.40023e-07
8.234e-06
-8.91366e-08
8.06641e-06
-6.00509e-08
8.15801e-06
-5.97687e-08
8.19066e-06
-4.38701e-08
8.17236e-06
-3.83375e-08
8.18144e-06
-2.96076e-08
8.17508e-06
-1.82063e-08
8.17493e-06
8.18594e-06
-3.24172e-07
8.32733e-06
-1.44248e-07
7.91069e-06
-1.19094e-07
8.14566e-06
-1.07505e-07
8.1921e-06
-8.60462e-08
8.16307e-06
-7.14344e-08
8.17645e-06
-5.47965e-08
8.1691e-06
-3.67751e-08
8.16631e-06
8.18216e-06
-3.30239e-07
8.47236e-06
-1.95807e-07
7.80697e-06
-1.72376e-07
8.14274e-06
-1.52734e-07
8.1927e-06
-1.25156e-07
8.15549e-06
-1.02588e-07
8.17353e-06
-7.88452e-08
8.16494e-06
-5.46528e-08
8.16159e-06
8.17869e-06
-3.28078e-07
8.66723e-06
-2.41435e-07
7.75377e-06
-2.19233e-07
8.14112e-06
-1.93486e-07
8.18539e-06
-1.60412e-07
8.14137e-06
-1.30836e-07
8.16284e-06
-1.00357e-07
8.15328e-06
-6.96682e-08
8.14966e-06
8.16745e-06
-3.30488e-07
8.88455e-06
-2.8529e-07
7.73905e-06
-2.63399e-07
8.13399e-06
-2.3257e-07
8.16229e-06
-1.94338e-07
8.11565e-06
-1.5828e-07
8.13913e-06
-1.22092e-07
8.12954e-06
-8.57717e-08
8.12556e-06
8.14349e-06
-3.41781e-07
9.09449e-06
-3.29507e-07
7.75182e-06
-3.07149e-07
8.11892e-06
-2.71667e-07
8.13754e-06
-2.28313e-07
8.07775e-06
-1.85965e-07
8.10183e-06
-1.44149e-07
8.09313e-06
-1.02228e-07
8.08793e-06
8.10616e-06
-3.63765e-07
9.27677e-06
-3.74791e-07
7.78887e-06
-3.51122e-07
8.09815e-06
-3.11279e-07
8.10205e-06
-2.62559e-07
8.02947e-06
-2.13961e-07
8.05324e-06
-1.66453e-07
8.04597e-06
-1.18686e-07
8.04141e-06
8.05778e-06
-3.95628e-07
9.42716e-06
-4.21032e-07
7.83725e-06
-3.95154e-07
8.07288e-06
-3.5107e-07
8.05366e-06
-2.96738e-07
7.97294e-06
-2.41921e-07
7.99684e-06
-1.88587e-07
7.99043e-06
-1.34782e-07
7.98538e-06
7.99985e-06
-4.35237e-07
9.55873e-06
-4.67935e-07
7.89296e-06
-4.38956e-07
8.04357e-06
-3.90612e-07
8.00256e-06
-3.30499e-07
7.9101e-06
-2.69483e-07
7.93344e-06
-2.10212e-07
7.92823e-06
-1.50249e-07
7.9225e-06
7.93498e-06
-4.80237e-07
9.68924e-06
-5.15127e-07
7.95058e-06
-4.82187e-07
8.01041e-06
-4.29502e-07
7.94652e-06
-3.63475e-07
7.8406e-06
-2.96329e-07
7.86292e-06
-2.31082e-07
7.85928e-06
-1.64912e-07
7.85269e-06
7.86342e-06
-5.29379e-07
9.81831e-06
-5.62435e-07
8.00621e-06
-5.24655e-07
7.97262e-06
-4.67493e-07
7.88661e-06
-3.95494e-07
7.76571e-06
-3.22313e-07
7.78681e-06
-2.51095e-07
7.78499e-06
-1.78726e-07
7.77728e-06
-1.05105e-07
7.78659e-06
7.79938e-06
-5.82115e-07
9.92927e-06
-6.09767e-07
8.056e-06
-5.66325e-07
7.92979e-06
-5.04505e-07
7.82271e-06
-4.26518e-07
7.6855e-06
-3.47408e-07
7.70541e-06
-2.70257e-07
7.70548e-06
-1.91734e-07
7.69639e-06
-1.12179e-07
7.70456e-06
7.72323e-06
-6.38278e-07
1.00006e-05
-6.57065e-07
8.09605e-06
-6.07222e-07
7.881e-06
-5.40522e-07
7.75453e-06
-4.56571e-07
7.59994e-06
-3.71641e-07
7.61882e-06
-2.88619e-07
7.62074e-06
-2.04018e-07
7.61004e-06
-1.18605e-07
7.61733e-06
7.6417e-06
-6.97202e-07
1.00225e-05
-7.04279e-07
8.12308e-06
-6.47415e-07
7.82545e-06
-5.75587e-07
7.6817e-06
-4.85722e-07
7.50898e-06
-3.95079e-07
7.52704e-06
-3.06265e-07
7.53074e-06
-2.15672e-07
7.51822e-06
-1.24486e-07
7.52486e-06
7.55468e-06
-7.57851e-07
9.99515e-06
-7.51376e-07
8.13444e-06
-6.86994e-07
7.76247e-06
-6.09772e-07
7.60382e-06
-5.14063e-07
7.41257e-06
-4.17807e-07
7.43007e-06
-3.23291e-07
7.43543e-06
-2.26796e-07
7.42092e-06
-1.29929e-07
7.42712e-06
7.4621e-06
-8.19405e-07
9.92383e-06
-7.9835e-07
8.12924e-06
-7.26044e-07
7.69148e-06
-6.43163e-07
7.52052e-06
-5.41694e-07
7.3107e-06
-4.39908e-07
7.32788e-06
-3.39786e-07
7.33482e-06
-2.37489e-07
7.31812e-06
-1.35029e-07
7.3241e-06
7.36387e-06
-8.81187e-07
9.81533e-06
-8.4521e-07
8.10608e-06
-7.64657e-07
7.6121e-06
-6.75849e-07
7.43141e-06
-5.68715e-07
7.20336e-06
-4.61474e-07
7.22043e-06
-3.5584e-07
7.22892e-06
-2.47837e-07
7.20985e-06
-1.3987e-07
7.21578e-06
7.25996e-06
-9.42512e-07
9.67641e-06
-8.92075e-07
8.06521e-06
-8.02906e-07
7.52382e-06
-7.07925e-07
7.33618e-06
-5.95219e-07
7.09057e-06
-4.82583e-07
7.10772e-06
-3.71533e-07
7.11774e-06
-2.57917e-07
7.09613e-06
-1.44527e-07
7.10217e-06
7.15035e-06
-1.00326e-06
9.51358e-06
-9.3892e-07
8.00308e-06
-8.40844e-07
7.42629e-06
-7.39478e-07
7.23456e-06
-6.21298e-07
6.97237e-06
-5.03312e-07
6.98972e-06
-3.86924e-07
7.00129e-06
-2.67786e-07
6.97694e-06
-1.49059e-07
6.98329e-06
7.03503e-06
-1.06345e-06
9.33322e-06
-9.85752e-07
7.93704e-06
-8.7848e-07
7.3192e-06
-7.7056e-07
7.12628e-06
-6.47031e-07
6.84882e-06
-5.23732e-07
6.86642e-06
-4.02093e-07
6.87961e-06
-2.77518e-07
6.8524e-06
-1.53519e-07
6.85917e-06
6.91403e-06
-1.12288e-06
9.14089e-06
-1.03257e-06
7.85082e-06
-9.15889e-07
7.2023e-06
-8.01302e-07
7.01127e-06
-6.72496e-07
6.71998e-06
-5.43908e-07
6.73781e-06
-4.17091e-07
6.75273e-06
-2.87152e-07
6.72259e-06
-1.57949e-07
6.72983e-06
6.78738e-06
-1.18148e-06
8.9391e-06
-1.07919e-06
7.74892e-06
-9.53084e-07
7.0756e-06
-8.31771e-07
6.88944e-06
-6.9776e-07
6.58594e-06
-5.63899e-07
6.60393e-06
-4.31936e-07
6.6207e-06
-2.96709e-07
6.58744e-06
-1.62383e-07
6.59536e-06
6.65515e-06
-1.23908e-06
8.71961e-06
-1.12531e-06
7.63295e-06
-9.89979e-07
6.93931e-06
-8.6189e-07
6.76063e-06
-7.2276e-07
6.4467e-06
-5.8366e-07
6.46467e-06
-4.46637e-07
6.48347e-06
-3.06216e-07
6.44696e-06
-1.66819e-07
6.4557e-06
6.5173e-06
-1.29599e-06
8.49339e-06
-1.17103e-06
7.50432e-06
-1.02665e-06
6.79364e-06
-8.91853e-07
6.62502e-06
-7.47682e-07
6.30236e-06
-6.03399e-07
6.32026e-06
-4.6134e-07
6.34125e-06
-3.15768e-07
6.30132e-06
-1.71322e-07
6.31102e-06
6.37406e-06
-1.35227e-06
8.26354e-06
-1.216e-06
7.36333e-06
-1.06306e-06
6.63916e-06
-9.21638e-07
6.48261e-06
-7.72466e-07
6.15298e-06
-6.22981e-07
6.17056e-06
-4.75931e-07
6.19395e-06
-3.25291e-07
6.15046e-06
-1.75855e-07
6.16126e-06
6.22538e-06
-1.40788e-06
-1.26022e-06
-1.0992e-06
-9.51341e-07
-7.97192e-07
-6.42525e-07
-4.90497e-07
-3.3485e-07
-1.80454e-07
)
;

boundaryField
{
    fuel
    {
        type            calculated;
        value           nonuniform List<scalar> 9(-8.18307e-06 -8.18295e-06 -8.18287e-06 -8.18277e-06 -8.18269e-06 -8.18261e-06 -8.18255e-06 -8.18251e-06 -8.18248e-06);
    }
    wall
    {
        type            calculated;
        value           nonuniform 0();
    }
    outlet
    {
        type            calculated;
        value           nonuniform List<scalar> 
26
(
5.04911e-07
6.57818e-07
6.35194e-07
5.93487e-07
5.60474e-07
5.44086e-07
5.47004e-07
5.6708e-07
5.99686e-07
6.40169e-07
6.86065e-07
7.36635e-07
7.92242e-07
8.52405e-07
9.15734e-07
9.80847e-07
1.04652e-06
1.11185e-06
1.1764e-06
1.24001e-06
1.30262e-06
1.3642e-06
1.42482e-06
1.48533e-06
1.54585e-06
1.60619e-06
)
;
    }
    frontAndBack
    {
        type            empty;
        value           nonuniform 0();
    }
    procBoundary2to0
    {
        type            processor;
        value           nonuniform List<scalar> 
12
(
-2.72524e-08
8.03e-06
7.20986e-06
6.47635e-06
6.3335e-06
5.99859e-06
6.0156e-06
6.04161e-06
5.99451e-06
6.00647e-06
-2.65002e-08
6.07132e-06
)
;
    }
    procBoundary2to3
    {
        type            processor;
        value           nonuniform List<scalar> 
25
(
-1.38168e-08
-2.2456e-08
-3.145e-08
-3.96094e-08
-4.94059e-08
-5.94417e-08
-6.958e-08
-7.9431e-08
-8.8725e-08
-9.72987e-08
-7.87024e-06
-3.74299e-08
-3.84987e-08
-3.88998e-08
-3.87641e-08
-3.82126e-08
-3.73562e-08
-3.62915e-08
-3.50991e-08
-3.38449e-08
-3.25814e-08
-3.13499e-08
-3.0182e-08
-2.90974e-08
-2.812e-08
)
;
    }
}


// ************************************************************************* //
