/*--------------------------------*- C++ -*----------------------------------*\
| =========                 |                                                 |
| \\      /  F ield         | OpenFOAM: The Open Source CFD Toolbox           |
|  \\    /   O peration     | Version:  dev                                   |
|   \\  /    A nd           | Web:      www.OpenFOAM.org                      |
|    \\/     M anipulation  |                                                 |
\*---------------------------------------------------------------------------*/
FoamFile
{
    version     2.0;
    format      ascii;
    class       volScalarField;
    location    "0.165";
    object      A1C2H3*;
}
// * * * * * * * * * * * * * * * * * * * * * * * * * * * * * * * * * * * * * //

dimensions      [0 0 0 0 0 0 0];

internalField   nonuniform List<scalar> 
50
(
3.21116e-23
2.95003e-23
2.69432e-23
2.43476e-23
2.19497e-23
1.96455e-23
1.74725e-23
1.53904e-23
1.34759e-23
1.17375e-23
1.02371e-23
8.89652e-24
7.68128e-24
6.62145e-24
5.75083e-24
5.00331e-24
4.37742e-24
3.85128e-24
3.42926e-24
3.11644e-24
2.87715e-24
2.70171e-24
2.57406e-24
2.48956e-24
2.43045e-24
2.38247e-24
2.33563e-24
2.27741e-24
2.19383e-24
2.08683e-24
1.94962e-24
1.78363e-24
1.59339e-24
1.3882e-24
1.16692e-24
9.6238e-25
7.59283e-25
5.8669e-25
4.35708e-25
3.10146e-25
2.10581e-25
1.35318e-25
8.14122e-26
4.52622e-26
2.29228e-26
1.04395e-26
4.26573e-27
1.61635e-27
6.17091e-28
2.11849e-28
)
;

boundaryField
{
    wall
    {
        type            zeroGradient;
    }
    fuel
    {
        type            fixedValue;
        value           nonuniform 0();
    }
    outlet
    {
        type            inletOutlet;
        inletValue      uniform 0;
        value           uniform 2.11849e-28;
    }
    procBoundary3to2
    {
        type            processor;
        value           uniform 3.47818e-23;
    }
}


// ************************************************************************* //
