/*--------------------------------*- C++ -*----------------------------------*\
| =========                 |                                                 |
| \\      /  F ield         | OpenFOAM: The Open Source CFD Toolbox           |
|  \\    /   O peration     | Version:  dev                                   |
|   \\  /    A nd           | Web:      www.OpenFOAM.org                      |
|    \\/     M anipulation  |                                                 |
\*---------------------------------------------------------------------------*/
FoamFile
{
    version     2.0;
    format      ascii;
    class       volScalarField;
    location    "0.165";
    object      A4;
}
// * * * * * * * * * * * * * * * * * * * * * * * * * * * * * * * * * * * * * //

dimensions      [0 0 0 0 0 0 0];

internalField   nonuniform List<scalar> 
250
(
3.2061e-08
3.20485e-08
3.20781e-08
3.20742e-08
3.2068e-08
3.20862e-08
3.21529e-08
3.25792e-08
3.54752e-08
5.14246e-08
3.47068e-09
5.20539e-08
5.20287e-08
5.20898e-08
5.20843e-08
5.20696e-08
5.21037e-08
5.22409e-08
5.31091e-08
5.90017e-08
9.13222e-08
1.02663e-08
6.40991e-08
6.40662e-08
6.41576e-08
6.41512e-08
6.41258e-08
6.41793e-08
6.43811e-08
6.57188e-08
7.46462e-08
1.22518e-07
1.79723e-08
7.06404e-08
7.06102e-08
7.07204e-08
7.07112e-08
7.06769e-08
7.07507e-08
7.10093e-08
7.28128e-08
8.45909e-08
1.45692e-07
2.62073e-08
7.37709e-08
7.37571e-08
7.38596e-08
7.38449e-08
7.38047e-08
7.38982e-08
7.4208e-08
7.64669e-08
9.08548e-08
1.62669e-07
3.47604e-08
7.48161e-08
7.4834e-08
7.4957e-08
7.49335e-08
7.48901e-08
7.50034e-08
7.53627e-08
7.80577e-08
9.47492e-08
1.75025e-07
4.34092e-08
7.45448e-08
7.46106e-08
7.47125e-08
7.46778e-08
7.46328e-08
7.47657e-08
7.51717e-08
7.82739e-08
9.70283e-08
1.83863e-07
5.16568e-08
7.33336e-08
7.34799e-08
7.35655e-08
7.35137e-08
7.34696e-08
7.36272e-08
7.41514e-08
7.76194e-08
9.82063e-08
1.89933e-07
5.83971e-08
7.16288e-08
7.18633e-08
7.19478e-08
7.18789e-08
7.18466e-08
7.20154e-08
7.25852e-08
7.62618e-08
9.84765e-08
1.93753e-07
6.3102e-08
6.95615e-08
6.95746e-08
6.9671e-08
6.95791e-08
6.95856e-08
6.97448e-08
7.03633e-08
7.4327e-08
9.80605e-08
1.95683e-07
6.82911e-08
6.73376e-08
6.74684e-08
6.73501e-08
6.73904e-08
6.75464e-08
6.8202e-08
7.23666e-08
9.69944e-08
1.95978e-07
7.48502e-08
6.46316e-08
6.48378e-08
6.46769e-08
6.47807e-08
6.49216e-08
6.56276e-08
7.00843e-08
9.53491e-08
1.94822e-07
8.22418e-08
6.21611e-08
6.20992e-08
6.18822e-08
6.20749e-08
6.21853e-08
6.29189e-08
6.7527e-08
9.32188e-08
1.92068e-07
8.9922e-08
5.93492e-08
5.93267e-08
5.90328e-08
5.93308e-08
5.94147e-08
6.01682e-08
6.48762e-08
9.10421e-08
1.88406e-07
9.75063e-08
5.6559e-08
5.65647e-08
5.65561e-08
5.65893e-08
5.66528e-08
5.74189e-08
6.21719e-08
8.83361e-08
1.83713e-07
1.04775e-07
5.38239e-08
5.38434e-08
5.38191e-08
5.38909e-08
5.39319e-08
5.47035e-08
5.94445e-08
8.52703e-08
1.78079e-07
1.11227e-07
5.11633e-08
5.11878e-08
5.11434e-08
5.12019e-08
5.12771e-08
5.20474e-08
5.67176e-08
8.20457e-08
1.70816e-07
1.16639e-07
4.8592e-08
4.86174e-08
4.85464e-08
4.86183e-08
4.87086e-08
4.94707e-08
5.4006e-08
7.90366e-08
1.63664e-07
1.20867e-07
4.61233e-08
4.61483e-08
4.60405e-08
4.61495e-08
4.6242e-08
4.69891e-08
5.13151e-08
7.54987e-08
1.55883e-07
1.23774e-07
4.37686e-08
4.3793e-08
4.36332e-08
4.38005e-08
4.38891e-08
4.46146e-08
4.89862e-08
7.18216e-08
1.4683e-07
1.25282e-07
4.15368e-08
4.1561e-08
4.16161e-08
4.1578e-08
4.16588e-08
4.2353e-08
4.67154e-08
6.81164e-08
1.37448e-07
1.25407e-07
3.94332e-08
3.94559e-08
3.95033e-08
3.94812e-08
3.95558e-08
4.02057e-08
4.43333e-08
6.4431e-08
1.27755e-07
1.24232e-07
3.7698e-08
3.77199e-08
3.77601e-08
3.77513e-08
3.78206e-08
3.84222e-08
4.23309e-08
6.08168e-08
1.19016e-07
1.21917e-07
3.59875e-08
3.60094e-08
3.60428e-08
3.60462e-08
3.61142e-08
3.6792e-08
4.03921e-08
5.73008e-08
1.10449e-07
1.18643e-07
)
;

boundaryField
{
    fuel
    {
        type            fixedValue;
        value           uniform 0;
    }
    wall
    {
        type            zeroGradient;
    }
    outlet
    {
        type            zeroGradient;
    }
    frontAndBack
    {
        type            empty;
    }
    procBoundary3to0
    {
        type            processor;
        value           nonuniform List<scalar> 10(3.45564e-08 3.45763e-08 3.46047e-08 3.46162e-08 3.46821e-08 3.53228e-08 3.86877e-08 5.38966e-08 1.02583e-07 1.14613e-07);
    }
    procBoundary3to2
    {
        type            processor;
        value           nonuniform List<scalar> 
25
(
3.20734e-08
5.20745e-08
6.41283e-08
7.06788e-08
7.38109e-08
7.49044e-08
7.46433e-08
7.35063e-08
7.18633e-08
6.95665e-08
6.7267e-08
6.7267e-08
6.48582e-08
6.20193e-08
5.94993e-08
5.66743e-08
5.39064e-08
5.12232e-08
4.86381e-08
4.61607e-08
4.37995e-08
4.15617e-08
3.9452e-08
3.77121e-08
3.59952e-08
)
;
    }
}


// ************************************************************************* //
