/*--------------------------------*- C++ -*----------------------------------*\
| =========                 |                                                 |
| \\      /  F ield         | OpenFOAM: The Open Source CFD Toolbox           |
|  \\    /   O peration     | Version:  dev                                   |
|   \\  /    A nd           | Web:      www.OpenFOAM.org                      |
|    \\/     M anipulation  |                                                 |
\*---------------------------------------------------------------------------*/
FoamFile
{
    version     2.0;
    format      ascii;
    class       volScalarField;
    location    "0.165";
    object      CH2(S);
}
// * * * * * * * * * * * * * * * * * * * * * * * * * * * * * * * * * * * * * //

dimensions      [0 0 0 0 0 0 0];

internalField   nonuniform List<scalar> 
50
(
2.01056e-14
1.99283e-14
1.97066e-14
1.94206e-14
1.90895e-14
1.87019e-14
1.82609e-14
1.77517e-14
1.71855e-14
1.6565e-14
1.59223e-14
1.52361e-14
1.44877e-14
1.36959e-14
1.29056e-14
1.20806e-14
1.12354e-14
1.03535e-14
9.45876e-15
8.60916e-15
7.76509e-15
6.94455e-15
6.12796e-15
5.37924e-15
4.67757e-15
4.01558e-15
3.44076e-15
2.93967e-15
2.50255e-15
2.17768e-15
1.94481e-15
1.8123e-15
1.78881e-15
1.88323e-15
2.12033e-15
2.48074e-15
3.01253e-15
3.64423e-15
4.37325e-15
5.12163e-15
5.7825e-15
6.23419e-15
6.36051e-15
6.08273e-15
5.39063e-15
4.35767e-15
3.13113e-15
1.90042e-15
8.60248e-16
1.77992e-16
)
;

boundaryField
{
    wall
    {
        type            zeroGradient;
    }
    fuel
    {
        type            fixedValue;
        value           nonuniform 0();
    }
    outlet
    {
        type            inletOutlet;
        inletValue      uniform 0;
        value           uniform 1.77992e-16;
    }
    procBoundary3to2
    {
        type            processor;
        value           uniform 2.02519e-14;
    }
}


// ************************************************************************* //
