/*--------------------------------*- C++ -*----------------------------------*\
| =========                 |                                                 |
| \\      /  F ield         | OpenFOAM: The Open Source CFD Toolbox           |
|  \\    /   O peration     | Version:  dev                                   |
|   \\  /    A nd           | Web:      www.OpenFOAM.org                      |
|    \\/     M anipulation  |                                                 |
\*---------------------------------------------------------------------------*/
FoamFile
{
    version     2.0;
    format      ascii;
    class       volScalarField;
    location    "0.165";
    object      CH2OH;
}
// * * * * * * * * * * * * * * * * * * * * * * * * * * * * * * * * * * * * * //

dimensions      [0 0 0 0 0 0 0];

internalField   nonuniform List<scalar> 
250
(
1.27602e-06
1.27624e-06
1.27652e-06
1.27628e-06
1.27636e-06
1.27613e-06
1.27623e-06
1.27612e-06
1.27585e-06
1.26973e-06
7.48692e-10
7.45774e-07
7.45804e-07
7.45868e-07
7.45855e-07
7.45836e-07
7.45878e-07
7.45749e-07
7.45945e-07
7.45445e-07
7.4939e-07
8.05876e-10
3.75906e-07
3.75911e-07
3.75987e-07
3.76012e-07
3.75966e-07
3.76077e-07
3.75869e-07
3.75953e-07
3.74627e-07
3.82034e-07
5.41249e-10
1.89128e-07
1.89127e-07
1.89377e-07
1.89396e-07
1.89362e-07
1.8945e-07
1.89274e-07
1.89156e-07
1.87684e-07
2.00895e-07
3.46223e-10
1.03735e-07
1.03735e-07
1.04485e-07
1.04496e-07
1.04478e-07
1.04526e-07
1.04373e-07
1.03985e-07
1.02357e-07
1.19158e-07
2.69138e-10
6.46244e-08
6.46308e-08
6.39673e-08
6.39531e-08
6.39398e-08
6.39879e-08
6.38655e-08
6.39467e-08
6.33017e-08
8.10192e-08
7.25003e-10
4.59648e-08
4.59823e-08
4.5676e-08
4.56612e-08
4.5653e-08
4.56789e-08
4.5464e-08
4.54148e-08
4.4667e-08
6.11066e-08
9.21357e-09
3.60105e-08
3.61247e-08
3.59629e-08
3.59343e-08
3.59243e-08
3.59656e-08
3.60805e-08
3.60149e-08
3.47387e-08
4.89561e-08
1.19479e-07
3.08156e-08
3.10177e-08
3.09413e-08
3.09116e-08
3.09059e-08
3.09385e-08
3.09695e-08
3.05958e-08
2.89062e-08
4.04177e-08
4.61319e-07
2.7732e-08
2.76545e-08
2.76293e-08
2.75969e-08
2.76113e-08
2.76236e-08
2.76154e-08
2.72431e-08
2.58075e-08
3.33635e-08
3.83707e-07
2.57432e-08
2.57533e-08
2.57158e-08
2.57427e-08
2.57462e-08
2.57184e-08
2.53268e-08
2.35897e-08
2.76563e-08
2.40913e-07
2.42324e-08
2.42859e-08
2.42378e-08
2.4283e-08
2.42792e-08
2.42463e-08
2.38927e-08
2.19552e-08
2.32468e-08
1.50157e-07
2.31865e-08
2.31444e-08
2.30814e-08
2.31512e-08
2.31373e-08
2.30963e-08
2.27268e-08
2.06708e-08
1.95539e-08
9.8677e-08
2.21985e-08
2.218e-08
2.20936e-08
2.21932e-08
2.21733e-08
2.21279e-08
2.17478e-08
1.97363e-08
1.69744e-08
6.85636e-08
2.13119e-08
2.13082e-08
2.1306e-08
2.1325e-08
2.13019e-08
2.12544e-08
2.08686e-08
1.88455e-08
1.49894e-08
4.95053e-08
2.04764e-08
2.04805e-08
2.04686e-08
2.05027e-08
2.04754e-08
2.04273e-08
2.004e-08
1.80168e-08
1.34519e-08
3.68762e-08
1.96606e-08
1.96688e-08
1.96471e-08
1.96803e-08
1.96654e-08
1.96178e-08
1.9232e-08
1.72589e-08
1.212e-08
2.80555e-08
1.8844e-08
1.88547e-08
1.88218e-08
1.8862e-08
1.88537e-08
1.88073e-08
1.84235e-08
1.66173e-08
1.11864e-08
2.16233e-08
1.80127e-08
1.80251e-08
1.7978e-08
1.80328e-08
1.80272e-08
1.79823e-08
1.75954e-08
1.59136e-08
1.04403e-08
1.68107e-08
1.71554e-08
1.71696e-08
1.71019e-08
1.71796e-08
1.71751e-08
1.7132e-08
1.68373e-08
1.52083e-08
9.78484e-09
1.31719e-08
1.62622e-08
1.62783e-08
1.62929e-08
1.6292e-08
1.62873e-08
1.62451e-08
1.60432e-08
1.44997e-08
9.24929e-09
1.04217e-08
1.53221e-08
1.53396e-08
1.53478e-08
1.53569e-08
1.53529e-08
1.53084e-08
1.51361e-08
1.37747e-08
8.78684e-09
8.35886e-09
1.44414e-08
1.44604e-08
1.44633e-08
1.44808e-08
1.44774e-08
1.44281e-08
1.42894e-08
1.30233e-08
8.40942e-09
6.83069e-09
1.34439e-08
1.34652e-08
1.34633e-08
1.3489e-08
1.34882e-08
1.35058e-08
1.33659e-08
1.22311e-08
8.04716e-09
5.71405e-09
)
;

boundaryField
{
    fuel
    {
        type            fixedValue;
        value           uniform 0;
    }
    wall
    {
        type            zeroGradient;
    }
    outlet
    {
        type            zeroGradient;
    }
    frontAndBack
    {
        type            empty;
    }
    procBoundary3to0
    {
        type            processor;
        value           nonuniform List<scalar> 10(1.24721e-08 1.24943e-08 1.2489e-08 1.25208e-08 1.25214e-08 1.25418e-08 1.24381e-08 1.13838e-08 7.70023e-09 4.92213e-09);
    }
    procBoundary3to2
    {
        type            processor;
        value           nonuniform List<scalar> 
25
(
1.27615e-06
7.45826e-07
3.76002e-07
1.89396e-07
1.04508e-07
6.39686e-08
4.56108e-08
3.60844e-08
3.09796e-08
2.76337e-08
2.57476e-08
2.57476e-08
2.43597e-08
2.31506e-08
2.2253e-08
2.13489e-08
2.05001e-08
1.96755e-08
1.88532e-08
1.80177e-08
1.71569e-08
1.62603e-08
1.53168e-08
1.44332e-08
1.34317e-08
)
;
    }
}


// ************************************************************************* //
