/*--------------------------------*- C++ -*----------------------------------*\
| =========                 |                                                 |
| \\      /  F ield         | OpenFOAM: The Open Source CFD Toolbox           |
|  \\    /   O peration     | Version:  dev                                   |
|   \\  /    A nd           | Web:      www.OpenFOAM.org                      |
|    \\/     M anipulation  |                                                 |
\*---------------------------------------------------------------------------*/
FoamFile
{
    version     2.0;
    format      ascii;
    class       volScalarField;
    location    "0.165";
    object      n-C4H5;
}
// * * * * * * * * * * * * * * * * * * * * * * * * * * * * * * * * * * * * * //

dimensions      [0 0 0 0 0 0 0];

internalField   nonuniform List<scalar> 
50
(
2.61754e-23
2.39773e-23
2.19409e-23
1.99728e-23
1.82312e-23
1.66078e-23
1.51074e-23
1.36859e-23
1.23843e-23
1.11957e-23
1.0153e-23
9.19492e-24
8.29198e-24
7.46416e-24
6.74081e-24
6.06971e-24
5.45392e-24
4.87749e-24
4.35214e-24
3.90049e-24
3.48842e-24
3.11752e-24
2.77326e-24
2.47654e-24
2.21061e-24
1.96775e-24
1.76008e-24
1.57638e-24
1.40878e-24
1.27276e-24
1.1555e-24
1.05549e-24
9.70288e-25
8.97511e-25
8.31868e-25
7.76752e-25
7.21839e-25
6.70329e-25
6.15714e-25
5.57806e-25
4.98242e-25
4.39181e-25
3.82504e-25
3.29251e-25
2.79273e-25
2.31249e-25
1.8312e-25
1.33158e-25
8.20473e-26
3.29869e-26
)
;

boundaryField
{
    wall
    {
        type            zeroGradient;
    }
    fuel
    {
        type            fixedValue;
        value           nonuniform 0();
    }
    outlet
    {
        type            inletOutlet;
        inletValue      uniform 0;
        value           uniform 3.29869e-26;
    }
    procBoundary3to2
    {
        type            processor;
        value           uniform 2.85655e-23;
    }
}


// ************************************************************************* //
