/*--------------------------------*- C++ -*----------------------------------*\
| =========                 |                                                 |
| \\      /  F ield         | OpenFOAM: The Open Source CFD Toolbox           |
|  \\    /   O peration     | Version:  dev                                   |
|   \\  /    A nd           | Web:      www.OpenFOAM.org                      |
|    \\/     M anipulation  |                                                 |
\*---------------------------------------------------------------------------*/
FoamFile
{
    version     2.0;
    format      ascii;
    class       volScalarField;
    location    "0.165";
    object      p;
}
// * * * * * * * * * * * * * * * * * * * * * * * * * * * * * * * * * * * * * //

dimensions      [1 -1 -2 0 0 0 0];

internalField   nonuniform List<scalar> 
50
(
100093
100092
100091
100090
100089
100088
100086
100085
100084
100083
100082
100080
100079
100078
100077
100075
100074
100073
100071
100070
100069
100067
100066
100064
100063
100062
100060
100058
100057
100055
100054
100052
100050
100048
100047
100045
100043
100041
100039
100036
100034
100032
100029
100027
100024
100021
100017
100014
100010
100005
)
;

boundaryField
{
    wall
    {
        type            zeroGradient;
    }
    fuel
    {
        type            zeroGradient;
    }
    outlet
    {
        type            totalPressure;
        rho             none;
        psi             none;
        gamma           1;
        p0              uniform 100000;
        value           uniform 100000;
    }
    procBoundary3to2
    {
        type            processor;
        value           uniform 100094;
    }
}


// ************************************************************************* //
