/*--------------------------------*- C++ -*----------------------------------*\
| =========                 |                                                 |
| \\      /  F ield         | OpenFOAM: The Open Source CFD Toolbox           |
|  \\    /   O peration     | Version:  dev                                   |
|   \\  /    A nd           | Web:      www.OpenFOAM.org                      |
|    \\/     M anipulation  |                                                 |
\*---------------------------------------------------------------------------*/
FoamFile
{
    version     2.0;
    format      ascii;
    class       volScalarField;
    location    "0.165";
    object      p;
}
// * * * * * * * * * * * * * * * * * * * * * * * * * * * * * * * * * * * * * //

dimensions      [1 -1 -2 0 0 0 0];

internalField   nonuniform List<scalar> 
250
(
99989.9
99990
99990.2
99990.7
99991.4
99992.3
99993.3
99994.6
99995.9
99997.5
99999.4
99989.8
99989.8
99990.1
99990.5
99991.2
99992.1
99993.2
99994.5
99995.8
99997.4
99999.4
99989.7
99989.8
99990
99990.5
99991.2
99992.1
99993.2
99994.4
99995.8
99997.3
99999.5
99989.8
99989.8
99990
99990.5
99991.2
99992.1
99993.2
99994.5
99995.8
99997.4
99999.6
99989.8
99989.8
99990.1
99990.5
99991.2
99992.1
99993.2
99994.5
99995.8
99997.4
99999.6
99989.8
99989.8
99990.1
99990.6
99991.2
99992.2
99993.2
99994.5
99995.8
99997.4
99999.6
99989.8
99989.9
99990.1
99990.6
99991.3
99992.2
99993.2
99994.5
99995.8
99997.4
99999.6
99989.9
99989.9
99990.1
99990.6
99991.3
99992.2
99993.3
99994.5
99995.9
99997.5
99999.6
99989.9
99989.9
99990.1
99990.6
99991.3
99992.2
99993.3
99994.6
99995.9
99997.5
99999.5
99989.9
99989.9
99990.2
99990.6
99991.3
99992.2
99993.3
99994.6
99995.9
99997.5
99999.4
99989.9
99990.2
99990.7
99991.3
99992.3
99993.3
99994.6
99995.9
99997.5
99999.4
99989.9
99990.2
99990.7
99991.4
99992.3
99993.3
99994.6
99995.9
99997.6
99999.4
99990
99990.2
99990.7
99991.4
99992.3
99993.3
99994.6
99996
99997.6
99999.3
99990
99990.2
99990.7
99991.4
99992.3
99993.4
99994.7
99996
99997.6
99999.3
99990
99990.2
99990.7
99991.4
99992.3
99993.4
99994.7
99996
99997.6
99999.3
99990
99990.2
99990.7
99991.4
99992.3
99993.4
99994.7
99996
99997.6
99999.3
99990
99990.3
99990.7
99991.4
99992.4
99993.4
99994.7
99996
99997.6
99999.3
99990
99990.3
99990.8
99991.4
99992.4
99993.4
99994.7
99996.1
99997.6
99999.3
99990
99990.3
99990.8
99991.4
99992.4
99993.4
99994.7
99996.1
99997.7
99999.3
99990
99990.3
99990.8
99991.5
99992.4
99993.4
99994.7
99996.1
99997.7
99999.3
99990
99990.3
99990.8
99991.5
99992.4
99993.5
99994.7
99996.1
99997.7
99999.3
99990
99990.3
99990.8
99991.5
99992.4
99993.5
99994.8
99996.1
99997.7
99999.3
99990.1
99990.3
99990.8
99991.5
99992.4
99993.5
99994.8
99996.1
99997.7
99999.3
99990.1
99990.3
99990.8
99991.5
99992.4
99993.5
99994.8
99996.1
99997.7
99999.3
)
;

boundaryField
{
    fuel
    {
        type            zeroGradient;
    }
    wall
    {
        type            zeroGradient;
    }
    outlet
    {
        type            totalPressure;
        rho             none;
        psi             none;
        gamma           1;
        p0              uniform 100000;
        value           nonuniform List<scalar> 
24
(
100000
100000
100000
100000
100000
100000
100000
100000
100000
100000
100000
100000
100000
100000
100000
100000
100000
100000
100000
100000
100000
100000
100000
100000
)
;
    }
    frontAndBack
    {
        type            empty;
    }
    procBoundary3to0
    {
        type            processor;
        value           nonuniform List<scalar> 10(99990.1 99990.3 99990.8 99991.5 99992.4 99993.5 99994.8 99996.1 99997.7 99999.3);
    }
    procBoundary3to2
    {
        type            processor;
        value           nonuniform List<scalar> 
25
(
99990.2
99990
99990
99990
99990
99990
99990.1
99990.1
99990.1
99990.1
99989.9
99989.9
99989.9
99989.9
99989.9
99990
99990
99990
99990
99990
99990
99990
99990
99990
99990
)
;
    }
}


// ************************************************************************* //
