/*--------------------------------*- C++ -*----------------------------------*\
| =========                 |                                                 |
| \\      /  F ield         | OpenFOAM: The Open Source CFD Toolbox           |
|  \\    /   O peration     | Version:  dev                                   |
|   \\  /    A nd           | Web:      www.OpenFOAM.org                      |
|    \\/     M anipulation  |                                                 |
\*---------------------------------------------------------------------------*/
FoamFile
{
    version     2.0;
    format      ascii;
    class       volScalarField;
    location    "0.16";
    object      CH2CO;
}
// * * * * * * * * * * * * * * * * * * * * * * * * * * * * * * * * * * * * * //

dimensions      [0 0 0 0 0 0 0];

internalField   nonuniform List<scalar> 
250
(
1.98429e-05
1.98613e-05
1.98588e-05
1.98887e-05
1.98642e-05
2.00426e-05
2.01292e-05
2.11536e-05
2.12247e-05
3.88878e-05
1.91484e-05
1.91679e-05
1.91631e-05
1.91965e-05
1.91723e-05
1.93485e-05
1.94257e-05
2.0417e-05
2.04033e-05
3.38444e-05
2.00687e-05
2.03471e-05
1.94123e-05
1.9075e-05
1.86348e-05
1.85522e-05
1.85328e-05
1.84949e-05
1.85124e-05
1.84713e-05
1.84637e-05
1.84839e-05
1.84772e-05
1.85135e-05
1.849e-05
1.86633e-05
1.87316e-05
1.96854e-05
1.96034e-05
2.97831e-05
1.90701e-05
1.96209e-05
1.87026e-05
1.83786e-05
1.79509e-05
1.78743e-05
1.78549e-05
1.78121e-05
1.78327e-05
1.77891e-05
1.77836e-05
1.78041e-05
1.7796e-05
1.78351e-05
1.78121e-05
1.79821e-05
1.80418e-05
1.89553e-05
1.88152e-05
2.65012e-05
1.82959e-05
1.88295e-05
1.79884e-05
1.76812e-05
1.72668e-05
1.71958e-05
1.71765e-05
1.71294e-05
1.71528e-05
1.71069e-05
1.71034e-05
1.71237e-05
1.71146e-05
1.71562e-05
1.71337e-05
1.73002e-05
1.73513e-05
1.82238e-05
1.80321e-05
2.40636e-05
1.76406e-05
1.81131e-05
1.7268e-05
1.6978e-05
1.65784e-05
1.65122e-05
1.64929e-05
1.64425e-05
1.64685e-05
1.64204e-05
1.64185e-05
1.64381e-05
1.64287e-05
1.64726e-05
1.64503e-05
1.66128e-05
1.6655e-05
1.74881e-05
1.72857e-05
2.17978e-05
1.70281e-05
1.7379e-05
1.65394e-05
1.62646e-05
1.5882e-05
1.58196e-05
1.58006e-05
1.57476e-05
1.57761e-05
1.57261e-05
1.57255e-05
1.57432e-05
1.57348e-05
1.57805e-05
1.57583e-05
1.59164e-05
1.59489e-05
1.67462e-05
1.65366e-05
1.97359e-05
1.6411e-05
1.66234e-05
1.58022e-05
1.55377e-05
1.51752e-05
1.51159e-05
1.50972e-05
1.50427e-05
1.50733e-05
1.50217e-05
1.50221e-05
1.50367e-05
1.50307e-05
1.50778e-05
1.50552e-05
1.52079e-05
1.52303e-05
1.59979e-05
1.57813e-05
1.82728e-05
1.57636e-05
1.58442e-05
1.50188e-05
1.47963e-05
1.44315e-05
1.43748e-05
1.43565e-05
1.42958e-05
1.4331e-05
1.42753e-05
1.42789e-05
1.43174e-05
1.42863e-05
1.43373e-05
1.43155e-05
1.44704e-05
1.44982e-05
1.52466e-05
1.50163e-05
1.69781e-05
1.50756e-05
1.50435e-05
1.41885e-05
1.40423e-05
1.36968e-05
1.3643e-05
1.36253e-05
1.35639e-05
1.3601e-05
1.35441e-05
1.35487e-05
1.35871e-05
1.35555e-05
1.36071e-05
1.35851e-05
1.37339e-05
1.37546e-05
1.43989e-05
1.42087e-05
1.585e-05
1.43474e-05
1.42282e-05
1.3408e-05
1.32792e-05
1.29534e-05
1.29029e-05
1.2886e-05
1.28247e-05
1.28631e-05
1.28055e-05
1.28109e-05
1.28491e-05
1.28172e-05
1.28689e-05
1.28468e-05
1.29894e-05
1.30034e-05
1.36155e-05
1.34271e-05
1.48262e-05
1.35856e-05
1.34036e-05
1.26224e-05
1.25113e-05
1.22058e-05
1.21588e-05
1.21428e-05
1.20822e-05
1.21216e-05
1.20638e-05
1.20696e-05
1.21074e-05
1.20754e-05
1.21268e-05
1.21047e-05
1.22406e-05
1.22491e-05
1.28263e-05
1.26467e-05
1.38732e-05
1.28003e-05
1.25762e-05
1.18367e-05
1.17433e-05
1.14582e-05
1.14147e-05
1.13998e-05
1.13403e-05
1.13804e-05
1.13226e-05
1.13289e-05
1.1366e-05
1.13342e-05
1.13847e-05
1.13629e-05
1.14914e-05
1.14962e-05
1.20356e-05
1.18708e-05
1.2968e-05
1.05916e-05
1.06278e-05
1.05963e-05
1.06455e-05
1.06243e-05
1.07447e-05
1.07476e-05
1.12468e-05
1.11027e-05
1.20955e-05
)
;

boundaryField
{
    fuel
    {
        type            fixedValue;
        value           nonuniform 0();
    }
    wall
    {
        type            zeroGradient;
    }
    outlet
    {
        type            zeroGradient;
    }
    frontAndBack
    {
        type            empty;
    }
    procBoundary0to1
    {
        type            processor;
        value           nonuniform List<scalar> 
21
(
1.20004e-05
1.17501e-05
1.10551e-05
1.09782e-05
1.07137e-05
1.06738e-05
1.06595e-05
1.06019e-05
1.06422e-05
1.0585e-05
1.0585e-05
9.86022e-06
9.89525e-06
9.86445e-06
9.91178e-06
9.89134e-06
1.00039e-05
1.00055e-05
1.04642e-05
1.03432e-05
1.12506e-05
)
;
    }
    procBoundary0to2
    {
        type            processor;
        value           nonuniform List<scalar> 
12
(
1.98561e-05
2.14546e-05
2.10354e-05
2.01179e-05
1.97746e-05
1.93229e-05
1.92342e-05
1.92148e-05
1.91828e-05
1.91971e-05
1.91587e-05
1.91587e-05
)
;
    }
    procBoundary0to3
    {
        type            processor;
        value           nonuniform List<scalar> 10(2.05518e-05 2.05688e-05 2.05691e-05 2.05954e-05 2.05703e-05 2.0752e-05 2.08455e-05 2.20401e-05 2.20704e-05 4.38383e-05);
    }
}


// ************************************************************************* //
