/*--------------------------------*- C++ -*----------------------------------*\
| =========                 |                                                 |
| \\      /  F ield         | OpenFOAM: The Open Source CFD Toolbox           |
|  \\    /   O peration     | Version:  dev                                   |
|   \\  /    A nd           | Web:      www.OpenFOAM.org                      |
|    \\/     M anipulation  |                                                 |
\*---------------------------------------------------------------------------*/
FoamFile
{
    version     2.0;
    format      ascii;
    class       volScalarField;
    location    "0.16";
    object      n-C6H5;
}
// * * * * * * * * * * * * * * * * * * * * * * * * * * * * * * * * * * * * * //

dimensions      [0 0 0 0 0 0 0];

internalField   nonuniform List<scalar> 
250
(
5.04396e-11
5.07076e-11
5.05932e-11
5.08502e-11
5.0902e-11
5.16028e-11
5.45005e-11
5.8449e-11
7.51715e-11
3.39516e-11
4.64227e-11
4.66881e-11
4.65494e-11
4.68439e-11
4.68919e-11
4.75133e-11
5.02317e-11
5.3433e-11
6.80553e-11
3.76126e-11
1.1322e-10
6.22306e-11
5.36193e-11
4.36701e-11
4.43179e-11
4.25436e-11
4.30329e-11
4.25935e-11
4.26889e-11
4.2522e-11
4.25586e-11
4.28325e-11
4.26736e-11
4.29984e-11
4.30424e-11
4.36008e-11
4.61331e-11
4.88766e-11
6.15817e-11
3.99811e-11
9.80682e-11
5.42412e-11
4.86694e-11
3.97674e-11
4.04897e-11
3.87989e-11
3.92678e-11
3.88271e-11
3.89375e-11
3.87718e-11
3.87879e-11
3.90716e-11
3.88947e-11
3.92443e-11
3.92844e-11
3.97922e-11
4.21355e-11
4.44575e-11
5.50255e-11
4.09349e-11
8.41933e-11
4.69433e-11
4.38521e-11
3.58851e-11
3.6695e-11
3.5071e-11
3.55285e-11
3.50815e-11
3.52068e-11
3.50402e-11
3.50404e-11
3.53345e-11
3.51401e-11
3.5511e-11
3.55469e-11
3.60126e-11
3.8169e-11
4.01033e-11
4.86444e-11
4.05141e-11
7.27903e-11
4.01001e-11
3.91155e-11
3.19611e-11
3.28667e-11
3.12943e-11
3.17486e-11
3.12907e-11
3.14308e-11
3.12615e-11
3.12498e-11
3.15553e-11
3.13434e-11
3.1733e-11
3.17642e-11
3.21933e-11
3.41681e-11
3.57494e-11
4.32015e-11
3.88648e-11
6.17397e-11
3.37238e-11
3.44161e-11
2.79533e-11
2.89495e-11
2.74227e-11
2.78802e-11
2.74087e-11
2.75627e-11
2.73899e-11
2.73692e-11
2.76863e-11
2.74576e-11
2.78631e-11
2.78888e-11
2.82849e-11
3.00813e-11
3.1347e-11
3.78812e-11
3.61466e-11
4.99376e-11
2.77674e-11
2.97333e-11
2.38574e-11
2.49183e-11
2.34483e-11
2.39121e-11
2.34274e-11
2.35929e-11
2.34179e-11
2.33905e-11
2.37163e-11
2.34736e-11
2.38913e-11
2.39105e-11
2.42771e-11
2.58873e-11
2.68897e-11
3.26041e-11
3.25378e-11
4.13679e-11
2.22423e-11
2.5094e-11
1.97238e-11
2.07933e-11
1.94187e-11
1.9817e-11
1.93947e-11
1.95665e-11
1.9393e-11
1.93614e-11
1.96883e-11
1.94384e-11
1.97968e-11
1.98053e-11
2.00998e-11
2.1621e-11
2.214e-11
2.73445e-11
2.82403e-11
3.15321e-11
1.71059e-11
1.99389e-11
1.56659e-11
1.67014e-11
1.54474e-11
1.58278e-11
1.54227e-11
1.55924e-11
1.54269e-11
1.53935e-11
1.57092e-11
1.54629e-11
1.5806e-11
1.58073e-11
1.60612e-11
1.73863e-11
1.75939e-11
2.21682e-11
2.34971e-11
2.39609e-11
1.26776e-11
1.55082e-11
1.18516e-11
1.2794e-11
1.16995e-11
1.20427e-11
1.16764e-11
1.18341e-11
1.16844e-11
1.16518e-11
1.19407e-11
1.17117e-11
1.2022e-11
1.20176e-11
1.22259e-11
1.33408e-11
1.34054e-11
1.72147e-11
1.86005e-11
1.73246e-11
8.93187e-12
1.14386e-11
8.46366e-12
9.25906e-12
8.36079e-12
8.64922e-12
8.34082e-12
8.47712e-12
8.35044e-12
8.32124e-12
8.56842e-12
8.36992e-12
8.63206e-12
8.62397e-12
8.78493e-12
9.67631e-12
9.64657e-12
1.2677e-11
1.38804e-11
1.18076e-11
5.92692e-12
7.91752e-12
5.65705e-12
6.27211e-12
5.58951e-12
5.81226e-12
5.57375e-12
5.68185e-12
5.58305e-12
5.55901e-12
5.75413e-12
5.59572e-12
5.80001e-12
5.79057e-12
5.90621e-12
6.57302e-12
6.4971e-12
8.76276e-12
9.68804e-12
3.45039e-12
3.59075e-12
3.47573e-12
3.62068e-12
3.61202e-12
3.68926e-12
4.14698e-12
4.0641e-12
5.63129e-12
6.26773e-12
)
;

boundaryField
{
    fuel
    {
        type            fixedValue;
        value           nonuniform 0();
    }
    wall
    {
        type            zeroGradient;
    }
    outlet
    {
        type            zeroGradient;
    }
    frontAndBack
    {
        type            empty;
    }
    procBoundary0to1
    {
        type            processor;
        value           nonuniform List<scalar> 
21
(
7.5355e-12
3.67503e-12
5.09785e-12
3.51342e-12
3.94762e-12
3.47134e-12
3.62873e-12
3.46038e-12
3.53864e-12
3.46815e-12
3.46815e-12
1.98771e-12
2.07828e-12
2.00348e-12
2.09557e-12
2.08919e-12
2.13576e-12
2.42108e-12
2.35389e-12
3.34081e-12
3.73284e-12
)
;
    }
    procBoundary0to2
    {
        type            processor;
        value           nonuniform List<scalar> 
12
(
5.03582e-11
1.28353e-10
7.07601e-11
5.87835e-11
4.76564e-11
4.82548e-11
4.63739e-11
4.68974e-11
4.64509e-11
4.65322e-11
4.63608e-11
4.63608e-11
)
;
    }
    procBoundary0to3
    {
        type            processor;
        value           nonuniform List<scalar> 10(5.4638e-11 5.49531e-11 5.48683e-11 5.50791e-11 5.51345e-11 5.59187e-11 5.90164e-11 6.34827e-11 8.2916e-11 2.92518e-11);
    }
}


// ************************************************************************* //
