/*--------------------------------*- C++ -*----------------------------------*\
| =========                 |                                                 |
| \\      /  F ield         | OpenFOAM: The Open Source CFD Toolbox           |
|  \\    /   O peration     | Version:  dev                                   |
|   \\  /    A nd           | Web:      www.OpenFOAM.org                      |
|    \\/     M anipulation  |                                                 |
\*---------------------------------------------------------------------------*/
FoamFile
{
    version     2.0;
    format      ascii;
    class       volScalarField;
    location    "0.16";
    object      O2;
}
// * * * * * * * * * * * * * * * * * * * * * * * * * * * * * * * * * * * * * //

dimensions      [0 0 0 0 0 0 0];

internalField   nonuniform List<scalar> 
250
(
3.11953e-08
3.12869e-08
3.12509e-08
3.14192e-08
3.12822e-08
3.16215e-08
3.10594e-08
9.592e-08
4.56593e-06
0.000256057
2.82171e-08
2.83134e-08
2.82661e-08
2.84511e-08
2.83151e-08
2.86996e-08
2.81049e-08
8.07415e-08
3.51898e-06
0.000191451
2.03257e-05
6.50755e-07
3.35133e-08
2.60229e-08
2.55393e-08
2.55189e-08
2.5475e-08
2.52629e-08
2.5387e-08
2.51788e-08
2.51776e-08
2.52759e-08
2.52208e-08
2.54173e-08
2.52837e-08
2.57032e-08
2.51122e-08
6.7376e-08
2.67692e-06
0.000141029
1.16226e-05
4.0114e-07
2.74427e-08
2.30353e-08
2.24885e-08
2.24638e-08
2.24176e-08
2.21976e-08
2.23304e-08
2.21186e-08
2.21215e-08
2.22185e-08
2.21593e-08
2.23613e-08
2.22319e-08
2.26727e-08
2.21146e-08
5.5816e-08
2.00997e-06
0.000102198
6.55869e-06
2.38935e-07
2.25222e-08
2.00613e-08
1.94706e-08
1.94426e-08
1.9396e-08
1.91765e-08
1.93129e-08
1.91033e-08
1.91089e-08
1.9201e-08
1.91414e-08
1.93425e-08
1.92192e-08
1.96651e-08
1.9162e-08
4.59595e-08
1.49226e-06
7.51484e-05
3.67316e-06
1.49283e-07
1.84823e-08
1.71618e-08
1.65547e-08
1.65246e-08
1.64797e-08
1.62685e-08
1.64035e-08
1.62021e-08
1.62092e-08
1.62923e-08
1.62365e-08
1.64302e-08
1.6315e-08
1.67491e-08
1.63146e-08
3.76642e-08
1.10428e-06
5.22502e-05
2.04956e-06
9.40134e-08
1.50923e-08
1.4405e-08
1.38137e-08
1.37824e-08
1.37411e-08
1.35457e-08
1.3674e-08
1.34869e-08
1.34944e-08
1.35636e-08
1.3517e-08
1.36969e-08
1.35914e-08
1.3997e-08
1.36373e-08
3.07152e-08
8.0753e-07
3.41557e-05
1.14309e-06
5.99261e-08
1.22289e-08
1.18585e-08
1.1316e-08
1.12843e-08
1.12479e-08
1.10748e-08
1.11918e-08
1.10242e-08
1.10312e-08
1.10802e-08
1.10495e-08
1.12101e-08
1.11154e-08
1.14773e-08
1.1192e-08
2.49575e-08
5.91932e-07
2.33468e-05
6.39217e-07
3.87787e-08
9.71735e-09
9.58147e-09
9.04304e-09
9.01204e-09
8.98072e-09
8.81945e-09
8.92876e-09
8.77712e-09
8.78936e-09
8.89319e-09
8.80247e-09
8.94788e-09
8.86926e-09
9.20028e-09
9.02874e-09
2.02548e-08
4.3495e-07
1.56694e-05
3.59501e-07
2.55241e-08
7.55639e-09
7.61781e-09
7.15865e-09
7.13045e-09
7.10494e-09
6.97035e-09
7.06356e-09
6.93599e-09
6.94701e-09
7.03403e-09
6.95711e-09
7.07825e-09
7.01271e-09
7.28682e-09
7.18039e-09
1.6042e-08
3.17467e-07
1.05072e-05
2.03938e-07
1.71173e-08
5.92296e-09
5.98508e-09
5.6082e-09
5.58389e-09
5.56389e-09
5.45507e-09
5.53189e-09
5.42789e-09
5.43735e-09
5.50785e-09
5.44493e-09
5.54259e-09
5.48975e-09
5.70915e-09
5.65645e-09
1.29089e-08
2.34849e-07
7.02971e-06
1.17017e-07
1.17271e-08
4.63225e-09
4.67419e-09
4.37436e-09
4.35417e-09
4.33898e-09
4.25322e-09
4.31479e-09
4.23216e-09
4.24002e-09
4.29557e-09
4.24558e-09
4.32207e-09
4.28083e-09
4.45089e-09
4.44016e-09
1.03835e-08
1.74474e-07
4.70216e-06
6.8106e-08
8.25301e-09
3.64242e-09
3.6538e-09
3.42014e-09
3.40357e-09
3.39228e-09
3.32583e-09
3.37424e-09
3.30968e-09
3.31611e-09
3.35902e-09
3.32015e-09
3.37871e-09
3.34746e-09
3.4757e-09
3.4955e-09
8.35922e-09
1.29923e-07
3.14678e-06
2.61626e-09
2.6491e-09
2.61924e-09
2.66342e-09
2.64038e-09
2.73504e-09
2.775e-09
6.73387e-09
9.664e-08
2.10262e-06
)
;

boundaryField
{
    fuel
    {
        type            fixedValue;
        value           nonuniform 0();
    }
    wall
    {
        type            zeroGradient;
    }
    outlet
    {
        type            inletOutlet;
        inletValue      uniform 0;
        value           nonuniform List<scalar> 
25
(
2.03257e-05
1.16226e-05
6.55869e-06
3.67316e-06
2.04956e-06
1.14309e-06
6.39217e-07
3.59501e-07
2.03938e-07
1.17017e-07
6.8106e-08
0.000256057
0.000191451
0.000141029
0.000102198
7.51484e-05
5.22502e-05
3.41557e-05
2.33468e-05
1.56694e-05
1.05072e-05
7.02971e-06
4.70216e-06
3.14678e-06
2.10262e-06
)
;
    }
    frontAndBack
    {
        type            empty;
    }
    procBoundary0to1
    {
        type            processor;
        value           nonuniform List<scalar> 
21
(
4.06907e-08
6.0454e-09
2.90362e-09
2.87757e-09
2.69655e-09
2.68285e-09
2.67446e-09
2.62331e-09
2.66107e-09
2.61091e-09
2.61091e-09
2.08922e-09
2.11442e-09
2.09148e-09
2.12477e-09
2.10799e-09
2.17751e-09
2.22818e-09
5.42671e-09
7.16656e-08
1.40153e-06
)
;
    }
    procBoundary0to2
    {
        type            processor;
        value           nonuniform List<scalar> 
12
(
3.12088e-08
3.50776e-05
1.03658e-06
4.12518e-08
2.89752e-08
2.85628e-08
2.85476e-08
2.8508e-08
2.83122e-08
2.84227e-08
2.82236e-08
2.82236e-08
)
;
    }
    procBoundary0to3
    {
        type            processor;
        value           nonuniform List<scalar> 10(3.40871e-08 3.41719e-08 3.41517e-08 3.43e-08 3.41601e-08 3.4456e-08 3.39554e-08 1.15354e-07 5.78317e-06 0.000320066);
    }
}


// ************************************************************************* //
