/*--------------------------------*- C++ -*----------------------------------*\
| =========                 |                                                 |
| \\      /  F ield         | OpenFOAM: The Open Source CFD Toolbox           |
|  \\    /   O peration     | Version:  dev                                   |
|   \\  /    A nd           | Web:      www.OpenFOAM.org                      |
|    \\/     M anipulation  |                                                 |
\*---------------------------------------------------------------------------*/
FoamFile
{
    version     2.0;
    format      ascii;
    class       volScalarField;
    location    "0.16";
    object      P2-;
}
// * * * * * * * * * * * * * * * * * * * * * * * * * * * * * * * * * * * * * //

dimensions      [0 0 0 0 0 0 0];

internalField   nonuniform List<scalar> 
250
(
3.99908e-12
4.00347e-12
4.00674e-12
4.01285e-12
4.00816e-12
4.13249e-12
4.46232e-12
6.93011e-12
2.36616e-11
2.71037e-10
3.75997e-12
3.76409e-12
3.76659e-12
3.77217e-12
3.7691e-12
3.87893e-12
4.17963e-12
6.3315e-12
1.97526e-11
2.06448e-10
1.7866e-11
1.4522e-11
5.32437e-12
4.03275e-12
3.66483e-12
3.59589e-12
3.58471e-12
3.58181e-12
3.5793e-12
3.57335e-12
3.56658e-12
3.57027e-12
3.57232e-12
3.57721e-12
3.57566e-12
3.67219e-12
3.94585e-12
5.81087e-12
1.65057e-11
1.57639e-10
1.57868e-11
1.19036e-11
4.91849e-12
3.82773e-12
3.50074e-12
3.43867e-12
3.42824e-12
3.42463e-12
3.42198e-12
3.41688e-12
3.41157e-12
3.41479e-12
3.41657e-12
3.42079e-12
3.42054e-12
3.50519e-12
3.75327e-12
5.3601e-12
1.38122e-11
1.2001e-10
1.38499e-11
9.77875e-12
4.58057e-12
3.6583e-12
3.36778e-12
3.31166e-12
3.30181e-12
3.29761e-12
3.29491e-12
3.29046e-12
3.28634e-12
3.28918e-12
3.2907e-12
3.29451e-12
3.29527e-12
3.36969e-12
3.59296e-12
4.96945e-12
1.15846e-11
9.31334e-11
1.21087e-11
8.32423e-12
4.2948e-12
3.51383e-12
3.25541e-12
3.20433e-12
3.19491e-12
3.18995e-12
3.1875e-12
3.18324e-12
3.18009e-12
3.18274e-12
3.18393e-12
3.18781e-12
3.18914e-12
3.25535e-12
3.45381e-12
4.62713e-12
9.80565e-12
6.9219e-11
1.05721e-11
7.18754e-12
4.04155e-12
3.38082e-12
3.15015e-12
3.10335e-12
3.09421e-12
3.08803e-12
3.08635e-12
3.08156e-12
3.07924e-12
3.08192e-12
3.08267e-12
3.08733e-12
3.08867e-12
3.14898e-12
3.32189e-12
4.3184e-12
8.31493e-12
4.8945e-11
9.22383e-12
6.27276e-12
3.80003e-12
3.24278e-12
3.03596e-12
2.99288e-12
2.98388e-12
2.9759e-12
2.97568e-12
2.96948e-12
2.96785e-12
2.97047e-12
2.97098e-12
2.97723e-12
2.9779e-12
3.03467e-12
3.18069e-12
4.02646e-12
7.06057e-12
3.59569e-11
8.02919e-12
5.50269e-12
3.53997e-12
3.082e-12
2.89153e-12
2.85224e-12
2.84327e-12
2.83207e-12
2.8345e-12
2.82549e-12
2.82484e-12
2.83113e-12
2.82766e-12
2.83678e-12
2.8362e-12
2.89279e-12
3.01278e-12
3.73456e-12
5.97973e-12
2.59476e-11
6.94623e-12
4.81728e-12
3.23861e-12
2.88193e-12
2.70633e-12
2.67089e-12
2.662e-12
2.64767e-12
2.65311e-12
2.64087e-12
2.64095e-12
2.64903e-12
2.64356e-12
2.65577e-12
2.65331e-12
2.7105e-12
2.80324e-12
3.3955e-12
4.99564e-12
1.86426e-11
5.93729e-12
4.17462e-12
2.9107e-12
2.63199e-12
2.46942e-12
2.43811e-12
2.42943e-12
2.41202e-12
2.4207e-12
2.40505e-12
2.40582e-12
2.416e-12
2.40819e-12
2.42352e-12
2.41896e-12
2.47718e-12
2.54415e-12
3.04699e-12
4.14383e-12
1.3293e-11
4.97883e-12
3.55055e-12
2.54031e-12
2.33182e-12
2.18277e-12
2.15589e-12
2.14766e-12
2.12793e-12
2.13949e-12
2.12098e-12
2.12231e-12
2.13426e-12
2.12438e-12
2.14219e-12
2.13568e-12
2.19387e-12
2.23805e-12
2.6624e-12
3.37487e-12
9.40071e-12
4.06695e-12
2.94064e-12
2.14118e-12
1.99314e-12
1.85976e-12
1.83751e-12
1.82999e-12
1.80927e-12
1.82277e-12
1.80262e-12
1.80432e-12
1.81725e-12
1.80604e-12
1.82507e-12
1.81719e-12
1.87309e-12
1.89883e-12
2.25187e-12
2.68405e-12
6.58227e-12
1.47379e-12
1.48668e-12
1.47511e-12
1.49386e-12
1.48544e-12
1.53635e-12
1.54876e-12
1.835e-12
2.07546e-12
4.55002e-12
)
;

boundaryField
{
    fuel
    {
        type            fixedValue;
        value           nonuniform 0();
    }
    wall
    {
        type            zeroGradient;
    }
    outlet
    {
        type            zeroGradient;
    }
    frontAndBack
    {
        type            empty;
    }
    procBoundary0to1
    {
        type            processor;
        value           nonuniform List<scalar> 
21
(
3.21495e-12
2.35613e-12
1.73621e-12
1.63732e-12
1.52232e-12
1.50472e-12
1.49806e-12
1.47795e-12
1.49209e-12
1.47193e-12
1.47193e-12
1.15474e-12
1.16668e-12
1.15569e-12
1.17284e-12
1.16463e-12
1.20866e-12
1.21208e-12
1.437e-12
1.55467e-12
3.09704e-12
)
;
    }
    procBoundary0to2
    {
        type            processor;
        value           nonuniform List<scalar> 
12
(
4.00991e-12
1.99911e-11
1.77803e-11
5.81224e-12
4.28181e-12
3.86809e-12
3.79162e-12
3.77951e-12
3.77777e-12
3.77528e-12
3.76854e-12
3.76854e-12
)
;
    }
    procBoundary0to3
    {
        type            processor;
        value           nonuniform List<scalar> 10(4.29088e-12 4.2953e-12 4.29986e-12 4.30621e-12 4.29971e-12 4.44017e-12 4.80107e-12 7.73722e-12 2.83042e-11 3.41672e-10);
    }
}


// ************************************************************************* //
