/*--------------------------------*- C++ -*----------------------------------*\
| =========                 |                                                 |
| \\      /  F ield         | OpenFOAM: The Open Source CFD Toolbox           |
|  \\    /   O peration     | Version:  dev                                   |
|   \\  /    A nd           | Web:      www.OpenFOAM.org                      |
|    \\/     M anipulation  |                                                 |
\*---------------------------------------------------------------------------*/
FoamFile
{
    version     2.0;
    format      ascii;
    class       volScalarField;
    location    "0.16";
    object      P2-H;
}
// * * * * * * * * * * * * * * * * * * * * * * * * * * * * * * * * * * * * * //

dimensions      [0 0 0 0 0 0 0];

internalField   nonuniform List<scalar> 
250
(
7.37299e-17
7.37386e-17
7.38358e-17
7.38056e-17
7.38047e-17
7.58711e-17
8.30189e-17
1.328e-16
5.55288e-16
1.12375e-14
7.16474e-17
7.16435e-17
7.17379e-17
7.16756e-17
7.17139e-17
7.3498e-17
8.02525e-17
1.24242e-16
4.6829e-16
8.22629e-15
6.10897e-16
3.37183e-16
1.07927e-16
7.91894e-17
7.2291e-17
7.09287e-17
7.07555e-17
7.09108e-17
7.07313e-17
7.08175e-17
7.06744e-17
7.06542e-17
7.0752e-17
7.06518e-17
7.07301e-17
7.22491e-17
7.86627e-17
1.17429e-16
3.97237e-16
6.04605e-15
5.1309e-16
2.796e-16
1.03629e-16
7.83847e-17
7.2207e-17
7.09433e-17
7.07848e-17
7.09563e-17
7.07464e-17
7.08768e-17
7.07557e-17
7.07175e-17
7.08222e-17
7.06815e-17
7.07996e-17
7.20729e-17
7.81843e-17
1.12258e-16
3.3952e-16
4.44388e-15
4.34967e-16
2.34884e-16
1.00994e-16
7.86544e-17
7.31234e-17
7.19416e-17
7.1794e-17
7.19858e-17
7.17436e-17
7.19191e-17
7.18153e-17
7.17596e-17
7.18722e-17
7.16927e-17
7.18486e-17
7.29007e-17
7.8731e-17
1.08602e-16
2.92984e-16
3.3558e-15
3.73468e-16
2.06082e-16
9.9793e-17
7.9879e-17
7.49197e-17
7.38027e-17
7.36621e-17
7.38711e-17
7.35994e-17
7.38149e-17
7.37248e-17
7.36555e-17
7.37741e-17
7.35634e-17
7.37525e-17
7.46169e-17
8.01635e-17
1.06286e-16
2.57015e-16
2.43597e-15
3.25417e-16
1.85249e-16
9.96974e-17
8.18574e-17
7.73882e-17
7.63216e-17
7.61832e-17
7.6398e-17
7.61061e-17
7.63483e-17
7.62696e-17
7.61923e-17
7.63131e-17
7.60865e-17
7.62999e-17
7.70232e-17
8.22552e-17
1.05055e-16
2.27884e-16
1.69669e-15
2.87931e-16
1.70071e-16
1.00286e-16
8.42733e-17
8.02063e-17
7.91785e-17
7.90368e-17
7.92376e-17
7.89423e-17
7.91887e-17
7.91199e-17
7.90392e-17
7.91596e-17
7.89404e-17
7.91641e-17
7.98074e-17
8.46623e-17
1.04559e-16
2.0422e-16
1.2457e-15
2.5834e-16
1.58663e-16
1.01053e-16
8.66877e-17
8.29843e-17
8.19974e-17
8.18476e-17
8.20222e-17
8.17407e-17
8.19676e-17
8.19018e-17
8.17402e-17
8.19414e-17
8.1752e-17
8.19613e-17
8.25691e-17
8.69171e-17
1.04356e-16
1.84407e-16
9.10539e-16
2.3419e-16
1.49427e-16
1.01258e-16
8.85417e-17
8.49945e-17
8.40493e-17
8.38869e-17
8.39826e-17
8.37555e-17
8.39157e-17
8.38636e-17
8.3748e-17
8.39026e-17
8.37877e-17
8.39648e-17
8.4643e-17
8.8463e-17
1.03789e-16
1.66479e-16
6.72818e-16
2.13327e-16
1.41027e-16
1.00269e-16
8.92562e-17
8.577e-17
8.48734e-17
8.46971e-17
8.46854e-17
8.45423e-17
8.46016e-17
8.45658e-17
8.45196e-17
8.46049e-17
8.45934e-17
8.4717e-17
8.55235e-17
8.87533e-17
1.02335e-16
1.50735e-16
5.0186e-16
1.94029e-16
1.32429e-16
9.7665e-17
8.8357e-17
8.48842e-17
8.40472e-17
8.38599e-17
8.37256e-17
8.36865e-17
8.36232e-17
8.36052e-17
8.36416e-17
8.36438e-17
8.37515e-17
8.38067e-17
8.477e-17
8.73786e-17
9.94957e-17
1.35843e-16
3.78301e-16
1.75154e-16
1.22995e-16
9.32551e-17
8.56114e-17
8.2163e-17
8.13986e-17
8.12065e-17
8.0953e-17
8.10232e-17
8.08345e-17
8.08335e-17
8.0953e-17
8.08698e-17
8.10944e-17
8.10767e-17
8.21849e-17
8.41879e-17
9.50171e-17
1.21431e-16
2.88223e-16
7.6414e-17
7.66038e-17
7.64458e-17
7.67661e-17
7.66838e-17
7.78861e-17
7.93491e-17
8.89544e-17
1.07482e-16
2.21797e-16
)
;

boundaryField
{
    fuel
    {
        type            fixedValue;
        value           nonuniform 0();
    }
    wall
    {
        type            zeroGradient;
    }
    outlet
    {
        type            zeroGradient;
    }
    frontAndBack
    {
        type            empty;
    }
    procBoundary0to1
    {
        type            processor;
        value           nonuniform List<scalar> 
21
(
1.56186e-16
1.12531e-16
8.71883e-17
8.11077e-17
7.77477e-17
7.7068e-17
7.68782e-17
7.65281e-17
7.66954e-17
7.63995e-17
7.63995e-17
7.07767e-17
7.1016e-17
7.08022e-17
7.11869e-17
7.10543e-17
7.22886e-17
7.32973e-17
8.17011e-17
9.4203e-17
1.7237e-16
)
;
    }
    procBoundary0to2
    {
        type            processor;
        value           nonuniform List<scalar> 
12
(
7.39375e-17
7.31745e-16
4.11684e-16
1.14079e-16
8.1143e-17
7.34414e-17
7.19682e-17
7.17767e-17
7.19256e-17
7.17712e-17
7.18187e-17
7.18187e-17
)
;
    }
    procBoundary0to3
    {
        type            processor;
        value           nonuniform List<scalar> 10(7.69803e-17 7.69963e-17 7.71054e-17 7.70995e-17 7.70596e-17 7.94308e-17 8.70275e-17 1.45132e-16 6.60074e-16 1.46031e-14);
    }
}


// ************************************************************************* //
