/*--------------------------------*- C++ -*----------------------------------*\
| =========                 |                                                 |
| \\      /  F ield         | OpenFOAM: The Open Source CFD Toolbox           |
|  \\    /   O peration     | Version:  dev                                   |
|   \\  /    A nd           | Web:      www.OpenFOAM.org                      |
|    \\/     M anipulation  |                                                 |
\*---------------------------------------------------------------------------*/
FoamFile
{
    version     2.0;
    format      ascii;
    class       volScalarField;
    location    "0.16";
    object      PC3H4;
}
// * * * * * * * * * * * * * * * * * * * * * * * * * * * * * * * * * * * * * //

dimensions      [0 0 0 0 0 0 0];

internalField   nonuniform List<scalar> 
250
(
1.26874e-07
1.27e-07
1.27006e-07
1.27091e-07
1.27179e-07
1.2804e-07
1.31767e-07
1.40348e-07
1.69502e-07
1.78161e-07
1.24589e-07
1.24703e-07
1.24699e-07
1.24803e-07
1.24886e-07
1.25677e-07
1.29225e-07
1.37107e-07
1.63842e-07
1.75201e-07
3.48227e-07
1.63277e-07
1.39421e-07
1.25691e-07
1.24027e-07
1.22613e-07
1.22845e-07
1.22642e-07
1.22632e-07
1.22567e-07
1.22621e-07
1.22729e-07
1.22719e-07
1.22835e-07
1.22915e-07
1.23648e-07
1.26998e-07
1.34372e-07
1.58817e-07
1.71953e-07
3.13542e-07
1.57278e-07
1.36361e-07
1.23865e-07
1.22225e-07
1.2096e-07
1.21148e-07
1.20971e-07
1.20961e-07
1.20907e-07
1.20943e-07
1.21045e-07
1.21032e-07
1.21156e-07
1.21232e-07
1.21918e-07
1.25057e-07
1.31943e-07
1.53868e-07
1.68524e-07
2.806e-07
1.51923e-07
1.33581e-07
1.22274e-07
1.20679e-07
1.19549e-07
1.197e-07
1.19545e-07
1.19535e-07
1.1949e-07
1.19513e-07
1.19608e-07
1.19593e-07
1.19721e-07
1.19794e-07
1.20442e-07
1.23361e-07
1.29778e-07
1.49232e-07
1.6501e-07
2.54426e-07
1.4701e-07
1.31054e-07
1.20864e-07
1.19338e-07
1.18324e-07
1.18445e-07
1.18306e-07
1.18297e-07
1.18259e-07
1.18271e-07
1.18362e-07
1.18343e-07
1.18475e-07
1.18546e-07
1.1916e-07
1.21863e-07
1.27829e-07
1.45535e-07
1.61489e-07
2.31102e-07
1.42515e-07
1.28739e-07
1.19566e-07
1.18137e-07
1.17213e-07
1.17315e-07
1.17183e-07
1.17178e-07
1.17144e-07
1.17147e-07
1.17236e-07
1.17213e-07
1.17349e-07
1.17418e-07
1.18005e-07
1.20497e-07
1.2603e-07
1.42167e-07
1.57969e-07
2.08658e-07
1.38332e-07
1.26583e-07
1.183e-07
1.16996e-07
1.16136e-07
1.1623e-07
1.16095e-07
1.16096e-07
1.16062e-07
1.16058e-07
1.16151e-07
1.1612e-07
1.16265e-07
1.16331e-07
1.16898e-07
1.19186e-07
1.24305e-07
1.39027e-07
1.54427e-07
1.93838e-07
1.34365e-07
1.24522e-07
1.16976e-07
1.15821e-07
1.14998e-07
1.15079e-07
1.1495e-07
1.14961e-07
1.14921e-07
1.14911e-07
1.15015e-07
1.1497e-07
1.15113e-07
1.15175e-07
1.15712e-07
1.17845e-07
1.22446e-07
1.36002e-07
1.50811e-07
1.77965e-07
1.30411e-07
1.2215e-07
1.15496e-07
1.14517e-07
1.13702e-07
1.13796e-07
1.13646e-07
1.13671e-07
1.13623e-07
1.13605e-07
1.13728e-07
1.13665e-07
1.13825e-07
1.13882e-07
1.14396e-07
1.16384e-07
1.20503e-07
1.32978e-07
1.47046e-07
1.66069e-07
1.26549e-07
1.19885e-07
1.13757e-07
1.12976e-07
1.1214e-07
1.12256e-07
1.12077e-07
1.1212e-07
1.12059e-07
1.12035e-07
1.12184e-07
1.12096e-07
1.12279e-07
1.12331e-07
1.12819e-07
1.14693e-07
1.18375e-07
1.29834e-07
1.43036e-07
1.55363e-07
1.22572e-07
1.17368e-07
1.11649e-07
1.11082e-07
1.10201e-07
1.10347e-07
1.10133e-07
1.10197e-07
1.1012e-07
1.10089e-07
1.10271e-07
1.10151e-07
1.10364e-07
1.1041e-07
1.1087e-07
1.12659e-07
1.15898e-07
1.26444e-07
1.3867e-07
1.4554e-07
1.18347e-07
1.14469e-07
1.0906e-07
1.08715e-07
1.07771e-07
1.07954e-07
1.07698e-07
1.07788e-07
1.0769e-07
1.07652e-07
1.07873e-07
1.07718e-07
1.07966e-07
1.08003e-07
1.08436e-07
1.10162e-07
1.1296e-07
1.22677e-07
1.33865e-07
1.0461e-07
1.04877e-07
1.0468e-07
1.04968e-07
1.04995e-07
1.05405e-07
1.07077e-07
1.09444e-07
1.18405e-07
1.2851e-07
)
;

boundaryField
{
    fuel
    {
        type            fixedValue;
        value           nonuniform 0();
    }
    wall
    {
        type            zeroGradient;
    }
    outlet
    {
        type            zeroGradient;
    }
    frontAndBack
    {
        type            empty;
    }
    procBoundary0to1
    {
        type            processor;
        value           nonuniform List<scalar> 
21
(
1.36405e-07
1.13739e-07
1.11067e-07
1.05874e-07
1.05759e-07
1.04734e-07
1.04962e-07
1.04657e-07
1.04776e-07
1.04655e-07
1.04655e-07
1.00856e-07
1.01171e-07
1.00931e-07
1.01258e-07
1.01276e-07
1.01663e-07
1.03292e-07
1.0524e-07
1.13497e-07
1.22491e-07
)
;
    }
    procBoundary0to2
    {
        type            processor;
        value           nonuniform List<scalar> 
12
(
1.26786e-07
3.77462e-07
1.69754e-07
1.428e-07
1.27793e-07
1.26129e-07
1.24553e-07
1.24836e-07
1.24602e-07
1.24594e-07
1.24515e-07
1.24515e-07
)
;
    }
    procBoundary0to3
    {
        type            processor;
        value           nonuniform List<scalar> 10(1.29472e-07 1.29641e-07 1.29663e-07 1.29723e-07 1.29815e-07 1.30741e-07 1.34661e-07 1.43746e-07 1.75788e-07 1.80694e-07);
    }
}


// ************************************************************************* //
