/*--------------------------------*- C++ -*----------------------------------*\
| =========                 |                                                 |
| \\      /  F ield         | OpenFOAM: The Open Source CFD Toolbox           |
|  \\    /   O peration     | Version:  dev                                   |
|   \\  /    A nd           | Web:      www.OpenFOAM.org                      |
|    \\/     M anipulation  |                                                 |
\*---------------------------------------------------------------------------*/
FoamFile
{
    version     2.0;
    format      ascii;
    class       volScalarField;
    location    "0.085";
    object      A1;
}
// * * * * * * * * * * * * * * * * * * * * * * * * * * * * * * * * * * * * * //

dimensions      [0 0 0 0 0 0 0];

internalField   nonuniform List<scalar> 
25
(
4.41065e-09
5.02643e-09
5.67115e-09
6.33624e-09
7.01372e-09
7.69658e-09
8.37863e-09
9.05482e-09
9.72103e-09
1.03741e-08
1.10126e-08
1.16328e-08
1.22343e-08
1.28162e-08
1.33779e-08
1.39236e-08
1.44442e-08
1.49441e-08
1.54262e-08
1.58842e-08
1.6321e-08
1.6738e-08
1.71312e-08
1.7506e-08
1.78553e-08
)
;

boundaryField
{
    wall
    {
        type            zeroGradient;
    }
    fuel
    {
        type            fixedValue;
        value           nonuniform 0();
    }
    outlet
    {
        type            inletOutlet;
        inletValue      nonuniform 0();
        value           nonuniform 0();
    }
    procBoundary1to0
    {
        type            processor;
        value           uniform 3.83264e-09;
    }
    procBoundary1to2
    {
        type            processor;
        value           uniform 1.81828e-08;
    }
}


// ************************************************************************* //
