/*--------------------------------*- C++ -*----------------------------------*\
| =========                 |                                                 |
| \\      /  F ield         | OpenFOAM: The Open Source CFD Toolbox           |
|  \\    /   O peration     | Version:  dev                                   |
|   \\  /    A nd           | Web:      www.OpenFOAM.org                      |
|    \\/     M anipulation  |                                                 |
\*---------------------------------------------------------------------------*/
FoamFile
{
    version     2.0;
    format      ascii;
    class       volScalarField;
    location    "0.085";
    object      AC3H4;
}
// * * * * * * * * * * * * * * * * * * * * * * * * * * * * * * * * * * * * * //

dimensions      [0 0 0 0 0 0 0];

internalField   nonuniform List<scalar> 
25
(
3.8418e-09
3.69552e-09
3.56087e-09
3.43747e-09
3.32539e-09
3.22509e-09
3.13747e-09
3.06383e-09
3.006e-09
2.96633e-09
2.94764e-09
2.95335e-09
2.98717e-09
3.05263e-09
3.15348e-09
3.29399e-09
3.47407e-09
3.69583e-09
3.96064e-09
4.26381e-09
4.60448e-09
4.98125e-09
5.38731e-09
5.82512e-09
6.28297e-09
)
;

boundaryField
{
    wall
    {
        type            zeroGradient;
    }
    fuel
    {
        type            fixedValue;
        value           nonuniform 0();
    }
    outlet
    {
        type            inletOutlet;
        inletValue      nonuniform 0();
        value           nonuniform 0();
    }
    procBoundary1to0
    {
        type            processor;
        value           uniform 4.00074e-09;
    }
    procBoundary1to2
    {
        type            processor;
        value           uniform 6.76106e-09;
    }
}


// ************************************************************************* //
