/*--------------------------------*- C++ -*----------------------------------*\
| =========                 |                                                 |
| \\      /  F ield         | OpenFOAM: The Open Source CFD Toolbox           |
|  \\    /   O peration     | Version:  dev                                   |
|   \\  /    A nd           | Web:      www.OpenFOAM.org                      |
|    \\/     M anipulation  |                                                 |
\*---------------------------------------------------------------------------*/
FoamFile
{
    version     2.0;
    format      ascii;
    class       volScalarField;
    location    "0.085";
    object      i-C4H3;
}
// * * * * * * * * * * * * * * * * * * * * * * * * * * * * * * * * * * * * * //

dimensions      [0 0 0 0 0 0 0];

internalField   nonuniform List<scalar> 
25
(
1.32762e-14
8.24756e-15
5.39574e-15
3.70967e-15
2.66383e-15
1.97984e-15
1.5225e-15
1.19235e-15
9.45811e-16
7.57245e-16
6.10931e-16
4.96818e-16
4.08171e-16
3.40324e-16
2.9022e-16
2.55445e-16
2.36363e-16
2.34223e-16
2.50541e-16
2.88367e-16
3.5282e-16
4.5095e-16
5.81713e-16
7.54248e-16
9.77841e-16
)
;

boundaryField
{
    wall
    {
        type            zeroGradient;
    }
    fuel
    {
        type            fixedValue;
        value           nonuniform 0();
    }
    outlet
    {
        type            inletOutlet;
        inletValue      nonuniform 0();
        value           nonuniform 0();
    }
    procBoundary1to0
    {
        type            processor;
        value           uniform 2.24384e-14;
    }
    procBoundary1to2
    {
        type            processor;
        value           uniform 1.24606e-15;
    }
}


// ************************************************************************* //
