/*--------------------------------*- C++ -*----------------------------------*\
| =========                 |                                                 |
| \\      /  F ield         | OpenFOAM: The Open Source CFD Toolbox           |
|  \\    /   O peration     | Version:  dev                                   |
|   \\  /    A nd           | Web:      www.OpenFOAM.org                      |
|    \\/     M anipulation  |                                                 |
\*---------------------------------------------------------------------------*/
FoamFile
{
    version     2.0;
    format      ascii;
    class       volScalarField;
    location    "0.175";
    object      A1-;
}
// * * * * * * * * * * * * * * * * * * * * * * * * * * * * * * * * * * * * * //

dimensions      [0 0 0 0 0 0 0];

internalField   nonuniform List<scalar> 
250
(
8.84396e-08
2.53228e-05
2.46008e-05
2.4416e-05
2.43964e-05
2.44058e-05
2.43894e-05
2.44045e-05
2.43948e-05
7.78126e-08
2.6702e-05
2.3408e-05
2.28949e-05
2.28201e-05
2.28162e-05
2.28092e-05
2.28142e-05
2.28147e-05
4.94209e-08
2.03404e-05
1.63332e-05
1.57615e-05
1.56776e-05
1.56715e-05
1.56646e-05
1.56696e-05
1.56719e-05
3.25516e-08
1.45062e-05
1.05649e-05
1.00307e-05
9.95535e-06
9.94817e-06
9.94141e-06
9.94813e-06
9.94915e-06
2.34344e-08
1.04736e-05
6.88294e-06
6.39596e-06
6.33748e-06
6.32839e-06
6.31989e-06
6.33135e-06
6.32765e-06
1.88165e-08
7.85795e-06
4.57923e-06
4.22955e-06
4.19699e-06
4.18829e-06
4.17139e-06
4.1922e-06
4.17656e-06
1.73206e-08
6.14448e-06
3.25675e-06
2.93098e-06
2.90482e-06
2.89932e-06
2.91098e-06
2.89481e-06
2.90986e-06
1.93835e-08
4.98114e-06
2.4495e-06
2.14173e-06
2.05745e-06
2.0593e-06
2.05927e-06
2.05129e-06
2.05673e-06
3.04727e-08
4.09652e-06
1.87994e-06
1.64728e-06
1.58856e-06
1.58888e-06
1.58838e-06
1.58334e-06
1.58492e-06
6.11801e-08
3.47365e-06
1.5405e-06
1.29568e-06
1.24792e-06
1.24733e-06
1.24845e-06
1.24348e-06
1.24342e-06
1.07785e-07
2.99005e-06
1.29082e-06
1.05574e-06
1.01665e-06
1.01446e-06
1.01585e-06
1.01159e-06
1.01091e-06
1.01099e-06
1.78445e-07
2.60424e-06
1.10417e-06
8.91147e-07
8.56286e-07
8.53289e-07
8.5392e-07
8.50855e-07
8.50041e-07
8.49794e-07
2.63694e-07
2.29053e-06
9.66837e-07
7.73582e-07
7.41273e-07
7.37899e-07
7.36893e-07
7.35629e-07
7.34958e-07
7.34431e-07
3.50251e-07
2.03196e-06
8.61716e-07
6.86123e-07
6.55719e-07
6.52187e-07
6.48465e-07
6.4992e-07
6.4961e-07
6.48797e-07
4.33962e-07
1.81659e-06
7.78979e-07
6.18422e-07
5.89653e-07
5.86144e-07
5.8734e-07
5.83706e-07
5.83886e-07
5.82901e-07
5.1289e-07
1.63247e-06
7.17792e-07
5.64013e-07
5.36788e-07
5.33346e-07
5.36565e-07
5.306e-07
5.31303e-07
5.30406e-07
5.81808e-07
1.45263e-06
6.58919e-07
5.18743e-07
4.93134e-07
4.89751e-07
4.91603e-07
4.86523e-07
4.87645e-07
4.90723e-07
6.33493e-07
1.29264e-06
6.06936e-07
4.79953e-07
4.56134e-07
4.52823e-07
4.53819e-07
4.48817e-07
4.5012e-07
4.52484e-07
6.63097e-07
1.16921e-06
5.61085e-07
4.4585e-07
4.24126e-07
4.2091e-07
4.21398e-07
4.19868e-07
4.21115e-07
4.21325e-07
6.70582e-07
1.05978e-06
5.20191e-07
4.1914e-07
3.96009e-07
3.92918e-07
3.93066e-07
3.91477e-07
3.92398e-07
3.94609e-07
6.60507e-07
9.54585e-07
4.83297e-07
3.93155e-07
3.70998e-07
3.68091e-07
3.68014e-07
3.66142e-07
3.69626e-07
3.68209e-07
6.39861e-07
8.56671e-07
4.49882e-07
3.69081e-07
3.4851e-07
3.45872e-07
3.45664e-07
3.45901e-07
3.46956e-07
3.47363e-07
6.127e-07
7.67385e-07
4.19598e-07
3.49735e-07
3.3042e-07
3.2814e-07
3.27847e-07
3.28007e-07
3.28825e-07
3.29059e-07
5.85582e-07
6.93704e-07
3.92081e-07
3.31487e-07
3.14289e-07
3.10992e-07
3.10634e-07
3.10664e-07
3.11288e-07
3.1141e-07
5.58207e-07
6.26262e-07
3.66939e-07
3.15816e-07
2.99936e-07
2.96872e-07
2.96473e-07
2.96421e-07
2.96858e-07
2.96936e-07
5.30505e-07
5.63785e-07
3.4635e-07
3.0172e-07
2.87128e-07
2.84287e-07
2.83864e-07
2.83731e-07
2.84023e-07
2.84064e-07
)
;

boundaryField
{
    fuel
    {
        type            fixedValue;
        value           uniform 0;
    }
    wall
    {
        type            zeroGradient;
    }
    outlet
    {
        type            zeroGradient;
    }
    frontAndBack
    {
        type            empty;
    }
    procBoundary2to0
    {
        type            processor;
        value           nonuniform List<scalar> 
12
(
2.96012e-07
5.01934e-07
5.10351e-07
3.27616e-07
2.88949e-07
2.7559e-07
2.72969e-07
2.72532e-07
2.7232e-07
2.72511e-07
2.83242e-07
2.72505e-07
)
;
    }
    procBoundary2to3
    {
        type            processor;
        value           nonuniform List<scalar> 
25
(
2.44113e-05
2.28163e-05
1.56695e-05
9.94645e-06
6.32516e-06
4.17482e-06
2.91081e-06
2.05843e-06
1.58622e-06
1.24393e-06
1.24393e-06
1.00908e-06
8.48561e-07
7.33653e-07
6.48304e-07
5.82378e-07
5.29401e-07
4.85152e-07
4.51683e-07
4.19104e-07
3.9361e-07
3.68428e-07
3.45873e-07
3.27827e-07
3.10363e-07
)
;
    }
}


// ************************************************************************* //
