/*--------------------------------*- C++ -*----------------------------------*\
| =========                 |                                                 |
| \\      /  F ield         | OpenFOAM: The Open Source CFD Toolbox           |
|  \\    /   O peration     | Version:  dev                                   |
|   \\  /    A nd           | Web:      www.OpenFOAM.org                      |
|    \\/     M anipulation  |                                                 |
\*---------------------------------------------------------------------------*/
FoamFile
{
    version     2.0;
    format      ascii;
    class       volScalarField;
    location    "0.175";
    object      C5H4OH;
}
// * * * * * * * * * * * * * * * * * * * * * * * * * * * * * * * * * * * * * //

dimensions      [0 0 0 0 0 0 0];

internalField   nonuniform List<scalar> 
250
(
4.16675e-09
1.43232e-08
9.39486e-09
9.15222e-09
9.12704e-09
9.12426e-09
9.12494e-09
9.12223e-09
9.12558e-09
3.86945e-09
8.58219e-09
5.16574e-09
5.00118e-09
4.98281e-09
4.98011e-09
4.97941e-09
4.97902e-09
4.97996e-09
2.87282e-09
4.59727e-09
2.54941e-09
2.45296e-09
2.43948e-09
2.43752e-09
2.43612e-09
2.43685e-09
2.43644e-09
1.98178e-09
2.5268e-09
1.32272e-09
1.26611e-09
1.25558e-09
1.25465e-09
1.25288e-09
1.25338e-09
1.25266e-09
1.3886e-09
1.47869e-09
7.65116e-10
7.29806e-10
7.21876e-10
7.21902e-10
7.20392e-10
7.18671e-10
7.18409e-10
1.03947e-09
9.20074e-10
4.96035e-10
4.70933e-10
4.61917e-10
4.59931e-10
4.60354e-10
4.6005e-10
4.62194e-10
9.11008e-10
6.15766e-10
3.54088e-10
3.35044e-10
3.27966e-10
3.25166e-10
3.27314e-10
3.2424e-10
3.27741e-10
9.14217e-10
4.44768e-10
2.71851e-10
2.56394e-10
2.45236e-10
2.45089e-10
2.43967e-10
2.45219e-10
2.43818e-10
8.81356e-10
3.34596e-10
2.19472e-10
2.03887e-10
1.95235e-10
1.93924e-10
1.93791e-10
1.94609e-10
1.93519e-10
6.80521e-10
2.69749e-10
1.79661e-10
1.64974e-10
1.60709e-10
1.59034e-10
1.59032e-10
1.59427e-10
1.58555e-10
4.27373e-10
2.22825e-10
1.50504e-10
1.39819e-10
1.34281e-10
1.31892e-10
1.32489e-10
1.32612e-10
1.32847e-10
1.30964e-10
2.46432e-10
1.89826e-10
1.30806e-10
1.17496e-10
1.12341e-10
1.09762e-10
1.11135e-10
1.10075e-10
1.10547e-10
1.09489e-10
1.52508e-10
1.65877e-10
1.13287e-10
9.95007e-11
9.49974e-11
9.22809e-11
9.29952e-11
9.23934e-11
9.29794e-11
9.22394e-11
1.16293e-10
1.47876e-10
9.90356e-11
8.48719e-11
8.10463e-11
7.82604e-11
7.8355e-11
7.82446e-11
7.89258e-11
7.82951e-11
1.05978e-10
1.33866e-10
8.72489e-11
7.29189e-11
6.97116e-11
6.69409e-11
6.77935e-11
6.68236e-11
6.75727e-11
6.69929e-11
1.06649e-10
1.22611e-10
7.73846e-11
6.31264e-11
6.04478e-11
5.77623e-11
5.92331e-11
5.75512e-11
5.83485e-11
5.78087e-11
1.12806e-10
1.1333e-10
6.90504e-11
5.50872e-11
5.28448e-11
5.02961e-11
5.20088e-11
4.99792e-11
5.0828e-11
5.0329e-11
1.22003e-10
1.05501e-10
6.19421e-11
4.84701e-11
4.65821e-11
4.4203e-11
4.5675e-11
4.37439e-11
4.46801e-11
4.42241e-11
1.32706e-10
9.78947e-11
5.581e-11
4.30013e-11
4.14028e-11
3.92171e-11
4.04783e-11
3.92121e-11
3.96405e-11
3.92276e-11
1.43637e-10
9.21566e-11
5.1133e-11
3.84513e-11
3.70991e-11
3.51218e-11
3.61937e-11
3.50453e-11
3.54906e-11
3.51232e-11
1.53525e-10
8.64619e-11
4.67991e-11
3.46166e-11
3.35008e-11
3.17407e-11
3.26406e-11
3.1578e-11
3.20551e-11
3.17344e-11
1.61242e-10
8.16369e-11
4.28869e-11
3.17853e-11
3.04666e-11
2.89287e-11
2.96711e-11
2.90127e-11
2.91896e-11
2.8916e-11
1.65915e-10
7.70143e-11
3.94358e-11
2.94388e-11
2.8211e-11
2.68564e-11
2.74788e-11
2.69114e-11
2.70771e-11
2.68385e-11
1.6706e-10
7.21233e-11
3.67235e-11
2.73311e-11
2.6243e-11
2.49991e-11
2.5539e-11
2.50321e-11
2.51926e-11
2.49791e-11
1.64634e-10
6.72903e-11
3.41794e-11
2.5694e-11
2.46822e-11
2.35902e-11
2.40376e-11
2.36074e-11
2.37499e-11
2.35672e-11
1.58929e-10
6.26947e-11
3.20718e-11
2.43386e-11
2.3378e-11
2.24427e-11
2.28102e-11
2.24485e-11
2.25722e-11
2.24175e-11
)
;

boundaryField
{
    fuel
    {
        type            fixedValue;
        value           uniform 0;
    }
    wall
    {
        type            zeroGradient;
    }
    outlet
    {
        type            zeroGradient;
    }
    frontAndBack
    {
        type            empty;
    }
    procBoundary2to0
    {
        type            processor;
        value           nonuniform List<scalar> 
12
(
2.36544e-11
1.50367e-10
5.75921e-11
3.02043e-11
2.32197e-11
2.23226e-11
2.15128e-11
2.18125e-11
2.15104e-11
2.16158e-11
2.24935e-11
2.14859e-11
)
;
    }
    procBoundary2to3
    {
        type            processor;
        value           nonuniform List<scalar> 
25
(
9.12436e-09
4.97964e-09
2.4368e-09
1.25311e-09
7.18714e-10
4.6222e-10
3.26821e-10
2.44447e-10
1.9315e-10
1.5765e-10
1.5765e-10
1.32673e-10
1.10423e-10
9.28154e-11
7.87031e-11
6.73081e-11
5.80678e-11
5.05524e-11
4.44225e-11
3.9406e-11
3.52834e-11
3.18766e-11
2.90397e-11
2.69487e-11
2.50782e-11
)
;
    }
}


// ************************************************************************* //
