/*--------------------------------*- C++ -*----------------------------------*\
| =========                 |                                                 |
| \\      /  F ield         | OpenFOAM: The Open Source CFD Toolbox           |
|  \\    /   O peration     | Version:  dev                                   |
|   \\  /    A nd           | Web:      www.OpenFOAM.org                      |
|    \\/     M anipulation  |                                                 |
\*---------------------------------------------------------------------------*/
FoamFile
{
    version     2.0;
    format      ascii;
    class       volScalarField;
    location    "0.175";
    object      C6H;
}
// * * * * * * * * * * * * * * * * * * * * * * * * * * * * * * * * * * * * * //

dimensions      [0 0 0 0 0 0 0];

internalField   nonuniform List<scalar> 
50
(
3.65165e-22
3.25767e-22
2.90698e-22
2.59494e-22
2.31735e-22
2.07379e-22
1.85461e-22
1.65932e-22
1.48554e-22
1.3308e-22
1.19288e-22
1.07156e-22
9.63285e-23
8.66599e-23
7.79855e-23
7.02645e-23
6.3281e-23
5.7096e-23
5.15526e-23
4.65359e-23
4.20696e-23
3.80459e-23
3.44322e-23
3.11761e-23
2.82379e-23
2.55829e-23
2.318e-23
2.10017e-23
1.9024e-23
1.72119e-23
1.55463e-23
1.40478e-23
1.26763e-23
1.14193e-23
1.0263e-23
9.20483e-24
8.23393e-24
7.33423e-24
6.50508e-24
5.75867e-24
5.06719e-24
4.44692e-24
3.87688e-24
3.36015e-24
2.89518e-24
2.48575e-24
2.12104e-24
1.79809e-24
1.51371e-24
1.26449e-24
)
;

boundaryField
{
    wall
    {
        type            zeroGradient;
    }
    fuel
    {
        type            fixedValue;
        value           nonuniform 0();
    }
    outlet
    {
        type            inletOutlet;
        inletValue      nonuniform 0();
        value           nonuniform 0();
    }
    procBoundary2to1
    {
        type            processor;
        value           uniform 4.10095e-22;
    }
    procBoundary2to3
    {
        type            processor;
        value           uniform 1.04724e-24;
    }
}


// ************************************************************************* //
