/*--------------------------------*- C++ -*----------------------------------*\
| =========                 |                                                 |
| \\      /  F ield         | OpenFOAM: The Open Source CFD Toolbox           |
|  \\    /   O peration     | Version:  dev                                   |
|   \\  /    A nd           | Web:      www.OpenFOAM.org                      |
|    \\/     M anipulation  |                                                 |
\*---------------------------------------------------------------------------*/
FoamFile
{
    version     2.0;
    format      ascii;
    class       volScalarField;
    location    "0.175";
    object      dQ;
}
// * * * * * * * * * * * * * * * * * * * * * * * * * * * * * * * * * * * * * //

dimensions      [1 2 -3 0 0 0 0];

internalField   nonuniform List<scalar> 
250
(
0.0274234
34.1248
34.3624
34.4145
34.4164
34.4125
34.4175
34.4121
34.4193
0.0309452
8.01236
7.66001
7.64504
7.6392
7.64117
7.63934
7.64006
7.64165
0.0225493
2.23833
1.97586
1.96759
1.96456
1.96548
1.96487
1.96488
1.96567
0.0160176
0.834111
0.641466
0.635932
0.634477
0.634821
0.634633
0.634629
0.63488
0.0124214
0.392377
0.247536
0.242107
0.241598
0.241629
0.241462
0.241697
0.241583
0.0112052
0.220621
0.101336
0.100746
0.101153
0.101078
0.100577
0.101259
0.100601
0.0128731
0.141423
0.0446378
0.0427619
0.0430456
0.04311
0.0436767
0.0429164
0.0435085
0.0210427
0.0992739
0.019681
0.0171999
0.0158371
0.016097
0.016118
0.0158496
0.0160219
0.0545243
0.0719708
0.00694887
0.00539341
0.00475392
0.00488147
0.00489272
0.00477859
0.00483201
0.1548
0.0547199
0.00153305
-0.000685862
-0.00104878
-0.000988204
-0.000956463
-0.00102522
-0.00100987
0.274622
0.0422025
-0.0012807
-0.00352247
-0.00376122
-0.00374618
-0.0037132
-0.0037527
-0.00374835
-0.00374391
0.362451
0.0328075
-0.00266717
-0.00477088
-0.00496737
-0.00497143
-0.0049435
-0.00496391
-0.00496332
-0.00495869
0.355834
0.0256614
-0.00329721
-0.00526145
-0.00543999
-0.0054519
-0.00543284
-0.0054366
-0.00543816
-0.00543224
0.279461
0.020205
-0.00356324
-0.00538247
-0.00554922
-0.00556434
-0.00556415
-0.00554359
-0.00554672
-0.00554178
0.196985
0.0160388
-0.00363319
-0.00531783
-0.00547332
-0.00548926
-0.00547694
-0.00546437
-0.00546856
-0.00546728
0.134539
0.0127809
-0.00358105
-0.0051555
-0.00529824
-0.00531404
-0.00530106
-0.00528625
-0.00529104
-0.00528867
0.0926563
0.00995416
-0.0035098
-0.00493826
-0.00506535
-0.00508058
-0.00507524
-0.0050534
-0.00505892
-0.00504531
0.065715
0.00772231
-0.00339768
-0.00468867
-0.00479453
-0.00480871
-0.00480565
-0.00479298
-0.00480028
-0.004792
0.0484495
0.00612222
-0.00325199
-0.00442404
-0.00449542
-0.00450803
-0.00450473
-0.00447407
-0.00448544
-0.0044809
0.037083
0.00481819
-0.00307716
-0.00410679
-0.00417348
-0.00418381
-0.00417982
-0.00415926
-0.00418252
-0.0041569
0.0292293
0.00369784
-0.00287602
-0.00378717
-0.00383505
-0.00384132
-0.00383643
-0.003836
-0.00381696
-0.00383952
0.0235118
0.00277414
-0.00264702
-0.00346695
-0.00349428
-0.00349176
-0.00348524
-0.00345592
-0.00347299
-0.00345774
0.0189822
0.00203915
-0.00238655
-0.00308319
-0.00309629
-0.00307457
-0.00306649
-0.00304172
-0.0030559
-0.00304108
0.0154128
0.00149769
-0.00209707
-0.00269554
-0.0026745
-0.00267721
-0.00266788
-0.00264601
-0.00265747
-0.00264317
0.0124261
0.00109701
-0.00178826
-0.00225801
-0.00221989
-0.00221358
-0.00220291
-0.00218016
-0.00219162
-0.00217581
0.00989637
0.000832055
-0.00140371
-0.00178319
-0.00172718
-0.00171536
-0.00170325
-0.00167927
-0.00169114
-0.00167372
)
;

boundaryField
{
    fuel
    {
        type            calculated;
        value           uniform 0;
    }
    wall
    {
        type            calculated;
        value           nonuniform 0();
    }
    outlet
    {
        type            calculated;
        value           uniform 0;
    }
    frontAndBack
    {
        type            empty;
    }
    procBoundary2to0
    {
        type            processor;
        value           uniform 0;
    }
    procBoundary2to3
    {
        type            processor;
        value           uniform 0;
    }
}


// ************************************************************************* //
