/*--------------------------------*- C++ -*----------------------------------*\
| =========                 |                                                 |
| \\      /  F ield         | OpenFOAM: The Open Source CFD Toolbox           |
|  \\    /   O peration     | Version:  dev                                   |
|   \\  /    A nd           | Web:      www.OpenFOAM.org                      |
|    \\/     M anipulation  |                                                 |
\*---------------------------------------------------------------------------*/
FoamFile
{
    version     2.0;
    format      ascii;
    class       volScalarField;
    location    "0.175";
    object      H;
}
// * * * * * * * * * * * * * * * * * * * * * * * * * * * * * * * * * * * * * //

dimensions      [0 0 0 0 0 0 0];

internalField   nonuniform List<scalar> 
50
(
0.000144959
0.000142143
0.000139362
0.000136616
0.000133907
0.000131271
0.000128641
0.000126043
0.000123482
0.000120958
0.00011847
0.000116053
0.000113672
0.000111328
0.000109011
0.000106741
0.000104483
0.000102285
0.000100124
9.7979e-05
9.58878e-05
9.3827e-05
9.18053e-05
8.98181e-05
8.78649e-05
8.59452e-05
8.40588e-05
8.22051e-05
8.0384e-05
7.85812e-05
7.67943e-05
7.50647e-05
7.33643e-05
7.16923e-05
7.00436e-05
6.84272e-05
6.68381e-05
6.5259e-05
6.36966e-05
6.21847e-05
6.06746e-05
5.92105e-05
5.77497e-05
5.6306e-05
5.48829e-05
5.35041e-05
5.21449e-05
5.08054e-05
4.94856e-05
4.81859e-05
)
;

boundaryField
{
    wall
    {
        type            zeroGradient;
    }
    fuel
    {
        type            fixedValue;
        value           nonuniform 0();
    }
    outlet
    {
        type            inletOutlet;
        inletValue      nonuniform 0();
        value           nonuniform 0();
    }
    procBoundary2to1
    {
        type            processor;
        value           uniform 0.000147809;
    }
    procBoundary2to3
    {
        type            processor;
        value           uniform 4.68916e-05;
    }
}


// ************************************************************************* //
