/*--------------------------------*- C++ -*----------------------------------*\
| =========                 |                                                 |
| \\      /  F ield         | OpenFOAM: The Open Source CFD Toolbox           |
|  \\    /   O peration     | Version:  dev                                   |
|   \\  /    A nd           | Web:      www.OpenFOAM.org                      |
|    \\/     M anipulation  |                                                 |
\*---------------------------------------------------------------------------*/
FoamFile
{
    version     2.0;
    format      ascii;
    class       volScalarField;
    location    "0.175";
    object      H2O2;
}
// * * * * * * * * * * * * * * * * * * * * * * * * * * * * * * * * * * * * * //

dimensions      [0 0 0 0 0 0 0];

internalField   nonuniform List<scalar> 
250
(
3.29455e-05
1.02814e-07
6.19014e-08
6.03115e-08
6.0202e-08
6.03989e-08
6.0161e-08
6.04016e-08
6.01824e-08
7.492e-05
9.36004e-08
2.08125e-08
2.02765e-08
2.02237e-08
2.02562e-08
2.02211e-08
2.02548e-08
2.02217e-08
9.48142e-05
1.04065e-07
7.20005e-09
6.91726e-09
6.89469e-09
6.90136e-09
6.89451e-09
6.89986e-09
6.89595e-09
0.000100472
1.09813e-07
2.76244e-09
2.54753e-09
2.5371e-09
2.53891e-09
2.53724e-09
2.53804e-09
2.53807e-09
9.96811e-05
1.10359e-07
1.24275e-09
1.04824e-09
1.04374e-09
1.0443e-09
1.04342e-09
1.04403e-09
1.04382e-09
9.67957e-05
1.085e-07
6.6095e-10
4.94661e-10
4.94835e-10
4.9514e-10
4.9304e-10
4.95217e-10
4.93155e-10
9.34818e-05
1.05765e-07
4.31876e-10
2.71553e-10
2.7251e-10
2.72606e-10
2.74681e-10
2.72165e-10
2.74443e-10
8.88542e-05
1.01222e-07
3.2636e-10
1.75174e-10
1.70874e-10
1.71564e-10
1.71878e-10
1.70887e-10
1.71646e-10
7.90252e-05
9.05347e-08
2.59131e-10
1.30733e-10
1.29428e-10
1.29947e-10
1.29976e-10
1.29537e-10
1.2978e-10
5.90049e-05
6.9736e-08
2.07127e-10
1.07157e-10
1.07078e-10
1.0747e-10
1.0751e-10
1.07238e-10
1.07287e-10
3.38296e-05
4.28507e-08
1.56245e-10
9.4551e-11
9.52184e-11
9.54836e-11
9.55174e-11
9.53352e-11
9.53247e-11
9.51589e-11
1.40703e-05
2.02286e-08
1.14671e-10
8.72762e-11
8.82683e-11
8.84785e-11
8.84783e-11
8.83557e-11
8.83349e-11
8.82244e-11
4.2052e-06
7.43316e-09
8.89404e-11
8.24812e-11
8.36176e-11
8.38069e-11
8.37388e-11
8.3682e-11
8.36723e-11
8.35781e-11
9.91868e-07
2.3373e-09
7.57158e-11
7.88683e-11
8.006e-11
8.02426e-11
8.0057e-11
8.00994e-11
8.01139e-11
8.00151e-11
2.27506e-07
7.55825e-10
6.90965e-11
7.5828e-11
7.70247e-11
7.72086e-11
7.72568e-11
7.70323e-11
7.70781e-11
7.69698e-11
6.58079e-08
3.13282e-10
6.55204e-11
7.30625e-11
7.42326e-11
7.4418e-11
7.459e-11
7.41944e-11
7.42729e-11
7.41617e-11
2.60735e-08
1.71329e-10
6.25677e-11
7.04134e-11
7.15381e-11
7.17217e-11
7.18276e-11
7.14324e-11
7.15378e-11
7.16812e-11
1.25622e-08
1.1453e-10
6.00165e-11
6.77866e-11
6.88567e-11
6.90364e-11
6.90984e-11
6.86517e-11
6.87695e-11
6.88713e-11
6.5946e-09
8.62612e-11
5.76814e-11
6.5111e-11
6.61311e-11
6.63059e-11
6.63401e-11
6.61554e-11
6.62694e-11
6.61889e-11
3.59989e-09
6.82318e-11
5.54485e-11
6.26959e-11
6.33151e-11
6.34852e-11
6.34976e-11
6.32608e-11
6.33504e-11
6.34864e-11
2.01438e-09
5.55497e-11
5.32313e-11
5.99539e-11
6.03618e-11
6.05324e-11
6.05277e-11
6.02122e-11
6.06468e-11
6.03444e-11
1.15783e-09
4.66924e-11
5.09681e-11
5.69782e-11
5.72213e-11
5.74033e-11
5.73871e-11
5.7353e-11
5.74587e-11
5.74349e-11
6.60381e-10
4.05998e-11
4.86071e-11
5.419e-11
5.42483e-11
5.44604e-11
5.44334e-11
5.43636e-11
5.44628e-11
5.44112e-11
3.9382e-10
3.66762e-11
4.60854e-11
5.10825e-11
5.11068e-11
5.10551e-11
5.1016e-11
5.09003e-11
5.10055e-11
5.09232e-11
2.37592e-10
3.37482e-11
4.33438e-11
4.79445e-11
4.77958e-11
4.77428e-11
4.76931e-11
4.75469e-11
4.76505e-11
4.75492e-11
1.44966e-10
3.13821e-11
4.06867e-11
4.46277e-11
4.43145e-11
4.42578e-11
4.4199e-11
4.40257e-11
4.41305e-11
4.40118e-11
)
;

boundaryField
{
    fuel
    {
        type            fixedValue;
        value           uniform 0;
    }
    wall
    {
        type            zeroGradient;
    }
    outlet
    {
        type            zeroGradient;
    }
    frontAndBack
    {
        type            empty;
    }
    procBoundary2to0
    {
        type            processor;
        value           nonuniform List<scalar> 
12
(
4.73876e-11
9.00482e-11
2.94418e-11
3.78205e-11
4.11329e-11
4.06715e-11
4.06095e-11
4.05431e-11
4.03475e-11
4.0456e-11
4.3855e-11
4.03217e-11
)
;
    }
    procBoundary2to3
    {
        type            processor;
        value           nonuniform List<scalar> 
25
(
6.03678e-08
2.02538e-08
6.89993e-09
2.538e-09
1.04345e-09
4.92931e-10
2.74468e-10
1.71744e-10
1.2983e-10
1.0721e-10
1.0721e-10
9.52263e-11
8.82568e-11
8.35944e-11
8.00228e-11
7.69609e-11
7.41173e-11
7.13303e-11
6.88651e-11
6.6034e-11
6.34468e-11
6.0427e-11
5.72327e-11
5.42278e-11
5.07542e-11
)
;
    }
}


// ************************************************************************* //
