/*--------------------------------*- C++ -*----------------------------------*\
| =========                 |                                                 |
| \\      /  F ield         | OpenFOAM: The Open Source CFD Toolbox           |
|  \\    /   O peration     | Version:  dev                                   |
|   \\  /    A nd           | Web:      www.OpenFOAM.org                      |
|    \\/     M anipulation  |                                                 |
\*---------------------------------------------------------------------------*/
FoamFile
{
    version     2.0;
    format      ascii;
    class       volScalarField;
    location    "0.175";
    object      HCO;
}
// * * * * * * * * * * * * * * * * * * * * * * * * * * * * * * * * * * * * * //

dimensions      [0 0 0 0 0 0 0];

internalField   nonuniform List<scalar> 
250
(
6.24262e-09
1.23265e-05
1.18966e-05
1.18489e-05
1.18502e-05
1.1856e-05
1.18487e-05
1.18559e-05
1.18503e-05
4.92084e-09
5.18882e-06
5.05532e-06
5.0519e-06
5.049e-06
5.05102e-06
5.05146e-06
5.05046e-06
5.05027e-06
3.14181e-09
1.99305e-06
1.94614e-06
1.95466e-06
1.95395e-06
1.9551e-06
1.95487e-06
1.95462e-06
1.9551e-06
2.34264e-09
8.54807e-07
8.16326e-07
8.25006e-07
8.25207e-07
8.25829e-07
8.25618e-07
8.25598e-07
8.25854e-07
2.18157e-09
4.44716e-07
4.13333e-07
4.1992e-07
4.2077e-07
4.21052e-07
4.20781e-07
4.21041e-07
4.20945e-07
2.66438e-09
2.78547e-07
2.5177e-07
2.62336e-07
2.64138e-07
2.64312e-07
2.63599e-07
2.64396e-07
2.63659e-07
4.94135e-09
1.99275e-07
1.83919e-07
1.93178e-07
1.94963e-07
1.95133e-07
1.95779e-07
1.94934e-07
1.9565e-07
1.50857e-08
1.55114e-07
1.50645e-07
1.59478e-07
1.58974e-07
1.59375e-07
1.59441e-07
1.59066e-07
1.59298e-07
6.93148e-08
1.25472e-07
1.30568e-07
1.41369e-07
1.41857e-07
1.42183e-07
1.42179e-07
1.4197e-07
1.42029e-07
2.86389e-07
1.06293e-07
1.19597e-07
1.29719e-07
1.30598e-07
1.30879e-07
1.30901e-07
1.30724e-07
1.30714e-07
6.38857e-07
9.23501e-08
1.11808e-07
1.22026e-07
1.23178e-07
1.23402e-07
1.23417e-07
1.23271e-07
1.2324e-07
1.23169e-07
8.97718e-07
8.17225e-08
1.05898e-07
1.1655e-07
1.1781e-07
1.18009e-07
1.17985e-07
1.17877e-07
1.17847e-07
1.17778e-07
8.29529e-07
7.32998e-08
1.01315e-07
1.1224e-07
1.13536e-07
1.13724e-07
1.13628e-07
1.13578e-07
1.13565e-07
1.13481e-07
5.76154e-07
6.66775e-08
9.75463e-08
1.08563e-07
1.09857e-07
1.10041e-07
1.09819e-07
1.09869e-07
1.09885e-07
1.09781e-07
3.50304e-07
6.17052e-08
9.43403e-08
1.05238e-07
1.06503e-07
1.06688e-07
1.0673e-07
1.06478e-07
1.0653e-07
1.0641e-07
2.08427e-07
5.8113e-08
9.17875e-08
1.02107e-07
1.03323e-07
1.03509e-07
1.03696e-07
1.03245e-07
1.03335e-07
1.03209e-07
1.30333e-07
5.53637e-08
8.91459e-08
9.90699e-08
1.00223e-07
1.00406e-07
1.0052e-07
1.00069e-07
1.0019e-07
1.00354e-07
8.86927e-08
5.35617e-08
8.66368e-08
9.6053e-08
9.71394e-08
9.73172e-08
9.73828e-08
9.68753e-08
9.70094e-08
9.71265e-08
6.58469e-08
5.25878e-08
8.42323e-08
9.29919e-08
9.40221e-08
9.41943e-08
9.42288e-08
9.402e-08
9.41491e-08
9.40591e-08
5.2488e-08
5.20519e-08
8.18742e-08
9.0241e-08
9.08262e-08
9.09935e-08
9.10038e-08
9.07393e-08
9.08398e-08
9.09935e-08
4.41425e-08
5.1791e-08
7.94939e-08
8.71421e-08
8.75026e-08
8.76712e-08
8.76626e-08
8.73133e-08
8.77946e-08
8.7462e-08
3.87626e-08
5.16934e-08
7.70343e-08
8.38041e-08
8.39958e-08
8.41783e-08
8.41571e-08
8.4119e-08
8.42359e-08
8.42106e-08
3.51204e-08
5.16368e-08
7.44455e-08
8.06899e-08
8.06916e-08
8.09087e-08
8.08761e-08
8.07986e-08
8.0908e-08
8.08515e-08
3.30171e-08
5.15134e-08
7.16625e-08
7.72356e-08
7.72142e-08
7.71461e-08
7.71005e-08
7.69729e-08
7.70884e-08
7.69981e-08
3.18872e-08
5.12319e-08
6.86218e-08
7.37534e-08
7.35561e-08
7.34898e-08
7.34331e-08
7.32717e-08
7.33854e-08
7.3274e-08
3.14662e-08
5.07038e-08
6.56576e-08
7.00724e-08
6.97072e-08
6.96397e-08
6.95732e-08
6.93816e-08
6.94969e-08
6.93658e-08
)
;

boundaryField
{
    fuel
    {
        type            fixedValue;
        value           uniform 0;
    }
    wall
    {
        type            zeroGradient;
    }
    outlet
    {
        type            zeroGradient;
    }
    frontAndBack
    {
        type            empty;
    }
    procBoundary2to0
    {
        type            processor;
        value           nonuniform List<scalar> 
12
(
7.30963e-08
3.15009e-08
4.98849e-08
6.24404e-08
6.61832e-08
6.5665e-08
6.55944e-08
6.55195e-08
6.53022e-08
6.54223e-08
6.91932e-08
6.52732e-08
)
;
    }
    procBoundary2to3
    {
        type            processor;
        value           nonuniform List<scalar> 
25
(
1.18651e-05
5.05352e-06
1.95508e-06
8.25573e-07
4.20746e-07
2.63538e-07
1.95643e-07
1.5932e-07
1.42031e-07
1.30672e-07
1.30672e-07
1.23155e-07
1.17766e-07
1.13477e-07
1.0978e-07
1.06394e-07
1.03155e-07
9.99518e-08
9.71168e-08
9.38832e-08
9.09459e-08
8.755e-08
8.39859e-08
8.06488e-08
7.6812e-08
)
;
    }
}


// ************************************************************************* //
