/*--------------------------------*- C++ -*----------------------------------*\
| =========                 |                                                 |
| \\      /  F ield         | OpenFOAM: The Open Source CFD Toolbox           |
|  \\    /   O peration     | Version:  dev                                   |
|   \\  /    A nd           | Web:      www.OpenFOAM.org                      |
|    \\/     M anipulation  |                                                 |
\*---------------------------------------------------------------------------*/
FoamFile
{
    version     2.0;
    format      ascii;
    class       volScalarField;
    location    "0.14";
    object      A2C2H22;
}
// * * * * * * * * * * * * * * * * * * * * * * * * * * * * * * * * * * * * * //

dimensions      [0 0 0 0 0 0 0];

internalField   nonuniform List<scalar> 
50
(
3.96562e-21
3.30016e-21
2.74896e-21
2.29462e-21
1.91914e-21
1.60816e-21
1.35006e-21
1.13538e-21
9.56424e-22
8.06902e-22
6.81703e-22
5.76652e-22
4.88335e-22
4.13952e-22
3.512e-22
2.98182e-22
2.53327e-22
2.15332e-22
1.83115e-22
1.55773e-22
1.32551e-22
1.12815e-22
9.60344e-23
8.17609e-23
6.96166e-23
5.9282e-23
5.04863e-23
4.30002e-23
3.66287e-23
3.12061e-23
2.65914e-23
2.26648e-23
1.93241e-23
1.6482e-23
1.40645e-23
1.20083e-23
1.02594e-23
8.77184e-24
7.50644e-24
6.42973e-24
5.51324e-24
4.73282e-24
4.06816e-24
3.5021e-24
3.01933e-24
2.63096e-24
2.27946e-24
1.97553e-24
1.71425e-24
1.48899e-24
)
;

boundaryField
{
    wall
    {
        type            zeroGradient;
    }
    fuel
    {
        type            fixedValue;
        value           nonuniform 0();
    }
    outlet
    {
        type            inletOutlet;
        inletValue      nonuniform 0();
        value           nonuniform 0();
    }
    procBoundary1to0
    {
        type            processor;
        value           uniform 4.7981e-21;
    }
    procBoundary1to2
    {
        type            processor;
        value           uniform 1.29788e-24;
    }
}


// ************************************************************************* //
