/*--------------------------------*- C++ -*----------------------------------*\
| =========                 |                                                 |
| \\      /  F ield         | OpenFOAM: The Open Source CFD Toolbox           |
|  \\    /   O peration     | Version:  dev                                   |
|   \\  /    A nd           | Web:      www.OpenFOAM.org                      |
|    \\/     M anipulation  |                                                 |
\*---------------------------------------------------------------------------*/
FoamFile
{
    version     2.0;
    format      ascii;
    class       volScalarField;
    location    "0.14";
    object      c-C6H4;
}
// * * * * * * * * * * * * * * * * * * * * * * * * * * * * * * * * * * * * * //

dimensions      [0 0 0 0 0 0 0];

internalField   nonuniform List<scalar> 
50
(
1.39189e-15
1.23099e-15
1.08797e-15
9.61739e-16
8.503e-16
7.51945e-16
6.6515e-16
5.88542e-16
5.20898e-16
4.61135e-16
4.08301e-16
3.61569e-16
3.20215e-16
2.83609e-16
2.51197e-16
2.22496e-16
1.97082e-16
1.74578e-16
1.54653e-16
1.37016e-16
1.21406e-16
1.07593e-16
9.53736e-17
8.45658e-17
7.50088e-17
6.65595e-17
5.90909e-17
5.24903e-17
4.66573e-17
4.15032e-17
3.69489e-17
3.29247e-17
2.93684e-17
2.62251e-17
2.34463e-17
2.09889e-17
1.88147e-17
1.68902e-17
1.51856e-17
1.36743e-17
1.23332e-17
1.11418e-17
1.00826e-17
9.14046e-18
8.30147e-18
7.59914e-18
6.93404e-18
6.33215e-18
5.78982e-18
5.29811e-18
)
;

boundaryField
{
    wall
    {
        type            zeroGradient;
    }
    fuel
    {
        type            fixedValue;
        value           nonuniform 0();
    }
    outlet
    {
        type            inletOutlet;
        inletValue      nonuniform 0();
        value           nonuniform 0();
    }
    procBoundary1to0
    {
        type            processor;
        value           uniform 1.57573e-15;
    }
    procBoundary1to2
    {
        type            processor;
        value           uniform 4.86104e-18;
    }
}


// ************************************************************************* //
