/*--------------------------------*- C++ -*----------------------------------*\
| =========                 |                                                 |
| \\      /  F ield         | OpenFOAM: The Open Source CFD Toolbox           |
|  \\    /   O peration     | Version:  dev                                   |
|   \\  /    A nd           | Web:      www.OpenFOAM.org                      |
|    \\/     M anipulation  |                                                 |
\*---------------------------------------------------------------------------*/
FoamFile
{
    version     2.0;
    format      ascii;
    class       volScalarField;
    location    "0.14";
    object      C2O;
}
// * * * * * * * * * * * * * * * * * * * * * * * * * * * * * * * * * * * * * //

dimensions      [0 0 0 0 0 0 0];

internalField   nonuniform List<scalar> 
50
(
4.39479e-10
3.50725e-10
2.8005e-10
2.24074e-10
1.79631e-10
1.44283e-10
1.1613e-10
9.36796e-11
7.57488e-11
6.14038e-11
4.99051e-11
4.06684e-11
3.32316e-11
2.72296e-11
2.23737e-11
1.84351e-11
1.52326e-11
1.26221e-11
1.04892e-11
8.74237e-12
7.30851e-12
6.129e-12
5.15671e-12
4.35362e-12
3.689e-12
3.13792e-12
2.68013e-12
2.29911e-12
1.98137e-12
1.71586e-12
1.49352e-12
1.30692e-12
1.14991e-12
1.01745e-12
9.05373e-13
8.10231e-13
7.2918e-13
6.59861e-13
6.00323e-13
5.48945e-13
5.04385e-13
4.65536e-13
4.31494e-13
4.01522e-13
3.74984e-13
3.52791e-13
3.31697e-13
3.12462e-13
2.94932e-13
2.78775e-13
)
;

boundaryField
{
    wall
    {
        type            zeroGradient;
    }
    fuel
    {
        type            fixedValue;
        value           nonuniform 0();
    }
    outlet
    {
        type            inletOutlet;
        inletValue      nonuniform 0();
        value           nonuniform 0();
    }
    procBoundary1to0
    {
        type            processor;
        value           uniform 5.53855e-10;
    }
    procBoundary1to2
    {
        type            processor;
        value           uniform 2.63945e-13;
    }
}


// ************************************************************************* //
