/*--------------------------------*- C++ -*----------------------------------*\
| =========                 |                                                 |
| \\      /  F ield         | OpenFOAM: The Open Source CFD Toolbox           |
|  \\    /   O peration     | Version:  dev                                   |
|   \\  /    A nd           | Web:      www.OpenFOAM.org                      |
|    \\/     M anipulation  |                                                 |
\*---------------------------------------------------------------------------*/
FoamFile
{
    version     2.0;
    format      ascii;
    class       volScalarField;
    location    "0.14";
    object      C6H;
}
// * * * * * * * * * * * * * * * * * * * * * * * * * * * * * * * * * * * * * //

dimensions      [0 0 0 0 0 0 0];

internalField   nonuniform List<scalar> 
250
(
6.96474e-12
6.88007e-12
5.31939e-12
5.37306e-12
4.7603e-12
4.68493e-12
4.65611e-12
4.51313e-12
4.62059e-12
4.47124e-12
4.4178e-12
4.28222e-12
3.25468e-12
3.30355e-12
2.91227e-12
2.86633e-12
2.84667e-12
2.75333e-12
2.8261e-12
2.7264e-12
2.73955e-12
2.79812e-12
2.74608e-12
2.82546e-12
2.78981e-12
2.96345e-12
2.93037e-12
3.62628e-12
3.13412e-12
4.02168e-12
2.62509e-12
2.5052e-12
1.87451e-12
1.9134e-12
1.67892e-12
1.653e-12
1.63951e-12
1.5823e-12
1.62859e-12
1.56611e-12
1.57436e-12
1.61098e-12
1.5779e-12
1.62747e-12
1.60434e-12
1.71202e-12
1.68814e-12
2.1138e-12
1.82856e-12
2.45544e-12
1.44832e-12
1.36447e-12
1.0055e-12
1.03341e-12
9.02557e-13
8.89255e-13
8.79656e-13
8.4694e-13
8.74434e-13
8.37848e-13
8.42685e-13
8.64127e-13
8.44461e-13
8.73313e-13
8.59342e-13
9.22495e-13
9.06577e-13
1.14788e-12
9.93423e-13
1.38874e-12
7.29372e-13
6.79793e-13
4.92455e-13
5.0706e-13
4.37801e-13
4.317e-13
4.30743e-13
4.13561e-13
4.2859e-13
4.08855e-13
4.11469e-13
4.23046e-13
4.12275e-13
4.27709e-13
4.19937e-13
4.48391e-13
4.39888e-13
5.69809e-13
4.89236e-13
7.15323e-13
3.25306e-13
3.00566e-13
2.13299e-13
2.21325e-13
1.89393e-13
1.87006e-13
1.86311e-13
1.78277e-13
1.85596e-13
1.76101e-13
1.7736e-13
1.82943e-13
1.77678e-13
1.85033e-13
1.81182e-13
1.9456e-13
1.90085e-13
2.50701e-13
2.14215e-13
3.2629e-13
1.23369e-13
1.12843e-13
7.81974e-14
8.18208e-14
6.9291e-14
6.85242e-14
6.81509e-14
6.49736e-14
6.79886e-14
6.41187e-14
6.46309e-14
6.69159e-14
6.47333e-14
6.77038e-14
6.60854e-14
7.14347e-14
6.94542e-14
9.35477e-14
7.93763e-14
1.26333e-13
3.75997e-14
3.4006e-14
2.30054e-14
2.42775e-14
2.03439e-14
2.01539e-14
2.00092e-14
1.90096e-14
1.99978e-14
1.8741e-14
1.89067e-14
1.96533e-14
1.89314e-14
1.98887e-14
1.93456e-14
2.10577e-14
2.036e-14
2.80297e-14
2.35851e-14
3.9239e-14
8.52705e-15
7.6347e-15
5.05371e-15
5.38027e-15
4.46285e-15
4.42986e-15
4.39071e-15
4.15799e-15
4.39762e-15
4.09521e-15
4.13487e-15
4.31595e-15
4.13876e-15
4.36777e-15
4.23247e-15
4.64006e-15
4.45752e-15
6.26994e-15
5.22114e-15
9.05255e-15
1.27918e-15
1.13729e-15
7.39435e-16
7.94218e-16
6.52523e-16
6.49126e-16
6.4233e-16
6.06569e-16
6.44894e-16
5.96828e-16
6.03098e-16
6.32132e-16
6.03395e-16
6.39653e-16
6.1736e-16
6.81694e-16
6.50143e-16
9.33276e-16
7.67464e-16
1.37804e-15
1.03063e-16
9.08242e-17
5.79122e-17
6.27178e-17
5.0972e-17
5.08232e-17
5.01988e-17
4.72655e-17
5.05332e-17
4.64529e-17
4.6983e-17
4.94691e-17
4.69823e-17
5.00545e-17
4.80911e-17
5.35488e-17
5.06483e-17
7.4427e-17
6.03154e-17
1.12401e-16
3.12562e-18
2.73868e-18
1.73777e-18
1.88709e-18
1.52961e-18
1.52811e-18
1.50751e-18
1.41946e-18
1.52022e-18
1.39456e-18
1.41059e-18
1.48827e-18
1.40977e-18
1.50571e-18
1.44181e-18
1.61445e-18
1.51464e-18
2.25765e-18
1.80643e-18
3.45295e-18
3.55984e-20
3.11549e-20
1.9923e-20
2.16068e-20
1.75805e-20
1.75833e-20
1.73384e-20
1.63614e-20
1.74908e-20
1.60802e-20
1.62534e-20
1.71438e-20
1.62347e-20
1.73466e-20
1.65762e-20
1.86184e-20
1.73401e-20
2.60166e-20
2.05565e-20
3.99314e-20
)
;

boundaryField
{
    fuel
    {
        type            fixedValue;
        value           nonuniform 0();
    }
    wall
    {
        type            zeroGradient;
    }
    outlet
    {
        type            zeroGradient;
    }
    frontAndBack
    {
        type            empty;
    }
    procBoundary1to0
    {
        type            processor;
        value           nonuniform List<scalar> 
21
(
1.03336e-11
1.04461e-11
8.23304e-12
8.28037e-12
7.37545e-12
7.26011e-12
7.21825e-12
7.01215e-12
7.1615e-12
6.95124e-12
4.49065e-12
4.49065e-12
4.57907e-12
4.50187e-12
4.62158e-12
4.5693e-12
4.83623e-12
4.7906e-12
5.86285e-12
5.05087e-12
6.17559e-12
)
;
    }
}


// ************************************************************************* //
