/*--------------------------------*- C++ -*----------------------------------*\
| =========                 |                                                 |
| \\      /  F ield         | OpenFOAM: The Open Source CFD Toolbox           |
|  \\    /   O peration     | Version:  dev                                   |
|   \\  /    A nd           | Web:      www.OpenFOAM.org                      |
|    \\/     M anipulation  |                                                 |
\*---------------------------------------------------------------------------*/
FoamFile
{
    version     2.0;
    format      ascii;
    class       volScalarField;
    location    "0.14";
    object      CH4;
}
// * * * * * * * * * * * * * * * * * * * * * * * * * * * * * * * * * * * * * //

dimensions      [0 0 0 0 0 0 0];

internalField   nonuniform List<scalar> 
250
(
0.00110607
0.00106714
0.00104526
0.00103549
0.0010344
0.00103386
0.00103379
0.00103435
0.00103387
0.00103451
0.00110623
0.00107038
0.00105047
0.0010418
0.0010407
0.00104021
0.00104013
0.00104062
0.0010402
0.00104076
0.00104065
0.00104029
0.00104058
0.0010402
0.00104047
0.00104038
0.00104305
0.00104878
0.00107008
0.00111895
0.00110558
0.0010728
0.00105473
0.0010471
0.001046
0.00104556
0.00104549
0.0010459
0.00104554
0.00104602
0.00104592
0.00104562
0.00104586
0.00104555
0.00104578
0.00104575
0.00104804
0.00105305
0.00107067
0.00110929
0.00110412
0.0010744
0.00105812
0.00105146
0.00105039
0.00104999
0.00104994
0.00105028
0.00104997
0.00105038
0.0010503
0.00105004
0.00105024
0.00104998
0.00105017
0.0010502
0.00105215
0.00105653
0.00107105
0.00110162
0.00110189
0.00107526
0.00106074
0.00105504
0.00105404
0.00105368
0.00105359
0.00105386
0.00105361
0.00105396
0.00105388
0.00105366
0.00105382
0.00105362
0.00105378
0.0010539
0.00105553
0.00105931
0.00107123
0.0010955
0.00109902
0.00107551
0.00106273
0.00105789
0.00105695
0.00105664
0.00105656
0.00105678
0.00105657
0.00105686
0.00105679
0.00105661
0.00105673
0.00105657
0.0010567
0.00105684
0.00105822
0.00106148
0.00107123
0.00109055
0.0010957
0.00107526
0.00106422
0.00106016
0.0010593
0.00105903
0.00105896
0.00105914
0.00105898
0.00105921
0.00105915
0.00105899
0.00105909
0.00105897
0.00105907
0.00105922
0.00106037
0.00106317
0.00107112
0.00108654
0.00109211
0.00107467
0.0010653
0.00106196
0.00106119
0.00106095
0.0010609
0.00106103
0.00106091
0.00106109
0.00106104
0.00106091
0.00106098
0.00106089
0.00106097
0.00106112
0.00106207
0.00106446
0.00107092
0.00108326
0.00108842
0.00107383
0.00106604
0.00106334
0.00106265
0.00106246
0.00106241
0.0010625
0.00106242
0.00106256
0.00106252
0.00106242
0.00106246
0.0010624
0.00106246
0.0010626
0.00106338
0.00106541
0.00107064
0.00108056
0.00108474
0.0010728
0.00106646
0.00106431
0.00106371
0.00106354
0.00106351
0.00106357
0.00106352
0.00106362
0.00106359
0.0010635
0.00106353
0.00106349
0.00106353
0.00106367
0.0010643
0.00106602
0.00107024
0.00107827
0.00108122
0.00107161
0.00106656
0.00106487
0.00106435
0.00106422
0.00106418
0.00106422
0.0010642
0.00106427
0.00106425
0.00106417
0.00106419
0.00106416
0.00106419
0.00106432
0.00106483
0.00106628
0.00106971
0.00107627
0.00107808
0.00107038
0.00106639
0.00106505
0.00106461
0.0010645
0.00106447
0.0010645
0.00106449
0.00106455
0.00106453
0.00106446
0.00106447
0.00106445
0.00106447
0.00106458
0.00106501
0.00106622
0.00106907
0.00107453
0.00107587
0.00106943
0.00106616
0.00106503
0.00106466
0.00106456
0.00106454
0.00106456
0.00106455
0.0010646
0.00106458
0.00106452
0.00106452
0.00106451
0.00106452
0.00106463
0.00106499
0.00106605
0.00106854
0.00107331
)
;

boundaryField
{
    fuel
    {
        type            fixedValue;
        value           nonuniform 0();
    }
    wall
    {
        type            zeroGradient;
    }
    outlet
    {
        type            zeroGradient;
    }
    frontAndBack
    {
        type            empty;
    }
    procBoundary1to0
    {
        type            processor;
        value           nonuniform List<scalar> 
21
(
0.00110526
0.00106317
0.0010391
0.00102818
0.00102708
0.0010265
0.00102642
0.00102708
0.00102652
0.00102724
0.00103439
0.00103439
0.00103397
0.00103432
0.00103387
0.00103418
0.00103401
0.0010371
0.00104368
0.00106929
0.00113122
)
;
    }
}


// ************************************************************************* //
