/*--------------------------------*- C++ -*----------------------------------*\
| =========                 |                                                 |
| \\      /  F ield         | OpenFOAM: The Open Source CFD Toolbox           |
|  \\    /   O peration     | Version:  dev                                   |
|   \\  /    A nd           | Web:      www.OpenFOAM.org                      |
|    \\/     M anipulation  |                                                 |
\*---------------------------------------------------------------------------*/
FoamFile
{
    version     2.0;
    format      ascii;
    class       volScalarField;
    location    "0.14";
    object      H2C4O;
}
// * * * * * * * * * * * * * * * * * * * * * * * * * * * * * * * * * * * * * //

dimensions      [0 0 0 0 0 0 0];

internalField   nonuniform List<scalar> 
250
(
9.80624e-07
7.80331e-07
7.69779e-07
7.02417e-07
7.10809e-07
6.91458e-07
6.9941e-07
6.91783e-07
6.95669e-07
6.92579e-07
9.0146e-07
7.26053e-07
7.22412e-07
6.59098e-07
6.69316e-07
6.49733e-07
6.5818e-07
6.50138e-07
6.54325e-07
6.51042e-07
6.51218e-07
6.54206e-07
6.51846e-07
6.5549e-07
6.55928e-07
6.59737e-07
6.77084e-07
6.94495e-07
7.72863e-07
8.41197e-07
8.22982e-07
6.68522e-07
6.71052e-07
6.11013e-07
6.23026e-07
6.03083e-07
6.12125e-07
6.03593e-07
6.08102e-07
6.0461e-07
6.04794e-07
6.07988e-07
6.054e-07
6.09134e-07
6.09593e-07
6.12879e-07
6.29129e-07
6.42821e-07
7.13038e-07
7.72349e-07
7.43524e-07
6.07008e-07
6.14663e-07
5.5764e-07
5.71166e-07
5.50941e-07
5.60586e-07
5.51567e-07
5.56358e-07
5.52689e-07
5.5288e-07
5.56246e-07
5.53456e-07
5.57193e-07
5.57782e-07
5.60476e-07
5.75748e-07
5.86049e-07
6.48876e-07
6.99719e-07
6.61909e-07
5.4037e-07
5.52799e-07
4.98426e-07
5.13364e-07
4.93748e-07
5.02808e-07
4.94478e-07
4.99393e-07
4.95667e-07
4.95853e-07
4.99278e-07
4.96386e-07
4.99962e-07
4.99763e-07
5.02798e-07
5.16568e-07
5.2436e-07
5.8008e-07
6.23127e-07
5.78545e-07
4.72972e-07
4.86754e-07
4.37691e-07
4.52223e-07
4.33964e-07
4.42668e-07
4.34717e-07
4.39427e-07
4.35881e-07
4.36049e-07
4.39307e-07
4.36516e-07
4.39742e-07
4.39661e-07
4.42107e-07
4.54355e-07
4.59888e-07
5.08075e-07
5.44066e-07
4.94232e-07
4.08366e-07
4.20604e-07
3.79522e-07
3.92003e-07
3.76575e-07
3.84069e-07
3.7724e-07
3.81296e-07
3.78251e-07
3.78384e-07
3.81172e-07
3.78761e-07
3.81422e-07
3.81415e-07
3.8327e-07
3.93393e-07
3.97453e-07
4.37131e-07
4.66837e-07
4.19357e-07
3.53333e-07
3.61371e-07
3.30643e-07
3.39621e-07
3.2826e-07
3.3379e-07
3.28728e-07
3.31732e-07
3.29466e-07
3.29552e-07
3.31616e-07
3.29827e-07
3.31751e-07
3.31788e-07
3.33099e-07
3.40622e-07
3.43972e-07
3.74338e-07
3.98547e-07
3.60041e-07
3.13703e-07
3.16525e-07
2.96442e-07
3.01496e-07
2.94423e-07
2.97772e-07
2.94643e-07
2.96481e-07
2.95061e-07
2.95093e-07
2.96396e-07
2.95281e-07
2.9647e-07
2.96531e-07
2.97421e-07
3.02386e-07
3.05521e-07
3.26989e-07
3.46523e-07
3.20993e-07
2.90612e-07
2.89341e-07
2.77563e-07
2.79532e-07
2.75781e-07
2.77393e-07
2.75784e-07
2.76695e-07
2.75933e-07
2.75916e-07
2.76664e-07
2.76053e-07
2.76715e-07
2.76778e-07
2.7741e-07
2.80447e-07
2.83469e-07
2.97991e-07
3.13699e-07
2.99832e-07
2.80054e-07
2.76703e-07
2.69937e-07
2.7015e-07
2.68335e-07
2.68926e-07
2.68199e-07
2.68569e-07
2.68181e-07
2.68124e-07
2.686e-07
2.68246e-07
2.68645e-07
2.68691e-07
2.69199e-07
2.71099e-07
2.73893e-07
2.83914e-07
2.96597e-07
2.89919e-07
2.76252e-07
2.72333e-07
2.68024e-07
2.67523e-07
2.66576e-07
2.66721e-07
2.66374e-07
2.66514e-07
2.66276e-07
2.66194e-07
2.66596e-07
2.6632e-07
2.66641e-07
2.66661e-07
2.67122e-07
2.68472e-07
2.70951e-07
2.78404e-07
2.8883e-07
2.85341e-07
2.74868e-07
2.70926e-07
2.6773e-07
2.67003e-07
2.66395e-07
2.66382e-07
2.6617e-07
2.66233e-07
2.66041e-07
2.65947e-07
2.6634e-07
2.6608e-07
2.66386e-07
2.66387e-07
2.66828e-07
2.67924e-07
2.70158e-07
2.76249e-07
2.85261e-07
)
;

boundaryField
{
    fuel
    {
        type            fixedValue;
        value           nonuniform 0();
    }
    wall
    {
        type            zeroGradient;
    }
    outlet
    {
        type            zeroGradient;
    }
    frontAndBack
    {
        type            empty;
    }
    procBoundary1to0
    {
        type            processor;
        value           nonuniform List<scalar> 
21
(
1.06224e-06
8.32332e-07
8.14234e-07
7.41813e-07
7.48438e-07
7.2912e-07
7.36697e-07
7.29395e-07
7.33018e-07
7.30095e-07
6.9275e-07
6.9275e-07
6.95541e-07
6.934e-07
6.96931e-07
6.97403e-07
7.01715e-07
7.20359e-07
7.4178e-07
8.29307e-07
9.07077e-07
)
;
    }
}


// ************************************************************************* //
