/*--------------------------------*- C++ -*----------------------------------*\
| =========                 |                                                 |
| \\      /  F ield         | OpenFOAM: The Open Source CFD Toolbox           |
|  \\    /   O peration     | Version:  dev                                   |
|   \\  /    A nd           | Web:      www.OpenFOAM.org                      |
|    \\/     M anipulation  |                                                 |
\*---------------------------------------------------------------------------*/
FoamFile
{
    version     2.0;
    format      ascii;
    class       volScalarField;
    location    "0.14";
    object      i-A1C2H2;
}
// * * * * * * * * * * * * * * * * * * * * * * * * * * * * * * * * * * * * * //

dimensions      [0 0 0 0 0 0 0];

internalField   nonuniform List<scalar> 
250
(
2.4957e-11
2.0178e-11
1.76724e-11
1.66759e-11
1.6527e-11
1.64575e-11
1.64534e-11
1.65036e-11
1.6441e-11
1.65111e-11
2.56758e-11
2.12199e-11
1.90413e-11
1.80903e-11
1.80099e-11
1.79474e-11
1.79516e-11
1.80188e-11
1.79377e-11
1.80315e-11
1.80159e-11
1.79606e-11
1.80147e-11
1.79525e-11
1.79996e-11
1.79453e-11
1.82525e-11
1.87547e-11
2.13929e-11
2.85218e-11
2.71978e-11
2.29929e-11
2.11644e-11
2.02252e-11
2.02471e-11
2.01901e-11
2.02071e-11
2.03035e-11
2.01902e-11
2.03248e-11
2.03033e-11
2.02245e-11
2.03008e-11
2.02104e-11
2.02749e-11
2.01617e-11
2.04767e-11
2.07243e-11
2.31468e-11
2.85131e-11
3.0046e-11
2.60141e-11
2.45876e-11
2.36187e-11
2.37905e-11
2.37353e-11
2.37674e-11
2.39086e-11
2.3744e-11
2.39429e-11
2.39117e-11
2.37952e-11
2.39077e-11
2.37724e-11
2.3866e-11
2.36674e-11
2.40146e-11
2.39211e-11
2.62671e-11
3.00875e-11
3.50913e-11
3.1136e-11
3.01893e-11
2.91621e-11
2.95672e-11
2.95104e-11
2.95115e-11
2.97165e-11
2.94748e-11
2.9769e-11
2.97238e-11
2.955e-11
2.97185e-11
2.95156e-11
2.96556e-11
2.93856e-11
2.97882e-11
2.91906e-11
3.16331e-11
3.39501e-11
4.38254e-11
3.98289e-11
3.94843e-11
3.82953e-11
3.89958e-11
3.89291e-11
3.89607e-11
3.92571e-11
3.88994e-11
3.9336e-11
3.92706e-11
3.90087e-11
3.92643e-11
3.8959e-11
3.91729e-11
3.87124e-11
3.92363e-11
3.7986e-11
4.0694e-11
4.14174e-11
5.9211e-11
5.49909e-11
5.54991e-11
5.40201e-11
5.51881e-11
5.51007e-11
5.51715e-11
5.56099e-11
5.50645e-11
5.57308e-11
5.56344e-11
5.5226e-11
5.56278e-11
5.51539e-11
5.54936e-11
5.47273e-11
5.54718e-11
5.3195e-11
5.64888e-11
5.51894e-11
8.80441e-11
8.32975e-11
8.5223e-11
8.32122e-11
8.52045e-11
8.50723e-11
8.52103e-11
8.5891e-11
8.50134e-11
8.60859e-11
8.59369e-11
8.52628e-11
8.59314e-11
8.51549e-11
8.57257e-11
8.44121e-11
8.55732e-11
8.14998e-11
8.5959e-11
8.15746e-11
1.47836e-10
1.42061e-10
1.46485e-10
1.43531e-10
1.46987e-10
1.46742e-10
1.47014e-10
1.48093e-10
1.46627e-10
1.48417e-10
1.48182e-10
1.47021e-10
1.48181e-10
1.4686e-10
1.47865e-10
1.45553e-10
1.47509e-10
1.40187e-10
1.46792e-10
1.37105e-10
2.86378e-10
2.78168e-10
2.8463e-10
2.8056e-10
2.85262e-10
2.84703e-10
2.85174e-10
2.86424e-10
2.84432e-10
2.86834e-10
2.86568e-10
2.84881e-10
2.86585e-10
2.84728e-10
2.86296e-10
2.82837e-10
2.86039e-10
2.7499e-10
2.84375e-10
2.67835e-10
5.66624e-10
5.47013e-10
5.305e-10
5.29766e-10
5.23987e-10
5.22776e-10
5.22801e-10
5.20436e-10
5.22162e-10
5.19827e-10
5.20426e-10
5.2115e-10
5.20501e-10
5.21587e-10
5.2177e-10
5.22566e-10
5.25116e-10
5.29708e-10
5.33419e-10
5.39334e-10
7.55949e-10
7.18237e-10
6.60584e-10
6.66037e-10
6.4326e-10
6.41572e-10
6.40639e-10
6.32837e-10
6.41077e-10
6.30517e-10
6.32712e-10
6.37543e-10
6.32935e-10
6.38573e-10
6.3638e-10
6.44031e-10
6.45149e-10
6.77164e-10
6.71482e-10
7.27485e-10
7.83049e-10
7.38818e-10
6.77389e-10
6.8116e-10
6.57443e-10
6.54935e-10
6.54161e-10
6.44843e-10
6.55198e-10
6.41843e-10
6.45207e-10
6.50308e-10
6.45727e-10
6.51145e-10
6.49841e-10
6.56323e-10
6.61027e-10
6.90084e-10
6.93833e-10
7.46911e-10
)
;

boundaryField
{
    fuel
    {
        type            fixedValue;
        value           nonuniform 0();
    }
    wall
    {
        type            zeroGradient;
    }
    outlet
    {
        type            zeroGradient;
    }
    frontAndBack
    {
        type            empty;
    }
    procBoundary1to0
    {
        type            processor;
        value           nonuniform List<scalar> 
21
(
2.47369e-11
1.95632e-11
1.67232e-11
1.56567e-11
1.54608e-11
1.53843e-11
1.53757e-11
1.54173e-11
1.53644e-11
1.54218e-11
1.64984e-11
1.64984e-11
1.64564e-11
1.64983e-11
1.64521e-11
1.64894e-11
1.64721e-11
1.67888e-11
1.74922e-11
2.04781e-11
2.97563e-11
)
;
    }
}


// ************************************************************************* //
