/*--------------------------------*- C++ -*----------------------------------*\
| =========                 |                                                 |
| \\      /  F ield         | OpenFOAM: The Open Source CFD Toolbox           |
|  \\    /   O peration     | Version:  dev                                   |
|   \\  /    A nd           | Web:      www.OpenFOAM.org                      |
|    \\/     M anipulation  |                                                 |
\*---------------------------------------------------------------------------*/
FoamFile
{
    version     2.0;
    format      ascii;
    class       volScalarField;
    location    "0.14";
    object      N2;
}
// * * * * * * * * * * * * * * * * * * * * * * * * * * * * * * * * * * * * * //

dimensions      [0 0 0 0 0 0 0];

internalField   nonuniform List<scalar> 
250
(
0.000814995
0.000371906
0.000109211
3.03215e-05
7.28124e-06
1.93079e-06
5.51687e-07
1.88924e-07
5.69854e-08
3.80526e-08
0.000726051
0.000330671
9.71435e-05
2.73398e-05
6.748e-06
1.85023e-06
5.70802e-07
2.2605e-07
1.00766e-07
8.14261e-08
1.42885e-07
1.94409e-07
2.9828e-07
6.06771e-07
1.75695e-06
6.2551e-06
2.35369e-05
8.69941e-05
0.00024684
0.000699155
0.00064114
0.000291307
8.56287e-05
2.44466e-05
6.21032e-06
1.76579e-06
5.89576e-07
2.63953e-07
1.46334e-07
1.26842e-07
1.8642e-07
2.3463e-07
3.34533e-07
6.25125e-07
1.69025e-06
5.75899e-06
2.10664e-05
7.60739e-05
0.000212122
0.000581535
0.000560556
0.000253968
7.47378e-05
2.16692e-05
5.67838e-06
1.68158e-06
6.09774e-07
3.04447e-07
1.94975e-07
1.75632e-07
2.32171e-07
2.77056e-07
3.72383e-07
6.45001e-07
1.62367e-06
5.28107e-06
1.87456e-05
6.61153e-05
0.000181533
0.000482494
0.000484523
0.000218818
6.45363e-05
1.90062e-05
5.15051e-06
1.59942e-06
6.32742e-07
3.48913e-07
2.47523e-07
2.2866e-07
2.80888e-07
3.22373e-07
4.12617e-07
6.66912e-07
1.55873e-06
4.81353e-06
1.65403e-05
5.70722e-05
0.000154305
0.000399075
0.000413239
0.000186039
5.50874e-05
1.65298e-05
4.65196e-06
1.52449e-06
6.58913e-07
3.97678e-07
3.03887e-07
2.85913e-07
3.32909e-07
3.70905e-07
4.55685e-07
6.91136e-07
1.49697e-06
4.37572e-06
1.45197e-05
4.89044e-05
0.00013061
0.000328911
0.000347415
0.000155829
4.64467e-05
1.42373e-05
4.1799e-06
1.45658e-06
6.88101e-07
4.50166e-07
3.63337e-07
3.46646e-07
3.8791e-07
4.22411e-07
5.01435e-07
7.17692e-07
1.43945e-06
3.96215e-06
1.26551e-05
4.15683e-05
0.000109825
0.000269974
0.000287377
0.00012839
3.86629e-05
1.21472e-05
3.74031e-06
1.39645e-06
7.19837e-07
5.05242e-07
4.24809e-07
4.09656e-07
4.45069e-07
4.76146e-07
5.49247e-07
7.4633e-07
1.38702e-06
3.57632e-06
1.09515e-05
3.50263e-05
9.16764e-05
0.000220549
0.000233517
0.000103925
3.178e-05
1.02765e-05
3.33943e-06
1.34463e-06
7.5342e-07
5.61412e-07
4.86947e-07
4.73397e-07
5.03178e-07
5.30941e-07
5.98138e-07
7.76519e-07
1.34047e-06
3.22225e-06
9.41696e-06
2.92532e-05
7.59529e-05
0.000179255
0.000186368
8.26553e-05
2.58431e-05
8.64319e-06
2.98387e-06
1.30149e-06
7.87762e-07
6.16781e-07
5.47925e-07
5.35872e-07
5.60531e-07
5.85135e-07
6.4667e-07
8.07346e-07
1.30053e-06
2.90491e-06
8.06351e-06
2.42452e-05
6.25275e-05
0.000145078
0.000146657
6.48664e-05
2.09137e-05
7.27032e-06
2.68136e-06
1.26727e-06
8.21127e-07
6.68784e-07
6.05097e-07
5.94317e-07
6.14602e-07
6.36297e-07
6.92664e-07
8.37309e-07
1.26782e-06
2.63107e-06
6.9114e-06
2.00351e-05
5.13911e-05
0.00011744
0.000115583
5.1039e-05
1.71069e-05
6.19731e-06
2.44283e-06
1.24217e-06
8.50674e-07
7.13554e-07
6.54304e-07
6.44498e-07
6.61372e-07
6.80599e-07
7.32619e-07
8.63888e-07
1.24303e-06
2.41162e-06
5.99846e-06
1.67268e-05
4.27386e-05
9.6373e-05
9.57479e-05
4.2257e-05
1.47036e-05
5.51257e-06
2.28966e-06
1.22699e-06
8.7135e-07
7.44286e-07
6.8811e-07
6.78891e-07
6.93624e-07
7.11184e-07
7.60243e-07
8.82531e-07
1.22756e-06
2.26852e-06
5.40862e-06
1.45975e-05
3.7226e-05
8.3106e-05
)
;

boundaryField
{
    fuel
    {
        type            fixedValue;
        value           nonuniform 0();
    }
    wall
    {
        type            zeroGradient;
    }
    outlet
    {
        type            zeroGradient;
    }
    frontAndBack
    {
        type            empty;
    }
    procBoundary1to0
    {
        type            processor;
        value           nonuniform List<scalar> 
21
(
0.000906555
0.000414469
0.000121688
3.33557e-05
7.79846e-06
2.00402e-06
5.32499e-07
1.51752e-07
1.55285e-08
0
1.01758e-07
1.01758e-07
1.55715e-07
2.63884e-07
5.87758e-07
1.82465e-06
6.75818e-06
2.61594e-05
9.89525e-05
0.000286128
0.000841267
)
;
    }
}


// ************************************************************************* //
