/*--------------------------------*- C++ -*----------------------------------*\
| =========                 |                                                 |
| \\      /  F ield         | OpenFOAM: The Open Source CFD Toolbox           |
|  \\    /   O peration     | Version:  dev                                   |
|   \\  /    A nd           | Web:      www.OpenFOAM.org                      |
|    \\/     M anipulation  |                                                 |
\*---------------------------------------------------------------------------*/
FoamFile
{
    version     2.0;
    format      ascii;
    class       volScalarField;
    location    "0.14";
    object      naphthyne;
}
// * * * * * * * * * * * * * * * * * * * * * * * * * * * * * * * * * * * * * //

dimensions      [0 0 0 0 0 0 0];

internalField   nonuniform List<scalar> 
250
(
2.46221e-09
1.8306e-09
1.47929e-09
1.36981e-09
1.33333e-09
1.32302e-09
1.32077e-09
1.32014e-09
1.31899e-09
1.31913e-09
2.30866e-09
1.75199e-09
1.44033e-09
1.34586e-09
1.31117e-09
1.30183e-09
1.2996e-09
1.29835e-09
1.2979e-09
1.29731e-09
1.29709e-09
1.2971e-09
1.29748e-09
1.2986e-09
1.29972e-09
1.3096e-09
1.33795e-09
1.44563e-09
1.71996e-09
2.73395e-09
2.15709e-09
1.66769e-09
1.39401e-09
1.31285e-09
1.28135e-09
1.27312e-09
1.27099e-09
1.26959e-09
1.26946e-09
1.26863e-09
1.26844e-09
1.26869e-09
1.26877e-09
1.27015e-09
1.27098e-09
1.28059e-09
1.30451e-09
1.39866e-09
1.61973e-09
2.39904e-09
2.01641e-09
1.58667e-09
1.3491e-09
1.27938e-09
1.25206e-09
1.245e-09
1.24299e-09
1.2418e-09
1.24166e-09
1.24102e-09
1.2408e-09
1.24101e-09
1.24105e-09
1.24233e-09
1.24306e-09
1.25174e-09
1.27204e-09
1.35209e-09
1.53196e-09
2.1308e-09
1.89342e-09
1.51628e-09
1.31211e-09
1.25188e-09
1.22889e-09
1.22292e-09
1.22149e-09
1.22071e-09
1.22036e-09
1.22011e-09
1.21984e-09
1.21987e-09
1.22001e-09
1.22099e-09
1.22176e-09
1.22869e-09
1.24612e-09
1.31284e-09
1.45996e-09
1.92045e-09
1.79003e-09
1.45984e-09
1.28566e-09
1.2339e-09
1.21507e-09
1.21005e-09
1.20878e-09
1.20836e-09
1.20782e-09
1.20794e-09
1.20762e-09
1.20745e-09
1.20772e-09
1.20838e-09
1.20922e-09
1.21484e-09
1.2299e-09
1.28425e-09
1.40586e-09
1.75926e-09
1.70385e-09
1.41615e-09
1.26842e-09
1.2243e-09
1.2089e-09
1.20468e-09
1.20355e-09
1.20335e-09
1.20272e-09
1.20304e-09
1.2027e-09
1.2024e-09
1.20275e-09
1.20318e-09
1.20406e-09
1.2086e-09
1.22159e-09
1.26559e-09
1.36606e-09
1.63745e-09
1.62907e-09
1.38114e-09
1.25687e-09
1.21978e-09
1.20706e-09
1.20352e-09
1.20252e-09
1.20239e-09
1.2018e-09
1.20215e-09
1.20183e-09
1.20149e-09
1.20183e-09
1.20215e-09
1.203e-09
1.20674e-09
1.21782e-09
1.25351e-09
1.33599e-09
1.54486e-09
1.56083e-09
1.35081e-09
1.24779e-09
1.21713e-09
1.20661e-09
1.20363e-09
1.20276e-09
1.20263e-09
1.20213e-09
1.20243e-09
1.20213e-09
1.2018e-09
1.20209e-09
1.20237e-09
1.20315e-09
1.20628e-09
1.21561e-09
1.24459e-09
1.31177e-09
1.47289e-09
1.49771e-09
1.32349e-09
1.23981e-09
1.21486e-09
1.20622e-09
1.20373e-09
1.20297e-09
1.20282e-09
1.20243e-09
1.20266e-09
1.2024e-09
1.20207e-09
1.20232e-09
1.20257e-09
1.20326e-09
1.20588e-09
1.21366e-09
1.23709e-09
1.29154e-09
1.41617e-09
1.44131e-09
1.29954e-09
1.23293e-09
1.21283e-09
1.20579e-09
1.20372e-09
1.20306e-09
1.2029e-09
1.20259e-09
1.20277e-09
1.20253e-09
1.20221e-09
1.20242e-09
1.20265e-09
1.20325e-09
1.20544e-09
1.2119e-09
1.23078e-09
1.27501e-09
1.37221e-09
1.39489e-09
1.28019e-09
1.22749e-09
1.21122e-09
1.20545e-09
1.20369e-09
1.20312e-09
1.20294e-09
1.2027e-09
1.20284e-09
1.20262e-09
1.20231e-09
1.20249e-09
1.20269e-09
1.20323e-09
1.20508e-09
1.21049e-09
1.22588e-09
1.26243e-09
1.34006e-09
1.36407e-09
1.26752e-09
1.22401e-09
1.21019e-09
1.20523e-09
1.20367e-09
1.20316e-09
1.20297e-09
1.20276e-09
1.20289e-09
1.20268e-09
1.20238e-09
1.20253e-09
1.20272e-09
1.20321e-09
1.20484e-09
1.20958e-09
1.22277e-09
1.25456e-09
1.32051e-09
)
;

boundaryField
{
    fuel
    {
        type            fixedValue;
        value           nonuniform 0();
    }
    wall
    {
        type            zeroGradient;
    }
    outlet
    {
        type            zeroGradient;
    }
    frontAndBack
    {
        type            empty;
    }
    procBoundary1to0
    {
        type            processor;
        value           nonuniform List<scalar> 
21
(
2.61091e-09
1.89639e-09
1.50266e-09
1.377e-09
1.34002e-09
1.32893e-09
1.32676e-09
1.32719e-09
1.32501e-09
1.32632e-09
1.3188e-09
1.3188e-09
1.31828e-09
1.31923e-09
1.31966e-09
1.32126e-09
1.33062e-09
1.36414e-09
1.48449e-09
1.82628e-09
3.14656e-09
)
;
    }
}


// ************************************************************************* //
