/*--------------------------------*- C++ -*----------------------------------*\
| =========                 |                                                 |
| \\      /  F ield         | OpenFOAM: The Open Source CFD Toolbox           |
|  \\    /   O peration     | Version:  dev                                   |
|   \\  /    A nd           | Web:      www.OpenFOAM.org                      |
|    \\/     M anipulation  |                                                 |
\*---------------------------------------------------------------------------*/
FoamFile
{
    version     2.0;
    format      ascii;
    class       volScalarField;
    location    "0.14";
    object      p;
}
// * * * * * * * * * * * * * * * * * * * * * * * * * * * * * * * * * * * * * //

dimensions      [1 -1 -2 0 0 0 0];

internalField   nonuniform List<scalar> 
50
(
99861.7
99862
99862.2
99862.5
99862.7
99863
99863.3
99863.6
99863.8
99864.1
99864.4
99864.7
99865
99865.3
99865.6
99866
99866.3
99866.6
99867
99867.3
99867.7
99868
99868.4
99868.8
99869.2
99869.6
99870
99870.4
99870.9
99871.3
99871.7
99872.2
99872.7
99873.2
99873.6
99874.1
99874.7
99875.2
99875.7
99876.3
99876.8
99877.4
99877.9
99878.5
99879.1
99879.7
99880.4
99881
99881.6
99882.3
)
;

boundaryField
{
    wall
    {
        type            zeroGradient;
    }
    fuel
    {
        type            zeroGradient;
    }
    outlet
    {
        type            totalPressure;
        rho             none;
        psi             none;
        gamma           1;
        p0              nonuniform 0();
        value           nonuniform 0();
    }
    procBoundary1to0
    {
        type            processor;
        value           uniform 99861.5;
    }
    procBoundary1to2
    {
        type            processor;
        value           uniform 99883;
    }
}


// ************************************************************************* //
