/*--------------------------------*- C++ -*----------------------------------*\
| =========                 |                                                 |
| \\      /  F ield         | OpenFOAM: The Open Source CFD Toolbox           |
|  \\    /   O peration     | Version:  dev                                   |
|   \\  /    A nd           | Web:      www.OpenFOAM.org                      |
|    \\/     M anipulation  |                                                 |
\*---------------------------------------------------------------------------*/
FoamFile
{
    version     2.0;
    format      ascii;
    class       volScalarField;
    location    "0.2";
    object      A2R5;
}
// * * * * * * * * * * * * * * * * * * * * * * * * * * * * * * * * * * * * * //

dimensions      [0 0 0 0 0 0 0];

internalField   nonuniform List<scalar> 
250
(
2.91325e-07
2.91333e-07
2.91359e-07
2.91377e-07
2.91342e-07
2.9142e-07
2.91842e-07
2.93591e-07
3.07257e-07
3.71211e-07
1.825e-08
3.08581e-07
3.08597e-07
3.08638e-07
3.08649e-07
3.0861e-07
3.0871e-07
3.09337e-07
3.1187e-07
3.31871e-07
4.25884e-07
4.77046e-08
2.86444e-07
2.86479e-07
2.86535e-07
2.86531e-07
2.86495e-07
2.86603e-07
2.87436e-07
2.90374e-07
3.14716e-07
4.21558e-07
7.79386e-08
2.62206e-07
2.62265e-07
2.62338e-07
2.62319e-07
2.62267e-07
2.624e-07
2.63437e-07
2.66677e-07
2.94561e-07
4.07852e-07
1.21158e-07
2.40774e-07
2.40864e-07
2.40953e-07
2.40917e-07
2.40814e-07
2.41011e-07
2.4224e-07
2.45761e-07
2.76672e-07
3.9437e-07
1.89893e-07
2.22403e-07
2.2253e-07
2.22631e-07
2.22576e-07
2.22378e-07
2.22692e-07
2.24101e-07
2.27898e-07
2.60507e-07
3.83627e-07
2.37983e-07
2.06667e-07
2.06844e-07
2.06955e-07
2.06878e-07
2.06534e-07
2.07032e-07
2.08631e-07
2.12708e-07
2.47198e-07
3.74314e-07
2.82885e-07
1.92983e-07
1.93206e-07
1.93321e-07
1.93218e-07
1.92862e-07
1.93428e-07
1.95256e-07
1.99739e-07
2.35093e-07
3.66449e-07
3.30341e-07
1.80673e-07
1.80935e-07
1.8105e-07
1.80916e-07
1.81004e-07
1.81067e-07
1.82614e-07
1.86885e-07
2.25186e-07
3.59738e-07
3.76496e-07
1.69944e-07
1.70249e-07
1.70366e-07
1.70169e-07
1.70463e-07
1.70408e-07
1.72288e-07
1.76846e-07
2.15506e-07
3.52626e-07
4.16092e-07
1.59897e-07
1.60006e-07
1.59742e-07
1.59852e-07
1.60082e-07
1.62025e-07
1.67005e-07
2.06586e-07
3.45643e-07
4.45735e-07
1.50406e-07
1.50506e-07
1.50142e-07
1.51258e-07
1.50605e-07
1.52606e-07
1.57846e-07
1.9803e-07
3.37699e-07
4.64572e-07
1.41573e-07
1.41664e-07
1.41148e-07
1.42303e-07
1.41772e-07
1.43822e-07
1.4928e-07
1.89528e-07
3.28902e-07
4.7375e-07
1.33282e-07
1.33367e-07
1.32628e-07
1.33784e-07
1.33476e-07
1.35567e-07
1.41205e-07
1.82694e-07
3.19246e-07
4.75493e-07
1.25468e-07
1.25556e-07
1.25606e-07
1.25837e-07
1.25659e-07
1.27774e-07
1.33538e-07
1.7574e-07
3.09474e-07
4.72235e-07
1.18094e-07
1.18183e-07
1.18171e-07
1.18382e-07
1.18282e-07
1.20403e-07
1.26225e-07
1.68e-07
2.98983e-07
4.65999e-07
1.11131e-07
1.11221e-07
1.11136e-07
1.11374e-07
1.11319e-07
1.13425e-07
1.19237e-07
1.6023e-07
2.87177e-07
4.5815e-07
1.04565e-07
1.04654e-07
1.04472e-07
1.04782e-07
1.04753e-07
1.06822e-07
1.12556e-07
1.52344e-07
2.7461e-07
4.49428e-07
9.83822e-08
9.8467e-08
9.81607e-08
9.85845e-08
9.85714e-08
1.00584e-07
1.06172e-07
1.45929e-07
2.61567e-07
4.38366e-07
9.25741e-08
9.26512e-08
9.21906e-08
9.27696e-08
9.27639e-08
9.46991e-08
1.00063e-07
1.38916e-07
2.48149e-07
4.27284e-07
8.71313e-08
8.72002e-08
8.7281e-08
8.73289e-08
8.73217e-08
8.91578e-08
9.48567e-08
1.31606e-07
2.34501e-07
4.13497e-07
8.20429e-08
8.21046e-08
8.22542e-08
8.22374e-08
8.22353e-08
8.39351e-08
8.9662e-08
1.24455e-07
2.20789e-07
3.98695e-07
7.78744e-08
7.79435e-08
7.81142e-08
7.8076e-08
7.80595e-08
7.96992e-08
8.5145e-08
1.17493e-07
2.07175e-07
3.80913e-07
7.37556e-08
7.38461e-08
7.39893e-08
7.39581e-08
7.39479e-08
7.54931e-08
8.07302e-08
1.10717e-07
1.93803e-07
3.62095e-07
)
;

boundaryField
{
    fuel
    {
        type            fixedValue;
        value           uniform 0;
    }
    wall
    {
        type            zeroGradient;
    }
    outlet
    {
        type            zeroGradient;
    }
    frontAndBack
    {
        type            empty;
    }
    procBoundary3to0
    {
        type            processor;
        value           nonuniform List<scalar> 10(7.03471e-08 7.04514e-08 7.05538e-08 7.0543e-08 7.0534e-08 7.19884e-08 7.6944e-08 1.04081e-07 1.80802e-07 3.41982e-07);
    }
    procBoundary3to2
    {
        type            processor;
        value           nonuniform List<scalar> 
25
(
2.91355e-07
3.08624e-07
2.86503e-07
2.6228e-07
2.40863e-07
2.22506e-07
2.06792e-07
1.93128e-07
1.80836e-07
1.70127e-07
1.59644e-07
1.59644e-07
1.50274e-07
1.416e-07
1.33449e-07
1.25725e-07
1.18388e-07
1.11429e-07
1.04848e-07
9.86406e-08
9.28038e-08
8.73307e-08
8.22116e-08
7.80183e-08
7.38752e-08
)
;
    }
}


// ************************************************************************* //
