/*--------------------------------*- C++ -*----------------------------------*\
| =========                 |                                                 |
| \\      /  F ield         | OpenFOAM: The Open Source CFD Toolbox           |
|  \\    /   O peration     | Version:  dev                                   |
|   \\  /    A nd           | Web:      www.OpenFOAM.org                      |
|    \\/     M anipulation  |                                                 |
\*---------------------------------------------------------------------------*/
FoamFile
{
    version     2.0;
    format      ascii;
    class       volScalarField;
    location    "0.2";
    object      C2O;
}
// * * * * * * * * * * * * * * * * * * * * * * * * * * * * * * * * * * * * * //

dimensions      [0 0 0 0 0 0 0];

internalField   nonuniform List<scalar> 
250
(
5.75437e-06
5.75468e-06
5.75473e-06
5.75485e-06
5.75466e-06
5.7546e-06
5.75414e-06
5.73747e-06
5.66246e-06
5.02424e-06
9.45012e-10
7.12669e-06
7.1273e-06
7.12724e-06
7.12731e-06
7.12786e-06
7.12608e-06
7.13095e-06
7.11198e-06
7.08482e-06
6.6262e-06
2.17045e-09
4.11901e-06
4.11971e-06
4.11981e-06
4.11945e-06
4.12122e-06
4.11745e-06
4.12826e-06
4.10688e-06
4.1356e-06
3.93206e-06
5.13713e-09
2.32067e-06
2.32131e-06
2.3216e-06
2.3211e-06
2.32277e-06
2.31938e-06
2.33081e-06
2.31073e-06
2.35778e-06
2.29761e-06
3.5842e-07
1.47117e-06
1.47181e-06
1.47219e-06
1.47168e-06
1.47262e-06
1.47053e-06
1.48035e-06
1.46358e-06
1.51456e-06
1.49725e-06
6.32287e-06
1.0576e-06
1.05826e-06
1.05865e-06
1.05817e-06
1.05822e-06
1.05752e-06
1.06555e-06
1.05187e-06
1.08377e-06
1.07647e-06
8.55303e-06
8.37428e-07
8.38256e-07
8.38633e-07
8.38139e-07
8.37057e-07
8.37941e-07
8.44735e-07
8.33394e-07
8.61314e-07
8.20383e-07
6.06786e-06
7.08135e-07
7.09044e-07
7.09402e-07
7.08862e-07
7.07579e-07
7.09088e-07
7.15409e-07
7.06628e-07
7.22877e-07
6.62903e-07
3.81066e-06
6.23518e-07
6.2449e-07
6.24826e-07
6.24214e-07
6.25165e-07
6.24069e-07
6.27067e-07
6.1615e-07
6.365e-07
5.64365e-07
2.43313e-06
5.65488e-07
5.66602e-07
5.66941e-07
5.66111e-07
5.67854e-07
5.6639e-07
5.70108e-07
5.60499e-07
5.69812e-07
4.89586e-07
1.61561e-06
5.20711e-07
5.21013e-07
5.19997e-07
5.20674e-07
5.20661e-07
5.23826e-07
5.15391e-07
5.19343e-07
4.35731e-07
1.10421e-06
4.84363e-07
4.84637e-07
4.83338e-07
4.87406e-07
4.84389e-07
4.87198e-07
4.79074e-07
4.78293e-07
3.90779e-07
7.69677e-07
4.53828e-07
4.54081e-07
4.52356e-07
4.56237e-07
4.53867e-07
4.56441e-07
4.48481e-07
4.42811e-07
3.53702e-07
5.46472e-07
4.27062e-07
4.27308e-07
4.24945e-07
4.28633e-07
4.27101e-07
4.29523e-07
4.21701e-07
4.17092e-07
3.22597e-07
3.96094e-07
4.02873e-07
4.03132e-07
4.03131e-07
4.04002e-07
4.02922e-07
4.05242e-07
3.97525e-07
3.93305e-07
2.97787e-07
2.95506e-07
3.805e-07
3.80774e-07
3.80514e-07
3.81398e-07
3.80575e-07
3.8282e-07
3.75176e-07
3.69196e-07
2.76355e-07
2.27881e-07
3.59419e-07
3.59703e-07
3.59166e-07
3.60213e-07
3.59533e-07
3.61723e-07
3.54137e-07
3.46856e-07
2.56626e-07
1.82386e-07
3.39237e-07
3.39525e-07
3.38665e-07
3.40001e-07
3.39402e-07
3.41551e-07
3.3402e-07
3.25635e-07
2.39076e-07
1.52093e-07
3.19643e-07
3.19925e-07
3.1868e-07
3.20419e-07
3.19868e-07
3.21989e-07
3.14512e-07
3.09042e-07
2.23514e-07
1.29487e-07
3.00372e-07
3.00645e-07
2.9894e-07
3.01193e-07
3.00666e-07
3.02765e-07
2.95295e-07
2.91519e-07
2.09498e-07
1.1581e-07
2.81188e-07
2.81461e-07
2.81603e-07
2.82085e-07
2.8156e-07
2.83623e-07
2.78078e-07
2.73635e-07
1.9667e-07
1.0608e-07
2.61851e-07
2.62142e-07
2.62455e-07
2.62805e-07
2.62312e-07
2.64259e-07
2.59854e-07
2.56154e-07
1.84738e-07
9.99469e-08
2.44386e-07
2.44754e-07
2.4507e-07
2.45435e-07
2.44898e-07
2.47013e-07
2.42703e-07
2.38805e-07
1.73439e-07
9.53616e-08
2.25215e-07
2.25714e-07
2.25874e-07
2.26343e-07
2.2585e-07
2.28052e-07
2.24367e-07
2.21234e-07
1.62517e-07
9.20333e-08
)
;

boundaryField
{
    fuel
    {
        type            fixedValue;
        value           uniform 0;
    }
    wall
    {
        type            zeroGradient;
    }
    outlet
    {
        type            zeroGradient;
    }
    frontAndBack
    {
        type            empty;
    }
    procBoundary3to0
    {
        type            processor;
        value           nonuniform List<scalar> 10(2.07202e-07 2.07789e-07 2.07777e-07 2.08385e-07 2.07894e-07 2.10213e-07 2.06784e-07 2.03115e-07 1.51757e-07 8.93047e-08);
    }
    procBoundary3to2
    {
        type            processor;
        value           nonuniform List<scalar> 
25
(
5.75473e-06
7.12727e-06
4.11971e-06
2.32131e-06
1.47174e-06
1.0581e-06
8.3798e-07
7.08699e-07
6.24111e-07
5.66159e-07
5.19829e-07
5.19829e-07
4.83908e-07
4.53867e-07
4.27491e-07
4.03516e-07
3.81208e-07
3.601e-07
3.39848e-07
3.20165e-07
3.008e-07
2.81523e-07
2.62093e-07
2.44556e-07
2.25317e-07
)
;
    }
}


// ************************************************************************* //
