/*--------------------------------*- C++ -*----------------------------------*\
| =========                 |                                                 |
| \\      /  F ield         | OpenFOAM: The Open Source CFD Toolbox           |
|  \\    /   O peration     | Version:  dev                                   |
|   \\  /    A nd           | Web:      www.OpenFOAM.org                      |
|    \\/     M anipulation  |                                                 |
\*---------------------------------------------------------------------------*/
FoamFile
{
    version     2.0;
    format      ascii;
    class       volScalarField;
    location    "0.2";
    object      CH2;
}
// * * * * * * * * * * * * * * * * * * * * * * * * * * * * * * * * * * * * * //

dimensions      [0 0 0 0 0 0 0];

internalField   nonuniform List<scalar> 
250
(
3.8775e-05
3.87757e-05
3.87757e-05
3.87759e-05
3.87756e-05
3.8775e-05
3.8774e-05
3.87284e-05
3.85243e-05
3.67664e-05
6.87862e-09
2.38681e-05
2.38694e-05
2.38689e-05
2.38684e-05
2.38725e-05
2.38634e-05
2.38835e-05
2.38398e-05
2.38625e-05
2.33755e-05
7.87761e-09
1.06651e-05
1.06663e-05
1.06663e-05
1.0665e-05
1.06715e-05
1.06585e-05
1.06894e-05
1.06329e-05
1.07301e-05
1.06261e-05
5.54173e-08
5.1163e-06
5.11713e-06
5.11759e-06
5.11631e-06
5.12176e-06
5.11123e-06
5.13874e-06
5.0859e-06
5.18255e-06
5.28845e-06
4.96809e-06
2.91374e-06
2.91434e-06
2.91494e-06
2.91393e-06
2.91737e-06
2.91068e-06
2.93113e-06
2.88797e-06
2.96874e-06
3.06577e-06
3.9096e-05
1.96808e-06
1.96858e-06
1.96916e-06
1.96837e-06
1.97001e-06
1.96644e-06
1.98096e-06
1.94615e-06
1.97044e-06
1.99931e-06
3.08733e-05
1.51655e-06
1.51723e-06
1.51776e-06
1.51707e-06
1.51662e-06
1.51611e-06
1.5267e-06
1.49779e-06
1.50637e-06
1.4152e-06
1.7554e-05
1.2783e-06
1.27903e-06
1.27951e-06
1.27883e-06
1.27776e-06
1.27865e-06
1.28725e-06
1.26377e-06
1.24534e-06
1.08959e-06
9.71779e-06
1.1386e-06
1.1394e-06
1.13983e-06
1.1391e-06
1.14098e-06
1.1384e-06
1.14093e-06
1.11471e-06
1.09674e-06
9.02187e-07
5.74462e-06
1.05191e-06
1.05294e-06
1.05337e-06
1.05238e-06
1.05514e-06
1.05233e-06
1.05543e-06
1.03172e-06
9.92657e-07
7.70724e-07
3.68292e-06
9.9056e-07
9.90949e-07
9.89727e-07
9.90835e-07
9.90235e-07
9.92202e-07
9.70027e-07
9.20356e-07
6.82616e-07
2.53173e-06
9.44118e-07
9.44482e-07
9.4289e-07
9.48042e-07
9.4392e-07
9.45241e-07
9.23153e-07
8.6512e-07
6.13868e-07
1.8422e-06
9.06002e-07
9.06354e-07
9.04184e-07
9.09076e-07
9.05837e-07
9.06817e-07
8.84533e-07
8.19075e-07
5.60368e-07
1.40455e-06
8.72226e-07
8.72586e-07
8.6952e-07
8.74291e-07
8.72078e-07
8.72928e-07
8.50431e-07
7.85949e-07
5.17478e-07
1.10948e-06
8.406e-07
8.40997e-07
8.40876e-07
8.4217e-07
8.40487e-07
8.41349e-07
8.18677e-07
7.5519e-07
4.84372e-07
9.00649e-07
8.09834e-07
8.10269e-07
8.09707e-07
8.11179e-07
8.09784e-07
8.10756e-07
7.87972e-07
7.2357e-07
4.56513e-07
7.44681e-07
7.79099e-07
7.7957e-07
7.78531e-07
7.80387e-07
7.79142e-07
7.80297e-07
7.57499e-07
6.93473e-07
4.31418e-07
6.24047e-07
7.47811e-07
7.48308e-07
7.46702e-07
7.49143e-07
7.47975e-07
7.49369e-07
7.26671e-07
6.6385e-07
4.09446e-07
5.296e-07
7.15512e-07
7.16022e-07
7.1372e-07
7.16955e-07
7.15822e-07
7.17502e-07
6.95008e-07
6.39662e-07
3.90148e-07
4.44005e-07
6.81806e-07
6.82324e-07
6.79176e-07
6.83415e-07
6.82288e-07
6.84277e-07
6.62007e-07
6.12977e-07
3.72836e-07
3.81645e-07
6.46323e-07
6.4687e-07
6.47091e-07
6.48156e-07
6.47002e-07
6.4928e-07
6.30774e-07
5.84398e-07
3.56869e-07
3.26646e-07
6.08661e-07
6.0928e-07
6.09807e-07
6.10684e-07
6.0957e-07
6.11979e-07
5.96024e-07
5.54962e-07
3.41669e-07
2.84014e-07
5.7299e-07
5.73799e-07
5.7431e-07
5.7527e-07
5.74048e-07
5.77109e-07
5.61733e-07
5.24136e-07
3.26691e-07
2.46291e-07
5.32167e-07
5.33284e-07
5.3347e-07
5.34688e-07
5.33538e-07
5.37108e-07
5.23477e-07
4.91211e-07
3.11375e-07
2.16548e-07
)
;

boundaryField
{
    fuel
    {
        type            fixedValue;
        value           uniform 0;
    }
    wall
    {
        type            zeroGradient;
    }
    outlet
    {
        type            zeroGradient;
    }
    frontAndBack
    {
        type            empty;
    }
    procBoundary3to0
    {
        type            processor;
        value           nonuniform List<scalar> 10(4.92342e-07 4.93675e-07 4.93502e-07 4.95049e-07 4.9388e-07 4.98002e-07 4.85324e-07 4.5553e-07 2.95301e-07 1.92267e-07);
    }
    procBoundary3to2
    {
        type            processor;
        value           nonuniform List<scalar> 
25
(
3.87759e-05
2.38694e-05
1.06665e-05
5.11745e-06
2.9146e-06
1.96873e-06
1.51722e-06
1.27892e-06
1.13922e-06
1.05264e-06
9.89769e-07
9.89769e-07
9.43706e-07
9.0608e-07
8.72724e-07
8.41353e-07
8.10683e-07
7.79939e-07
7.48581e-07
7.16182e-07
6.82361e-07
6.46751e-07
6.08953e-07
5.73169e-07
5.32237e-07
)
;
    }
}


// ************************************************************************* //
