/*--------------------------------*- C++ -*----------------------------------*\
| =========                 |                                                 |
| \\      /  F ield         | OpenFOAM: The Open Source CFD Toolbox           |
|  \\    /   O peration     | Version:  dev                                   |
|   \\  /    A nd           | Web:      www.OpenFOAM.org                      |
|    \\/     M anipulation  |                                                 |
\*---------------------------------------------------------------------------*/
FoamFile
{
    version     2.0;
    format      ascii;
    class       volScalarField;
    location    "0.2";
    object      HCCO;
}
// * * * * * * * * * * * * * * * * * * * * * * * * * * * * * * * * * * * * * //

dimensions      [0 0 0 0 0 0 0];

internalField   nonuniform List<scalar> 
250
(
0.000155861
0.00015586
0.000155862
0.000155861
0.000155861
0.000155864
0.000155872
0.000155925
0.000156305
0.000158498
1.89591e-08
5.61049e-05
5.61034e-05
5.61068e-05
5.61026e-05
5.61059e-05
5.61053e-05
5.61161e-05
5.61901e-05
5.67093e-05
6.14501e-05
9.23161e-09
2.0784e-05
2.07835e-05
2.07864e-05
2.07824e-05
2.07855e-05
2.07843e-05
2.07924e-05
2.08369e-05
2.10846e-05
2.39995e-05
3.80687e-09
9.42601e-06
9.42616e-06
9.4281e-06
9.42508e-06
9.42686e-06
9.42635e-06
9.43199e-06
9.45916e-06
9.5667e-06
1.15668e-05
2.34902e-09
5.21626e-06
5.21685e-06
5.21807e-06
5.21561e-06
5.21618e-06
5.21667e-06
5.22084e-06
5.2386e-06
5.27617e-06
6.77056e-06
2.52389e-09
3.39738e-06
3.39823e-06
3.39902e-06
3.39688e-06
3.39665e-06
3.39793e-06
3.40135e-06
3.41376e-06
3.40911e-06
4.50463e-06
4.43372e-09
2.51589e-06
2.51713e-06
2.51767e-06
2.51545e-06
2.51408e-06
2.51686e-06
2.51988e-06
2.52991e-06
2.49593e-06
3.23937e-06
1.22765e-08
2.04945e-06
2.05074e-06
2.05113e-06
2.04906e-06
2.04826e-06
2.05059e-06
2.05301e-06
2.06122e-06
2.01015e-06
2.45323e-06
5.10833e-08
1.78273e-06
1.78388e-06
1.78419e-06
1.78229e-06
1.78295e-06
1.7839e-06
1.78506e-06
1.77956e-06
1.71218e-06
1.93242e-06
2.01853e-07
1.60333e-06
1.60446e-06
1.60477e-06
1.60252e-06
1.60518e-06
1.60489e-06
1.60674e-06
1.60827e-06
1.51217e-06
1.57193e-06
5.19687e-07
1.47659e-06
1.47691e-06
1.47413e-06
1.47708e-06
1.47731e-06
1.47918e-06
1.48077e-06
1.38963e-06
1.31419e-06
9.08404e-07
1.37853e-06
1.3789e-06
1.37527e-06
1.37738e-06
1.37957e-06
1.38164e-06
1.38415e-06
1.29263e-06
1.12531e-06
1.15835e-06
1.29713e-06
1.2976e-06
1.29276e-06
1.30403e-06
1.2986e-06
1.30083e-06
1.30451e-06
1.21066e-06
9.85466e-07
1.19012e-06
1.22562e-06
1.22623e-06
1.21955e-06
1.23118e-06
1.22747e-06
1.22995e-06
1.235e-06
1.14986e-06
8.74179e-07
1.11068e-06
1.16041e-06
1.16123e-06
1.16089e-06
1.16491e-06
1.16263e-06
1.1654e-06
1.17193e-06
1.08974e-06
7.84766e-07
9.9918e-07
1.09949e-06
1.10052e-06
1.09931e-06
1.10335e-06
1.10208e-06
1.10515e-06
1.11318e-06
1.03522e-06
7.27043e-07
8.73381e-07
1.04161e-06
1.04287e-06
1.04058e-06
1.04522e-06
1.0446e-06
1.04795e-06
1.05744e-06
9.85125e-07
6.83885e-07
7.43177e-07
9.8592e-07
9.87414e-07
9.83553e-07
9.89555e-07
9.89332e-07
9.9293e-07
1.00379e-06
9.382e-07
6.5248e-07
6.22801e-07
9.31788e-07
9.33521e-07
9.27237e-07
9.35619e-07
9.35614e-07
9.39438e-07
9.51532e-07
8.93424e-07
6.30318e-07
5.23564e-07
8.78669e-07
8.80671e-07
8.78012e-07
8.82857e-07
8.82897e-07
8.86922e-07
9.00035e-07
8.49952e-07
6.1317e-07
4.50006e-07
8.26051e-07
8.28346e-07
8.28305e-07
8.30659e-07
8.3066e-07
8.34873e-07
8.4841e-07
8.07098e-07
6.002e-07
4.00485e-07
7.7336e-07
7.7601e-07
7.7533e-07
7.78406e-07
7.78353e-07
7.82763e-07
7.97297e-07
7.64286e-07
5.89426e-07
3.69721e-07
7.26091e-07
7.2937e-07
7.28266e-07
7.31785e-07
7.317e-07
7.36219e-07
7.5094e-07
7.21035e-07
5.78394e-07
3.51904e-07
6.75968e-07
6.78971e-07
6.77334e-07
6.81418e-07
6.81279e-07
6.86133e-07
7.02998e-07
6.76607e-07
5.65931e-07
3.42922e-07
)
;

boundaryField
{
    fuel
    {
        type            fixedValue;
        value           uniform 0;
    }
    wall
    {
        type            zeroGradient;
    }
    outlet
    {
        type            zeroGradient;
    }
    frontAndBack
    {
        type            empty;
    }
    procBoundary3to0
    {
        type            processor;
        value           nonuniform List<scalar> 10(6.28166e-07 6.31777e-07 6.29745e-07 6.34167e-07 6.34019e-07 6.38917e-07 6.562e-07 6.35685e-07 5.50648e-07 3.39963e-07);
    }
    procBoundary3to2
    {
        type            processor;
        value           nonuniform List<scalar> 
25
(
0.000155862
5.61063e-05
2.07868e-05
9.42906e-06
5.21905e-06
3.39981e-06
2.51826e-06
2.05156e-06
1.78451e-06
1.60492e-06
1.4755e-06
1.4755e-06
1.37741e-06
1.29616e-06
1.22486e-06
1.15985e-06
1.09907e-06
1.04129e-06
9.85673e-07
9.31611e-07
8.78573e-07
8.26058e-07
7.73534e-07
7.26672e-07
6.75871e-07
)
;
    }
}


// ************************************************************************* //
