/*--------------------------------*- C++ -*----------------------------------*\
| =========                 |                                                 |
| \\      /  F ield         | OpenFOAM: The Open Source CFD Toolbox           |
|  \\    /   O peration     | Version:  dev                                   |
|   \\  /    A nd           | Web:      www.OpenFOAM.org                      |
|    \\/     M anipulation  |                                                 |
\*---------------------------------------------------------------------------*/
FoamFile
{
    version     2.0;
    format      ascii;
    class       volScalarField;
    location    "0.2";
    object      HO2;
}
// * * * * * * * * * * * * * * * * * * * * * * * * * * * * * * * * * * * * * //

dimensions      [0 0 0 0 0 0 0];

internalField   nonuniform List<scalar> 
50
(
3.51017e-11
3.29042e-11
3.08497e-11
2.89262e-11
2.71465e-11
2.55213e-11
2.39834e-11
2.25783e-11
2.12703e-11
2.00241e-11
1.88588e-11
1.77919e-11
1.67871e-11
1.58318e-11
1.49499e-11
1.41161e-11
1.33325e-11
1.259e-11
1.18742e-11
1.1184e-11
1.05415e-11
9.92751e-12
9.33751e-12
8.76224e-12
8.2148e-12
7.68867e-12
7.17607e-12
6.69922e-12
6.25053e-12
5.8313e-12
5.46846e-12
5.15527e-12
4.89444e-12
4.68781e-12
4.53552e-12
4.43698e-12
4.39362e-12
4.4034e-12
4.4673e-12
4.58844e-12
4.77263e-12
5.02696e-12
5.35551e-12
5.74997e-12
6.1744e-12
6.54848e-12
6.73744e-12
6.54758e-12
5.72834e-12
4.28242e-12
)
;

boundaryField
{
    wall
    {
        type            zeroGradient;
    }
    fuel
    {
        type            fixedValue;
        value           nonuniform 0();
    }
    outlet
    {
        type            inletOutlet;
        inletValue      uniform 0;
        value           uniform 4.28242e-12;
    }
    procBoundary3to2
    {
        type            processor;
        value           uniform 3.74912e-11;
    }
}


// ************************************************************************* //
