/*--------------------------------*- C++ -*----------------------------------*\
| =========                 |                                                 |
| \\      /  F ield         | OpenFOAM: The Open Source CFD Toolbox           |
|  \\    /   O peration     | Version:  dev                                   |
|   \\  /    A nd           | Web:      www.OpenFOAM.org                      |
|    \\/     M anipulation  |                                                 |
\*---------------------------------------------------------------------------*/
FoamFile
{
    version     2.0;
    format      ascii;
    class       volScalarField;
    location    "0.2";
    object      n-C6H7;
}
// * * * * * * * * * * * * * * * * * * * * * * * * * * * * * * * * * * * * * //

dimensions      [0 0 0 0 0 0 0];

internalField   nonuniform List<scalar> 
50
(
1.09321e-25
1.00947e-25
9.2808e-26
8.49372e-26
7.74411e-26
7.04297e-26
6.36852e-26
5.74369e-26
5.15805e-26
4.60125e-26
4.08398e-26
3.61493e-26
3.18142e-26
2.78019e-26
2.42077e-26
2.09402e-26
1.80088e-26
1.53819e-26
1.30149e-26
1.09011e-26
9.08724e-27
7.50818e-27
6.14252e-27
4.95914e-27
3.96545e-27
3.13092e-27
2.42703e-27
1.85966e-27
1.39839e-27
1.02556e-27
7.42015e-28
5.2482e-28
3.61645e-28
2.41944e-28
1.56474e-28
9.67645e-29
5.77482e-29
3.27809e-29
1.75748e-29
8.81782e-30
4.09439e-30
1.73801e-30
6.68851e-31
2.38296e-31
9.19318e-32
5.84021e-32
6.82391e-32
1.00649e-31
1.45345e-31
1.5573e-31
)
;

boundaryField
{
    wall
    {
        type            zeroGradient;
    }
    fuel
    {
        type            fixedValue;
        value           nonuniform 0();
    }
    outlet
    {
        type            inletOutlet;
        inletValue      uniform 0;
        value           uniform 1.5573e-31;
    }
    procBoundary3to2
    {
        type            processor;
        value           uniform 1.18046e-25;
    }
}


// ************************************************************************* //
