/*--------------------------------*- C++ -*----------------------------------*\
| =========                 |                                                 |
| \\      /  F ield         | OpenFOAM: The Open Source CFD Toolbox           |
|  \\    /   O peration     | Version:  dev                                   |
|   \\  /    A nd           | Web:      www.OpenFOAM.org                      |
|    \\/     M anipulation  |                                                 |
\*---------------------------------------------------------------------------*/
FoamFile
{
    version     2.0;
    format      ascii;
    class       volScalarField;
    location    "0.2";
    object      OH;
}
// * * * * * * * * * * * * * * * * * * * * * * * * * * * * * * * * * * * * * //

dimensions      [0 0 0 0 0 0 0];

internalField   nonuniform List<scalar> 
50
(
2.64533e-05
2.48711e-05
2.33351e-05
2.18449e-05
2.04158e-05
1.90651e-05
1.77474e-05
1.65057e-05
1.5318e-05
1.41617e-05
1.30583e-05
1.20277e-05
1.10436e-05
1.00994e-05
9.22029e-06
8.38684e-06
7.60457e-06
6.86866e-06
6.16981e-06
5.50944e-06
4.90773e-06
4.34932e-06
3.83223e-06
3.3501e-06
2.91238e-06
2.51277e-06
2.14406e-06
1.81697e-06
1.52224e-06
1.25604e-06
1.02814e-06
8.29962e-07
6.59315e-07
5.14281e-07
3.92821e-07
2.91838e-07
2.12037e-07
1.49296e-07
1.01409e-07
6.60469e-08
4.09284e-08
2.39004e-08
1.29948e-08
6.48105e-09
2.91262e-09
1.15801e-09
4.05164e-10
1.31838e-10
4.75334e-11
2.24057e-11
)
;

boundaryField
{
    wall
    {
        type            zeroGradient;
    }
    fuel
    {
        type            fixedValue;
        value           nonuniform 0();
    }
    outlet
    {
        type            inletOutlet;
        inletValue      uniform 0;
        value           uniform 2.24057e-11;
    }
    procBoundary3to2
    {
        type            processor;
        value           uniform 2.80973e-05;
    }
}


// ************************************************************************* //
