/*--------------------------------*- C++ -*----------------------------------*\
| =========                 |                                                 |
| \\      /  F ield         | OpenFOAM: The Open Source CFD Toolbox           |
|  \\    /   O peration     | Version:  dev                                   |
|   \\  /    A nd           | Web:      www.OpenFOAM.org                      |
|    \\/     M anipulation  |                                                 |
\*---------------------------------------------------------------------------*/
FoamFile
{
    version     2.0;
    format      ascii;
    class       volScalarField;
    location    "0.2";
    object      p;
}
// * * * * * * * * * * * * * * * * * * * * * * * * * * * * * * * * * * * * * //

dimensions      [1 -1 -2 0 0 0 0];

internalField   nonuniform List<scalar> 
50
(
99981.1
99981.4
99981.7
99982
99982.3
99982.6
99982.9
99983.2
99983.5
99983.8
99984.1
99984.4
99984.8
99985.1
99985.4
99985.7
99986
99986.4
99986.7
99987
99987.3
99987.7
99988
99988.4
99988.7
99989
99989.4
99989.7
99990.1
99990.5
99990.8
99991.2
99991.6
99991.9
99992.3
99992.7
99993.1
99993.5
99993.9
99994.3
99994.8
99995.2
99995.7
99996.2
99996.7
99997.2
99997.8
99998.4
99999.1
99999.8
)
;

boundaryField
{
    wall
    {
        type            zeroGradient;
    }
    fuel
    {
        type            zeroGradient;
    }
    outlet
    {
        type            totalPressure;
        rho             none;
        psi             none;
        gamma           1;
        p0              uniform 100000;
        value           uniform 100000;
    }
    procBoundary3to2
    {
        type            processor;
        value           uniform 99980.8;
    }
}


// ************************************************************************* //
