/*--------------------------------*- C++ -*----------------------------------*\
| =========                 |                                                 |
| \\      /  F ield         | OpenFOAM: The Open Source CFD Toolbox           |
|  \\    /   O peration     | Version:  dev                                   |
|   \\  /    A nd           | Web:      www.OpenFOAM.org                      |
|    \\/     M anipulation  |                                                 |
\*---------------------------------------------------------------------------*/
FoamFile
{
    version     2.0;
    format      ascii;
    class       volScalarField;
    location    "0.2";
    object      P2-;
}
// * * * * * * * * * * * * * * * * * * * * * * * * * * * * * * * * * * * * * //

dimensions      [0 0 0 0 0 0 0];

internalField   nonuniform List<scalar> 
50
(
3.43248e-24
2.96903e-24
2.55226e-24
2.17922e-24
1.85037e-24
1.56586e-24
1.31306e-24
1.09688e-24
9.10239e-25
7.47205e-25
6.08343e-25
4.93129e-25
3.96009e-25
3.14301e-25
2.47957e-25
1.93503e-25
1.49564e-25
1.14316e-25
8.60329e-26
6.36609e-26
4.67319e-26
3.38145e-26
2.40848e-26
1.67944e-26
1.15358e-26
7.77289e-27
5.09316e-27
3.28351e-27
2.06312e-27
1.25321e-27
7.51159e-28
4.4049e-28
2.53207e-28
1.43356e-28
8.05137e-29
4.49691e-29
2.57113e-29
1.50089e-29
8.95586e-30
5.41693e-30
3.2718e-30
1.93741e-30
1.1031e-30
5.91934e-31
2.93057e-31
1.30814e-31
5.1555e-32
1.79523e-32
5.97799e-33
2.42452e-33
)
;

boundaryField
{
    wall
    {
        type            zeroGradient;
    }
    fuel
    {
        type            fixedValue;
        value           nonuniform 0();
    }
    outlet
    {
        type            inletOutlet;
        inletValue      uniform 0;
        value           uniform 2.42452e-33;
    }
    procBoundary3to2
    {
        type            processor;
        value           uniform 3.95507e-24;
    }
}


// ************************************************************************* //
