/*--------------------------------*- C++ -*----------------------------------*\
| =========                 |                                                 |
| \\      /  F ield         | OpenFOAM: The Open Source CFD Toolbox           |
|  \\    /   O peration     | Version:  dev                                   |
|   \\  /    A nd           | Web:      www.OpenFOAM.org                      |
|    \\/     M anipulation  |                                                 |
\*---------------------------------------------------------------------------*/
FoamFile
{
    version     2.0;
    format      ascii;
    class       volScalarField;
    location    "0.2";
    object      P2-;
}
// * * * * * * * * * * * * * * * * * * * * * * * * * * * * * * * * * * * * * //

dimensions      [0 0 0 0 0 0 0];

internalField   nonuniform List<scalar> 
250
(
3.19546e-09
3.19554e-09
3.19558e-09
3.19571e-09
3.19563e-09
3.19551e-09
3.19914e-09
3.20307e-09
3.27041e-09
3.44997e-09
1.20735e-10
4.63146e-09
4.63177e-09
4.6318e-09
4.63195e-09
4.63231e-09
4.63116e-09
4.64306e-09
4.65699e-09
4.88114e-09
5.74374e-09
2.0651e-10
2.98073e-09
2.98119e-09
2.98131e-09
2.98112e-09
2.98268e-09
2.97956e-09
2.99687e-09
3.0034e-09
3.26367e-09
4.17163e-09
1.3239e-10
1.53503e-09
1.53542e-09
1.53566e-09
1.53532e-09
1.53701e-09
1.53373e-09
1.55022e-09
1.54907e-09
1.76721e-09
2.46639e-09
3.3034e-10
7.59533e-10
7.59822e-10
7.60077e-10
7.59761e-10
7.60795e-10
7.58623e-10
7.71271e-10
7.67863e-10
9.32976e-10
1.45253e-09
2.49318e-09
3.88118e-10
3.88313e-10
3.88528e-10
3.88294e-10
3.88536e-10
3.87614e-10
3.96474e-10
3.93527e-10
4.97951e-10
9.15657e-10
5.69335e-09
2.10501e-10
2.10708e-10
2.1087e-10
2.10704e-10
2.1011e-10
2.10391e-10
2.16563e-10
2.14724e-10
2.89531e-10
6.08125e-10
7.52859e-09
1.222e-10
1.22362e-10
1.22481e-10
1.2236e-10
1.21644e-10
1.22321e-10
1.26939e-10
1.26634e-10
1.75872e-10
4.3823e-10
8.30435e-09
7.52641e-11
7.53982e-11
7.54841e-11
7.53955e-11
7.57688e-11
7.51622e-11
7.71962e-11
7.59261e-11
1.16136e-10
3.43632e-10
8.27888e-09
4.97805e-11
4.99528e-11
5.00239e-11
4.99116e-11
5.05499e-11
4.9847e-11
5.16721e-11
5.1371e-11
7.90793e-11
2.78392e-10
7.63529e-09
3.45898e-11
3.4637e-11
3.45327e-11
3.47033e-11
3.45696e-11
3.58201e-11
3.61024e-11
5.71082e-11
2.34402e-10
6.61206e-09
2.54288e-11
2.54609e-11
2.53439e-11
2.61684e-11
2.54414e-11
2.63447e-11
2.68159e-11
4.32041e-11
1.98803e-10
5.45346e-09
1.96131e-11
1.96351e-11
1.94839e-11
2.0102e-11
1.96322e-11
2.03158e-11
2.08764e-11
3.37797e-11
1.69588e-10
4.34367e-09
1.57053e-11
1.57212e-11
1.55064e-11
1.59722e-11
1.57237e-11
1.62646e-11
1.68704e-11
2.8228e-11
1.44878e-10
3.37768e-09
1.29458e-11
1.29593e-11
1.30087e-11
1.3097e-11
1.29627e-11
1.34069e-11
1.40251e-11
2.39964e-11
1.24971e-10
2.5961e-09
1.09118e-11
1.09238e-11
1.09463e-11
1.10013e-11
1.09278e-11
1.13025e-11
1.19087e-11
2.04223e-11
1.07747e-10
1.98717e-09
9.35728e-12
9.3682e-12
9.37029e-12
9.4141e-12
9.37287e-12
9.69445e-12
1.02735e-11
1.75993e-11
9.20557e-11
1.52642e-09
8.13346e-12
8.14333e-12
8.12781e-12
8.17276e-12
8.14888e-12
8.42778e-12
8.97037e-12
1.52702e-11
7.83681e-11
1.18699e-09
7.1472e-12
7.15586e-12
7.12319e-12
7.17672e-12
7.16246e-12
7.40563e-12
7.9063e-12
1.36539e-11
6.65012e-11
9.04283e-10
6.33812e-12
6.3454e-12
6.29472e-12
6.36201e-12
6.35315e-12
6.56535e-12
7.01825e-12
1.21402e-11
5.63281e-11
7.14559e-10
5.66564e-12
5.67173e-12
5.68383e-12
5.68656e-12
5.68038e-12
5.86475e-12
6.34115e-12
1.07708e-11
4.75671e-11
5.59765e-10
5.10119e-12
5.10628e-12
5.12247e-12
5.11946e-12
5.1157e-12
5.27294e-12
5.73379e-12
9.58991e-12
4.00431e-11
4.47061e-10
4.67697e-12
4.68239e-12
4.69889e-12
4.69431e-12
4.69041e-12
4.83258e-12
5.25065e-12
8.56452e-12
3.36193e-11
3.51669e-10
4.29479e-12
4.30146e-12
4.31447e-12
4.3107e-12
4.30841e-12
4.43368e-12
4.81918e-12
7.66682e-12
2.81559e-11
2.7885e-10
)
;

boundaryField
{
    fuel
    {
        type            fixedValue;
        value           uniform 0;
    }
    wall
    {
        type            zeroGradient;
    }
    outlet
    {
        type            zeroGradient;
    }
    frontAndBack
    {
        type            empty;
    }
    procBoundary3to0
    {
        type            processor;
        value           nonuniform List<scalar> 10(4.00096e-12 4.00818e-12 4.01719e-12 4.01521e-12 4.01372e-12 4.12515e-12 4.47548e-12 6.87304e-12 2.35499e-11 2.20251e-10);
    }
    procBoundary3to2
    {
        type            processor;
        value           nonuniform List<scalar> 
25
(
3.19568e-09
4.63193e-09
2.98134e-09
1.53555e-09
7.59902e-10
3.88352e-10
2.10699e-10
1.2234e-10
7.53734e-11
4.98996e-11
3.44826e-11
3.44826e-11
2.53932e-11
1.96421e-11
1.57744e-11
1.30283e-11
1.09903e-11
9.42431e-12
8.1878e-12
7.19014e-12
6.37158e-12
5.69143e-12
5.12079e-12
4.6923e-12
4.30657e-12
)
;
    }
}


// ************************************************************************* //
