/*--------------------------------*- C++ -*----------------------------------*\
| =========                 |                                                 |
| \\      /  F ield         | OpenFOAM: The Open Source CFD Toolbox           |
|  \\    /   O peration     | Version:  dev                                   |
|   \\  /    A nd           | Web:      www.OpenFOAM.org                      |
|    \\/     M anipulation  |                                                 |
\*---------------------------------------------------------------------------*/
FoamFile
{
    version     2.0;
    format      ascii;
    class       surfaceScalarField;
    location    "0.2";
    object      phi;
}
// * * * * * * * * * * * * * * * * * * * * * * * * * * * * * * * * * * * * * //

dimensions      [1 0 -1 0 0 0 0];

internalField   nonuniform List<scalar> 
465
(
-1.41975e-08
8.60037e-06
-1.77921e-09
8.60211e-06
8.60914e-09
8.60389e-06
2.25543e-08
8.59987e-06
2.28741e-08
8.61291e-06
4.23903e-08
8.59287e-06
8.3391e-09
8.64711e-06
4.5597e-08
8.57376e-06
-1.97079e-07
8.85212e-06
4.33731e-07
7.98211e-06
7.0843e-06
-2.03531e-08
8.74375e-06
-1.91855e-09
8.74616e-06
1.19792e-08
8.75198e-06
3.29376e-08
8.74081e-06
3.13228e-08
8.77594e-06
6.47388e-08
8.7198e-06
5.18098e-09
8.86796e-06
7.21679e-08
8.66625e-06
-2.942e-07
9.37476e-06
6.24356e-07
7.22902e-06
8.41707e-06
-2.53544e-08
8.75101e-06
4.86296e-10
8.75228e-06
1.9122e-08
8.76497e-06
4.65576e-08
8.74484e-06
4.75361e-08
8.80598e-06
9.12749e-08
8.70639e-06
1.43976e-08
8.9758e-06
1.06001e-07
8.60418e-06
-3.52985e-07
9.86206e-06
4.6748e-07
6.45621e-06
1.86293e-05
-2.84586e-08
8.72465e-06
2.97251e-09
8.7246e-06
2.76579e-08
8.74378e-06
6.16214e-08
8.71417e-06
6.76834e-08
8.80277e-06
1.19611e-07
8.65692e-06
4.33353e-08
9.05482e-06
1.45218e-07
8.50409e-06
-3.55414e-07
1.03634e-05
9.23725e-08
6.04786e-06
3.8736e-05
-3.06681e-08
8.68657e-06
7.29843e-09
8.68517e-06
3.92564e-08
8.71014e-06
7.91023e-08
8.67242e-06
9.24853e-08
8.78703e-06
1.49982e-07
8.59685e-06
7.90064e-08
9.1233e-06
1.88543e-07
8.3915e-06
-2.94476e-07
1.08421e-05
-5.7386e-08
5.85019e-06
3.8869e-05
-3.18747e-08
8.64044e-06
1.2731e-08
8.63757e-06
5.17934e-08
8.66788e-06
9.76449e-08
8.62313e-06
1.18836e-07
8.76179e-06
1.81194e-07
8.53042e-06
1.19149e-07
9.18126e-06
2.35763e-07
8.27053e-06
-2.09614e-07
1.12825e-05
5.82301e-09
5.67695e-06
3.77574e-05
-3.22445e-08
8.58681e-06
1.89509e-08
8.5821e-06
6.49811e-08
8.61736e-06
1.16848e-07
8.56653e-06
1.46143e-07
8.72728e-06
2.12781e-07
8.45841e-06
1.62329e-07
9.22624e-06
2.85078e-07
8.14214e-06
-1.21473e-07
1.16837e-05
1.11798e-07
5.48619e-06
3.65003e-05
-3.1977e-08
8.52555e-06
2.57371e-08
8.5189e-06
7.85697e-08
8.55883e-06
1.36465e-07
8.50268e-06
1.7392e-07
8.68281e-06
2.44536e-07
8.38138e-06
2.07421e-07
9.25745e-06
3.34667e-07
8.00771e-06
-3.21398e-08
1.20442e-05
2.0223e-07
5.2923e-06
3.52843e-05
-3.12285e-08
8.45479e-06
3.29067e-08
8.4461e-06
9.23749e-08
8.49049e-06
1.56294e-07
8.42963e-06
2.01846e-07
8.62834e-06
2.76307e-07
8.29701e-06
2.53579e-07
9.26974e-06
3.83062e-07
7.86968e-06
9.03921e-08
1.23301e-05
2.93651e-07
5.12862e-06
3.41518e-05
-3.01257e-08
4.03131e-08
8.36664e-06
1.06271e-07
8.4153e-06
1.76194e-07
8.35022e-06
2.29718e-07
8.56517e-06
3.0801e-07
8.2086e-06
3.00223e-07
9.2672e-06
4.29919e-07
7.72988e-06
2.26589e-07
1.25265e-05
3.82553e-07
5.0092e-06
3.30897e-05
4.78439e-08
8.27992e-06
1.2016e-07
8.33267e-06
1.96057e-07
8.26373e-06
2.57399e-07
8.49299e-06
3.3957e-07
8.11521e-06
3.46884e-07
9.24861e-06
4.75715e-07
7.59008e-06
3.38461e-07
1.26565e-05
4.68738e-07
4.91416e-06
3.20763e-05
5.54147e-08
8.1862e-06
1.33976e-07
8.24283e-06
2.15814e-07
8.17033e-06
2.84818e-07
8.41219e-06
3.70953e-07
8.01687e-06
3.93263e-07
9.21408e-06
5.20723e-07
7.45062e-06
4.38427e-07
1.27312e-05
5.52303e-07
4.83267e-06
3.10997e-05
6.29576e-08
8.08571e-06
1.47663e-07
8.14599e-06
2.35396e-07
8.07017e-06
3.119e-07
8.32277e-06
4.02118e-07
7.91358e-06
4.39149e-07
9.16402e-06
5.65051e-07
7.31186e-06
5.30206e-07
1.2758e-05
6.32514e-07
4.76043e-06
3.01512e-05
7.04225e-08
7.97872e-06
1.61172e-07
8.04242e-06
2.54756e-07
7.96344e-06
3.38599e-07
8.22541e-06
4.33027e-07
7.80537e-06
4.84388e-07
9.09899e-06
6.08708e-07
7.17397e-06
6.15633e-07
1.27429e-05
7.08989e-07
4.69453e-06
2.92312e-05
7.77655e-08
7.8655e-06
1.74466e-07
7.93237e-06
2.73851e-07
7.85042e-06
3.64872e-07
8.12039e-06
4.6364e-07
7.69227e-06
5.28863e-07
9.01965e-06
6.51731e-07
7.03695e-06
6.95902e-07
1.26902e-05
7.817e-07
4.63406e-06
2.8324e-05
8.49509e-08
7.74629e-06
1.8751e-07
7.81609e-06
2.92642e-07
7.73125e-06
3.90684e-07
8.00802e-06
4.9392e-07
7.57432e-06
5.72487e-07
8.92668e-06
6.94132e-07
6.90069e-06
7.71806e-07
1.26038e-05
8.50982e-07
4.5777e-06
2.74229e-05
9.19501e-08
7.62131e-06
2.00275e-07
7.6938e-06
3.11097e-07
7.60618e-06
4.16004e-07
7.88859e-06
5.2383e-07
7.45151e-06
6.15195e-07
8.8208e-06
7.35905e-07
6.76501e-06
8.43911e-07
1.24867e-05
9.17284e-07
4.52421e-06
2.6521e-05
9.87417e-08
7.49076e-06
2.12743e-07
7.56573e-06
3.29192e-07
7.47542e-06
4.40809e-07
7.76237e-06
5.5334e-07
7.32386e-06
6.56949e-07
8.70269e-06
7.77068e-07
6.62968e-06
9.12656e-07
1.23419e-05
9.8107e-07
4.47275e-06
2.56123e-05
1.05311e-07
7.35481e-06
2.24901e-07
7.4321e-06
3.4691e-07
7.33921e-06
4.65083e-07
7.62963e-06
5.82427e-07
7.19136e-06
6.97726e-07
8.57303e-06
8.17597e-07
6.49445e-06
9.78339e-07
1.21721e-05
1.04277e-06
4.42241e-06
2.46909e-05
1.11651e-07
7.21362e-06
2.36742e-07
7.29309e-06
3.64248e-07
7.19764e-06
4.88826e-07
7.4906e-06
6.11073e-07
7.05401e-06
7.37519e-07
8.43247e-06
8.57589e-07
6.35882e-06
1.04131e-06
1.19798e-05
1.10278e-06
4.37224e-06
2.37585e-05
1.17759e-07
7.06731e-06
2.48259e-07
7.14892e-06
3.81191e-07
7.05095e-06
5.12052e-07
7.34548e-06
6.39274e-07
6.91181e-06
7.7631e-07
8.28164e-06
8.97054e-07
6.22262e-06
1.10183e-06
1.17667e-05
1.16115e-06
4.32155e-06
2.28222e-05
1.23641e-07
6.91587e-06
2.59489e-07
6.99952e-06
3.97776e-07
6.89836e-06
5.34785e-07
7.19432e-06
6.67039e-07
6.76466e-06
8.14161e-07
8.12092e-06
9.36047e-07
6.08518e-06
1.16011e-06
1.15346e-05
1.21853e-06
4.26914e-06
2.18375e-05
1.29283e-07
6.7597e-06
2.70389e-07
6.84523e-06
4.13938e-07
6.74081e-06
5.56991e-07
7.03762e-06
6.94253e-07
6.61289e-06
8.50987e-07
7.95133e-06
9.74578e-07
5.94612e-06
1.21636e-06
1.12853e-05
1.27434e-06
4.21481e-06
2.09441e-05
1.3473e-07
2.81052e-07
4.29812e-07
5.78804e-07
7.21137e-07
8.87037e-07
1.01276e-06
1.2708e-06
1.32983e-06
)
;

boundaryField
{
    fuel
    {
        type            calculated;
        value           nonuniform List<scalar> 
11
(
-8.18455e-06
-8.18456e-06
-8.18456e-06
-8.18454e-06
-8.18453e-06
-8.18445e-06
-8.18449e-06
-8.18432e-06
-8.18451e-06
-8.18393e-06
-8.18613e-06
)
;
    }
    wall
    {
        type            calculated;
        value           nonuniform 0();
    }
    outlet
    {
        type            calculated;
        value           nonuniform List<scalar> 
24
(
3.12113e-06
3.95333e-06
3.81657e-06
2.91068e-06
2.34596e-06
2.22367e-06
2.20769e-06
2.22904e-06
2.26071e-06
2.28493e-06
2.29962e-06
2.30579e-06
2.30522e-06
2.30017e-06
2.29246e-06
2.28399e-06
2.27622e-06
2.27026e-06
2.26695e-06
2.26684e-06
2.26958e-06
2.27641e-06
2.28633e-06
2.29994e-06
)
;
    }
    frontAndBack
    {
        type            empty;
        value           nonuniform 0();
    }
    procBoundary3to0
    {
        type            processor;
        value           nonuniform List<scalar> 10(6.59848e-06 6.68567e-06 6.5782e-06 6.87511e-06 6.45604e-06 7.7729e-06 5.8044e-06 1.10204e-05 4.15726e-06 2.00167e-05);
    }
    procBoundary3to2
    {
        type            processor;
        value           nonuniform List<scalar> 
25
(
2.85434e-08
3.94525e-08
5.01363e-08
5.86719e-08
6.73953e-08
7.50299e-08
8.17889e-08
8.78438e-08
9.33442e-08
9.84233e-08
8.37738e-06
2.87675e-08
2.72379e-08
2.56127e-08
2.39555e-08
2.23207e-08
2.07519e-08
1.92848e-08
1.79489e-08
1.67663e-08
1.57527e-08
1.4917e-08
1.42616e-08
1.37788e-08
1.34651e-08
)
;
    }
}


// ************************************************************************* //
