/*--------------------------------*- C++ -*----------------------------------*\
| =========                 |                                                 |
| \\      /  F ield         | OpenFOAM: The Open Source CFD Toolbox           |
|  \\    /   O peration     | Version:  dev                                   |
|   \\  /    A nd           | Web:      www.OpenFOAM.org                      |
|    \\/     M anipulation  |                                                 |
\*---------------------------------------------------------------------------*/
FoamFile
{
    version     2.0;
    format      ascii;
    class       volScalarField;
    location    "0.025";
    object      A1-;
}
// * * * * * * * * * * * * * * * * * * * * * * * * * * * * * * * * * * * * * //

dimensions      [0 0 0 0 0 0 0];

internalField   nonuniform List<scalar> 
250
(
2.12084e-07
1.49242e-07
1.09752e-07
9.71832e-08
8.8689e-08
8.01849e-08
7.87489e-08
7.32233e-08
7.35098e-08
7.09762e-08
1.60305e-07
1.18023e-07
8.73813e-08
7.72263e-08
7.01509e-08
6.2945e-08
6.1806e-08
5.70935e-08
5.74229e-08
5.52593e-08
5.53102e-08
5.72939e-08
5.71509e-08
6.1526e-08
6.30358e-08
6.96575e-08
7.73872e-08
8.6785e-08
1.17841e-07
1.57424e-07
1.17903e-07
9.06633e-08
6.75091e-08
5.95027e-08
5.37999e-08
4.79252e-08
4.7031e-08
4.31574e-08
4.34767e-08
4.17028e-08
4.1745e-08
4.33701e-08
4.32071e-08
4.68001e-08
4.80061e-08
5.33946e-08
5.96521e-08
6.70174e-08
9.06031e-08
1.16129e-07
8.43773e-08
6.75753e-08
5.05283e-08
4.43902e-08
3.99546e-08
3.53635e-08
3.46753e-08
3.15941e-08
3.18755e-08
3.04751e-08
3.05087e-08
3.17912e-08
3.16352e-08
3.44935e-08
3.5432e-08
3.96348e-08
4.45198e-08
5.01374e-08
6.75639e-08
8.33472e-08
5.85958e-08
4.84652e-08
3.64874e-08
3.19412e-08
2.86279e-08
2.50159e-08
2.45365e-08
2.2326e-08
2.25606e-08
2.147e-08
2.14948e-08
2.24966e-08
2.23585e-08
2.43978e-08
2.50701e-08
2.83855e-08
3.2047e-08
3.61901e-08
4.85511e-08
5.80463e-08
3.92315e-08
3.34359e-08
2.52178e-08
2.20011e-08
1.96531e-08
1.70517e-08
1.67275e-08
1.51299e-08
1.53182e-08
1.45211e-08
1.4539e-08
1.52718e-08
1.51547e-08
1.66274e-08
1.70941e-08
1.94776e-08
2.2082e-08
2.5003e-08
3.35139e-08
3.89594e-08
2.49931e-08
2.18345e-08
1.64742e-08
1.43391e-08
1.27874e-08
1.1028e-08
1.08296e-08
9.74227e-09
9.88613e-09
9.33853e-09
9.35079e-09
9.85435e-09
9.76027e-09
1.07616e-08
1.10594e-08
1.26677e-08
1.44011e-08
1.63251e-08
2.18981e-08
2.48647e-08
1.48765e-08
1.32728e-08
1.00494e-08
8.75395e-09
7.81859e-09
6.72653e-09
6.61522e-09
5.9332e-09
6.03111e-09
5.68477e-09
5.69246e-09
6.01108e-09
5.94502e-09
6.57269e-09
6.74769e-09
7.74362e-09
8.79891e-09
9.9528e-09
1.33195e-08
1.4818e-08
8.31393e-09
7.57428e-09
5.87092e-09
5.15805e-09
4.63959e-09
4.02572e-09
3.94724e-09
3.55987e-09
3.60305e-09
3.40593e-09
3.40993e-09
3.59189e-09
3.56594e-09
3.92368e-09
4.0368e-09
4.59829e-09
5.18317e-09
5.81723e-09
7.60239e-09
8.28862e-09
5.19896e-09
4.83927e-09
4.0456e-09
3.62251e-09
3.29785e-09
2.94124e-09
2.83028e-09
2.60868e-09
2.58446e-09
2.47451e-09
2.47566e-09
2.57902e-09
2.60943e-09
2.81853e-09
2.94275e-09
3.2776e-09
3.62923e-09
4.01944e-09
4.84852e-09
5.18744e-09
5.2147e-09
4.90841e-09
4.36599e-09
3.95794e-09
3.64858e-09
3.3035e-09
3.15662e-09
2.93935e-09
2.87936e-09
2.76908e-09
2.76917e-09
2.87484e-09
2.93781e-09
3.14634e-09
3.30124e-09
3.63099e-09
3.95807e-09
4.34384e-09
4.90949e-09
5.20432e-09
5.78389e-09
5.45509e-09
4.80279e-09
4.36042e-09
4.07159e-09
3.64022e-09
3.56225e-09
3.26645e-09
3.26648e-09
3.10138e-09
3.10288e-09
3.25879e-09
3.26806e-09
3.54536e-09
3.64382e-09
4.043e-09
4.37116e-09
4.76836e-09
5.46793e-09
5.76891e-09
4.29038e-09
4.0022e-09
3.52018e-09
3.18963e-09
3.00838e-09
2.6473e-09
2.6302e-09
2.37905e-09
2.4177e-09
2.27433e-09
2.27601e-09
2.41073e-09
2.38174e-09
2.61462e-09
2.65262e-09
2.9817e-09
3.2033e-09
3.48864e-09
4.01862e-09
4.2741e-09
)
;

boundaryField
{
    fuel
    {
        type            fixedValue;
        value           nonuniform 0();
    }
    wall
    {
        type            zeroGradient;
    }
    outlet
    {
        type            zeroGradient;
    }
    frontAndBack
    {
        type            empty;
    }
    procBoundary1to0
    {
        type            processor;
        value           nonuniform List<scalar> 
21
(
2.72847e-07
1.83384e-07
1.33858e-07
1.18631e-07
1.08756e-07
9.90792e-08
9.72882e-08
9.10534e-08
9.12233e-08
8.83774e-08
7.10338e-08
7.10338e-08
7.33602e-08
7.32844e-08
7.84264e-08
8.02776e-08
8.81157e-08
9.73374e-08
1.09056e-07
1.48844e-07
2.07669e-07
)
;
    }
}


// ************************************************************************* //
