/*--------------------------------*- C++ -*----------------------------------*\
| =========                 |                                                 |
| \\      /  F ield         | OpenFOAM: The Open Source CFD Toolbox           |
|  \\    /   O peration     | Version:  dev                                   |
|   \\  /    A nd           | Web:      www.OpenFOAM.org                      |
|    \\/     M anipulation  |                                                 |
\*---------------------------------------------------------------------------*/
FoamFile
{
    version     2.0;
    format      ascii;
    class       volScalarField;
    location    "0.025";
    object      A1C2H3;
}
// * * * * * * * * * * * * * * * * * * * * * * * * * * * * * * * * * * * * * //

dimensions      [0 0 0 0 0 0 0];

internalField   nonuniform List<scalar> 
250
(
1.31584e-08
6.77082e-09
5.33492e-09
4.38111e-09
3.73504e-09
3.44007e-09
2.98241e-09
2.88074e-09
2.63558e-09
2.61034e-09
1.70411e-08
9.48799e-09
7.8438e-09
6.4219e-09
5.38399e-09
4.9124e-09
4.1753e-09
4.02439e-09
3.63557e-09
3.60225e-09
3.59504e-09
3.63756e-09
4.00553e-09
4.179e-09
4.8716e-09
5.39773e-09
6.34308e-09
7.85921e-09
9.36412e-09
1.66377e-08
2.42139e-08
1.46371e-08
1.26114e-08
1.02684e-08
8.43426e-09
7.59806e-09
6.31283e-09
6.06247e-09
5.39869e-09
5.3494e-09
5.33858e-09
5.40379e-09
6.0312e-09
6.32139e-09
7.52677e-09
8.46142e-09
1.01253e-08
1.26501e-08
1.44454e-08
2.37627e-08
3.77352e-08
2.47254e-08
2.18375e-08
1.76739e-08
1.42433e-08
1.26311e-08
1.02933e-08
9.81965e-09
8.64025e-09
8.54993e-09
8.53157e-09
8.64947e-09
9.76523e-09
1.03088e-08
1.25052e-08
1.42933e-08
1.74163e-08
2.19223e-08
2.44196e-08
3.72267e-08
6.22534e-08
4.40472e-08
3.88538e-08
3.1308e-08
2.49173e-08
2.19368e-08
1.76775e-08
1.65675e-08
1.44999e-08
1.43143e-08
1.42843e-08
1.45138e-08
1.64751e-08
1.77024e-08
2.1723e-08
2.49962e-08
3.08653e-08
3.90096e-08
4.34493e-08
6.16641e-08
1.02945e-07
7.69318e-08
6.73157e-08
5.41287e-08
4.28579e-08
3.71072e-08
2.99345e-08
2.77658e-08
2.43525e-08
2.38893e-08
2.38424e-08
2.43686e-08
2.76198e-08
2.99598e-08
3.67736e-08
4.29566e-08
5.34322e-08
6.75515e-08
7.60414e-08
1.0228e-07
1.63156e-07
1.26904e-07
1.09356e-07
8.79106e-08
6.96372e-08
5.94822e-08
4.83731e-08
4.43785e-08
3.92064e-08
3.81761e-08
3.81104e-08
3.92166e-08
4.41691e-08
4.83788e-08
5.90128e-08
6.97198e-08
8.69554e-08
1.09615e-07
1.25678e-07
1.62434e-07
2.41632e-07
1.93186e-07
1.63678e-07
1.31675e-07
1.0468e-07
8.84611e-08
7.27423e-08
6.60617e-08
5.89152e-08
5.69432e-08
5.68609e-08
5.89056e-08
6.57905e-08
7.26969e-08
8.78668e-08
1.04686e-07
1.30554e-07
1.63823e-07
1.91663e-07
2.40846e-07
3.31406e-07
2.69737e-07
2.25061e-07
1.81243e-07
1.44782e-07
1.21337e-07
1.00903e-07
9.08329e-08
8.1769e-08
7.84984e-08
7.84052e-08
8.17237e-08
9.05128e-08
1.00772e-07
1.20653e-07
1.44643e-07
1.80027e-07
2.25014e-07
2.68033e-07
3.30525e-07
4.2158e-07
3.46805e-07
2.85802e-07
2.30359e-07
1.84905e-07
1.53964e-07
1.29286e-07
1.15513e-07
1.04826e-07
1.00034e-07
9.99371e-08
1.04733e-07
1.15163e-07
1.29044e-07
1.53238e-07
1.84571e-07
2.29153e-07
2.85489e-07
3.45069e-07
4.20562e-07
4.99885e-07
4.13308e-07
3.37254e-07
2.71886e-07
2.19089e-07
1.81426e-07
1.53493e-07
1.36216e-07
1.24391e-07
1.18064e-07
1.1797e-07
1.24244e-07
1.35857e-07
1.53133e-07
1.80704e-07
2.18544e-07
2.70784e-07
3.36647e-07
4.11676e-07
4.98704e-07
5.526e-07
4.57166e-07
3.69996e-07
2.97997e-07
2.40534e-07
1.9814e-07
1.6832e-07
1.48446e-07
1.36071e-07
1.28546e-07
1.2846e-07
1.35877e-07
1.48097e-07
1.67861e-07
1.97458e-07
2.39817e-07
2.97046e-07
3.6915e-07
4.55715e-07
5.51276e-07
5.73304e-07
4.73301e-07
3.80777e-07
3.06086e-07
2.46696e-07
2.02343e-07
1.71758e-07
1.50817e-07
1.38247e-07
1.30249e-07
1.30167e-07
1.38034e-07
1.50478e-07
1.71262e-07
2.01693e-07
2.45914e-07
3.05235e-07
3.79844e-07
4.71971e-07
5.71915e-07
)
;

boundaryField
{
    fuel
    {
        type            fixedValue;
        value           nonuniform 0();
    }
    wall
    {
        type            zeroGradient;
    }
    outlet
    {
        type            zeroGradient;
    }
    frontAndBack
    {
        type            empty;
    }
    procBoundary1to0
    {
        type            processor;
        value           nonuniform List<scalar> 
21
(
1.08674e-08
5.20379e-09
3.91226e-09
3.21174e-09
2.77213e-09
2.57113e-09
2.26378e-09
2.19046e-09
2.02418e-09
2.00441e-09
2.60598e-09
2.60598e-09
2.63678e-09
2.86904e-09
2.98416e-09
3.41492e-09
3.74205e-09
4.33292e-09
5.33847e-09
6.67482e-09
1.27484e-08
)
;
    }
}


// ************************************************************************* //
