/*--------------------------------*- C++ -*----------------------------------*\
| =========                 |                                                 |
| \\      /  F ield         | OpenFOAM: The Open Source CFD Toolbox           |
|  \\    /   O peration     | Version:  dev                                   |
|   \\  /    A nd           | Web:      www.OpenFOAM.org                      |
|    \\/     M anipulation  |                                                 |
\*---------------------------------------------------------------------------*/
FoamFile
{
    version     2.0;
    format      ascii;
    class       volScalarField;
    location    "0.025";
    object      A1C2H;
}
// * * * * * * * * * * * * * * * * * * * * * * * * * * * * * * * * * * * * * //

dimensions      [0 0 0 0 0 0 0];

internalField   nonuniform List<scalar> 
2000
(
3.34046e-06
3.33894e-06
3.33929e-06
3.33891e-06
3.33905e-06
3.33885e-06
3.33897e-06
3.33887e-06
3.33895e-06
3.33888e-06
3.33893e-06
3.33888e-06
3.33891e-06
3.33886e-06
3.33887e-06
3.33884e-06
3.33884e-06
3.33882e-06
3.33882e-06
3.3388e-06
3.3388e-06
3.33879e-06
3.33879e-06
3.33878e-06
3.33878e-06
3.33878e-06
3.33878e-06
3.33879e-06
3.33879e-06
3.3388e-06
3.3388e-06
3.33882e-06
3.33882e-06
3.33884e-06
3.33884e-06
3.33887e-06
3.33886e-06
3.3389e-06
3.33887e-06
3.33893e-06
3.33888e-06
3.33895e-06
3.33886e-06
3.33897e-06
3.33885e-06
3.33905e-06
3.3389e-06
3.33929e-06
3.33894e-06
3.34045e-06
6.94968e-06
6.94592e-06
6.94598e-06
6.94484e-06
6.94508e-06
6.9446e-06
6.94487e-06
6.94462e-06
6.94482e-06
6.94465e-06
6.94478e-06
6.94464e-06
6.94471e-06
6.94461e-06
6.94464e-06
6.94456e-06
6.94457e-06
6.94451e-06
6.94451e-06
6.94447e-06
6.94447e-06
6.94444e-06
6.94444e-06
6.94443e-06
6.94443e-06
6.94443e-06
6.94443e-06
6.94444e-06
6.94445e-06
6.94447e-06
6.94447e-06
6.94451e-06
6.94451e-06
6.94457e-06
6.94456e-06
6.94464e-06
6.9446e-06
6.94471e-06
6.94464e-06
6.94477e-06
6.94465e-06
6.94482e-06
6.94462e-06
6.94486e-06
6.94459e-06
6.94508e-06
6.94483e-06
6.94598e-06
6.94591e-06
6.94967e-06
1.08398e-05
1.08353e-05
1.08362e-05
1.08348e-05
1.0835e-05
1.08345e-05
1.08347e-05
1.08345e-05
1.08346e-05
1.08345e-05
1.08346e-05
1.08345e-05
1.08345e-05
1.08344e-05
1.08344e-05
1.08343e-05
1.08343e-05
1.08342e-05
1.08342e-05
1.08341e-05
1.08341e-05
1.08341e-05
1.08341e-05
1.08341e-05
1.08341e-05
1.08341e-05
1.08341e-05
1.08341e-05
1.08341e-05
1.08341e-05
1.08341e-05
1.08342e-05
1.08342e-05
1.08343e-05
1.08343e-05
1.08344e-05
1.08344e-05
1.08345e-05
1.08345e-05
1.08346e-05
1.08345e-05
1.08346e-05
1.08345e-05
1.08347e-05
1.08344e-05
1.0835e-05
1.08348e-05
1.08362e-05
1.08353e-05
1.08398e-05
1.4061e-05
1.40538e-05
1.40528e-05
1.40498e-05
1.40493e-05
1.40486e-05
1.40488e-05
1.40486e-05
1.40487e-05
1.40486e-05
1.40486e-05
1.40485e-05
1.40485e-05
1.40484e-05
1.40483e-05
1.40482e-05
1.40482e-05
1.40481e-05
1.4048e-05
1.40479e-05
1.40479e-05
1.40479e-05
1.40478e-05
1.40478e-05
1.40478e-05
1.40478e-05
1.40478e-05
1.40478e-05
1.40479e-05
1.40479e-05
1.40479e-05
1.4048e-05
1.40481e-05
1.40482e-05
1.40482e-05
1.40483e-05
1.40484e-05
1.40485e-05
1.40485e-05
1.40486e-05
1.40486e-05
1.40487e-05
1.40486e-05
1.40488e-05
1.40486e-05
1.40493e-05
1.40498e-05
1.40528e-05
1.40538e-05
1.40609e-05
1.58185e-05
1.58084e-05
1.58052e-05
1.58004e-05
1.57993e-05
1.57984e-05
1.57984e-05
1.57982e-05
1.57983e-05
1.57982e-05
1.57982e-05
1.57981e-05
1.5798e-05
1.57978e-05
1.57978e-05
1.57976e-05
1.57975e-05
1.57974e-05
1.57973e-05
1.57972e-05
1.57972e-05
1.57971e-05
1.57971e-05
1.5797e-05
1.5797e-05
1.5797e-05
1.5797e-05
1.57971e-05
1.57971e-05
1.57972e-05
1.57972e-05
1.57973e-05
1.57974e-05
1.57975e-05
1.57976e-05
1.57978e-05
1.57978e-05
1.5798e-05
1.57981e-05
1.57982e-05
1.57982e-05
1.57983e-05
1.57982e-05
1.57984e-05
1.57984e-05
1.57992e-05
1.58004e-05
1.58052e-05
1.58084e-05
1.58185e-05
1.65031e-05
1.64911e-05
1.6487e-05
1.64811e-05
1.64793e-05
1.64784e-05
1.64783e-05
1.64782e-05
1.64782e-05
1.64781e-05
1.64781e-05
1.64779e-05
1.64778e-05
1.64776e-05
1.64775e-05
1.64773e-05
1.64772e-05
1.6477e-05
1.64769e-05
1.64768e-05
1.64767e-05
1.64766e-05
1.64766e-05
1.64765e-05
1.64765e-05
1.64765e-05
1.64765e-05
1.64766e-05
1.64766e-05
1.64767e-05
1.64768e-05
1.64769e-05
1.6477e-05
1.64771e-05
1.64773e-05
1.64775e-05
1.64776e-05
1.64778e-05
1.64779e-05
1.6478e-05
1.64781e-05
1.64782e-05
1.64781e-05
1.64782e-05
1.64784e-05
1.64793e-05
1.64811e-05
1.6487e-05
1.64911e-05
1.65031e-05
1.65693e-05
1.65565e-05
1.65531e-05
1.65466e-05
1.65444e-05
1.65435e-05
1.65432e-05
1.65432e-05
1.65431e-05
1.65431e-05
1.6543e-05
1.65428e-05
1.65427e-05
1.65425e-05
1.65423e-05
1.65421e-05
1.65419e-05
1.65417e-05
1.65416e-05
1.65415e-05
1.65413e-05
1.65413e-05
1.65412e-05
1.65412e-05
1.65411e-05
1.65411e-05
1.65412e-05
1.65412e-05
1.65413e-05
1.65413e-05
1.65415e-05
1.65416e-05
1.65417e-05
1.65419e-05
1.65421e-05
1.65423e-05
1.65425e-05
1.65426e-05
1.65428e-05
1.65429e-05
1.65431e-05
1.65431e-05
1.65432e-05
1.65431e-05
1.65435e-05
1.65444e-05
1.65466e-05
1.6553e-05
1.65565e-05
1.65692e-05
1.62836e-05
1.62711e-05
1.62693e-05
1.62629e-05
1.62604e-05
1.62597e-05
1.62591e-05
1.62593e-05
1.6259e-05
1.62592e-05
1.62589e-05
1.62589e-05
1.62586e-05
1.62584e-05
1.62581e-05
1.62579e-05
1.62577e-05
1.62575e-05
1.62573e-05
1.62572e-05
1.62571e-05
1.6257e-05
1.62569e-05
1.62568e-05
1.62568e-05
1.62568e-05
1.62569e-05
1.62569e-05
1.6257e-05
1.62571e-05
1.62572e-05
1.62573e-05
1.62575e-05
1.62577e-05
1.62579e-05
1.62581e-05
1.62584e-05
1.62586e-05
1.62588e-05
1.62589e-05
1.62591e-05
1.6259e-05
1.62593e-05
1.62591e-05
1.62596e-05
1.62604e-05
1.62629e-05
1.62693e-05
1.62711e-05
1.62836e-05
1.57882e-05
1.57769e-05
1.57776e-05
1.57717e-05
1.5769e-05
1.57684e-05
1.57676e-05
1.5768e-05
1.57676e-05
1.57679e-05
1.57675e-05
1.57675e-05
1.57671e-05
1.5767e-05
1.57666e-05
1.57664e-05
1.57661e-05
1.5766e-05
1.57657e-05
1.57656e-05
1.57654e-05
1.57653e-05
1.57652e-05
1.57652e-05
1.57651e-05
1.57651e-05
1.57652e-05
1.57652e-05
1.57653e-05
1.57654e-05
1.57656e-05
1.57657e-05
1.5766e-05
1.57661e-05
1.57664e-05
1.57666e-05
1.5767e-05
1.57671e-05
1.57675e-05
1.57675e-05
1.57678e-05
1.57676e-05
1.5768e-05
1.57676e-05
1.57684e-05
1.57689e-05
1.57717e-05
1.57775e-05
1.57768e-05
1.57881e-05
1.51635e-05
1.51541e-05
1.51579e-05
1.5153e-05
1.51501e-05
1.51499e-05
1.51488e-05
1.51494e-05
1.51488e-05
1.51492e-05
1.51487e-05
1.51488e-05
1.51483e-05
1.51482e-05
1.51477e-05
1.51476e-05
1.51472e-05
1.51471e-05
1.51468e-05
1.51466e-05
1.51464e-05
1.51463e-05
1.51462e-05
1.51462e-05
1.51461e-05
1.51461e-05
1.51462e-05
1.51462e-05
1.51463e-05
1.51464e-05
1.51466e-05
1.51468e-05
1.51471e-05
1.51472e-05
1.51476e-05
1.51477e-05
1.51482e-05
1.51483e-05
1.51488e-05
1.51487e-05
1.51492e-05
1.51488e-05
1.51494e-05
1.51488e-05
1.51498e-05
1.515e-05
1.51529e-05
1.51578e-05
1.5154e-05
1.51635e-05
1.44568e-05
1.44497e-05
1.4457e-05
1.44533e-05
1.44504e-05
1.44505e-05
1.44492e-05
1.445e-05
1.44492e-05
1.44497e-05
1.44491e-05
1.44493e-05
1.44487e-05
1.44486e-05
1.44481e-05
1.4448e-05
1.44475e-05
1.44474e-05
1.4447e-05
1.44469e-05
1.44467e-05
1.44466e-05
1.44464e-05
1.44464e-05
1.44464e-05
1.44464e-05
1.44464e-05
1.44465e-05
1.44466e-05
1.44467e-05
1.44469e-05
1.4447e-05
1.44474e-05
1.44475e-05
1.4448e-05
1.44481e-05
1.44486e-05
1.44487e-05
1.44493e-05
1.44491e-05
1.44497e-05
1.44491e-05
1.445e-05
1.44491e-05
1.44504e-05
1.44503e-05
1.44532e-05
1.4457e-05
1.44497e-05
1.44567e-05
1.36703e-05
1.36656e-05
1.36759e-05
1.36734e-05
1.36705e-05
1.36709e-05
1.36694e-05
1.36704e-05
1.36694e-05
1.36701e-05
1.36694e-05
1.36696e-05
1.36689e-05
1.36689e-05
1.36683e-05
1.36682e-05
1.36677e-05
1.36675e-05
1.36672e-05
1.3667e-05
1.36668e-05
1.36667e-05
1.36665e-05
1.36665e-05
1.36664e-05
1.36664e-05
1.36665e-05
1.36665e-05
1.36667e-05
1.36668e-05
1.3667e-05
1.36672e-05
1.36675e-05
1.36677e-05
1.36682e-05
1.36683e-05
1.36689e-05
1.36689e-05
1.36696e-05
1.36693e-05
1.36701e-05
1.36694e-05
1.36704e-05
1.36693e-05
1.36708e-05
1.36704e-05
1.36733e-05
1.36758e-05
1.36656e-05
1.36702e-05
1.28901e-05
1.28883e-05
1.2902e-05
1.2901e-05
1.28981e-05
1.2899e-05
1.28972e-05
1.28985e-05
1.28973e-05
1.28981e-05
1.28972e-05
1.28976e-05
1.28968e-05
1.28968e-05
1.28961e-05
1.28961e-05
1.28955e-05
1.28954e-05
1.28949e-05
1.28948e-05
1.28945e-05
1.28944e-05
1.28943e-05
1.28942e-05
1.28942e-05
1.28942e-05
1.28942e-05
1.28943e-05
1.28944e-05
1.28945e-05
1.28948e-05
1.28949e-05
1.28954e-05
1.28955e-05
1.2896e-05
1.28961e-05
1.28968e-05
1.28968e-05
1.28975e-05
1.28972e-05
1.28981e-05
1.28972e-05
1.28984e-05
1.28971e-05
1.28989e-05
1.28981e-05
1.29009e-05
1.29019e-05
1.28882e-05
1.28901e-05
1.21019e-05
1.20995e-05
1.2113e-05
1.21125e-05
1.21103e-05
1.21111e-05
1.21095e-05
1.21107e-05
1.21096e-05
1.21104e-05
1.21095e-05
1.21098e-05
1.21091e-05
1.21091e-05
1.21085e-05
1.21084e-05
1.21078e-05
1.21077e-05
1.21073e-05
1.21072e-05
1.21069e-05
1.21068e-05
1.21066e-05
1.21066e-05
1.21065e-05
1.21065e-05
1.21066e-05
1.21066e-05
1.21068e-05
1.21069e-05
1.21072e-05
1.21073e-05
1.21077e-05
1.21078e-05
1.21084e-05
1.21085e-05
1.21091e-05
1.21091e-05
1.21098e-05
1.21095e-05
1.21103e-05
1.21096e-05
1.21106e-05
1.21095e-05
1.21111e-05
1.21103e-05
1.21125e-05
1.2113e-05
1.20994e-05
1.21018e-05
1.12971e-05
1.12968e-05
1.13123e-05
1.1313e-05
1.1311e-05
1.1312e-05
1.13103e-05
1.13116e-05
1.13104e-05
1.13113e-05
1.13104e-05
1.13107e-05
1.13099e-05
1.131e-05
1.13093e-05
1.13092e-05
1.13086e-05
1.13085e-05
1.13081e-05
1.13079e-05
1.13076e-05
1.13075e-05
1.13074e-05
1.13073e-05
1.13073e-05
1.13073e-05
1.13073e-05
1.13074e-05
1.13075e-05
1.13076e-05
1.13079e-05
1.13081e-05
1.13085e-05
1.13086e-05
1.13092e-05
1.13093e-05
1.131e-05
1.13099e-05
1.13107e-05
1.13103e-05
1.13112e-05
1.13104e-05
1.13116e-05
1.13103e-05
1.1312e-05
1.13109e-05
1.13129e-05
1.13122e-05
1.12968e-05
1.1297e-05
1.05433e-05
1.05454e-05
1.05631e-05
1.05651e-05
1.05633e-05
1.05647e-05
1.05629e-05
1.05643e-05
1.0563e-05
1.05639e-05
1.05629e-05
1.05633e-05
1.05625e-05
1.05626e-05
1.05618e-05
1.05617e-05
1.05611e-05
1.0561e-05
1.05605e-05
1.05604e-05
1.05601e-05
1.056e-05
1.05598e-05
1.05598e-05
1.05597e-05
1.05597e-05
1.05598e-05
1.05598e-05
1.056e-05
1.05601e-05
1.05604e-05
1.05605e-05
1.0561e-05
1.05611e-05
1.05617e-05
1.05618e-05
1.05625e-05
1.05625e-05
1.05633e-05
1.05629e-05
1.05639e-05
1.05629e-05
1.05642e-05
1.05628e-05
1.05646e-05
1.05633e-05
1.0565e-05
1.0563e-05
1.05454e-05
1.05432e-05
9.79338e-06
9.79894e-06
9.81977e-06
9.82384e-06
9.82272e-06
9.82445e-06
9.82258e-06
9.82413e-06
9.82276e-06
9.82376e-06
9.82273e-06
9.82318e-06
9.82229e-06
9.82239e-06
9.8216e-06
9.82154e-06
9.8209e-06
9.82077e-06
9.82028e-06
9.82015e-06
9.81981e-06
9.81973e-06
9.81953e-06
9.81948e-06
9.81942e-06
9.81942e-06
9.81948e-06
9.81953e-06
9.81973e-06
9.81982e-06
9.82016e-06
9.82028e-06
9.82077e-06
9.82089e-06
9.82153e-06
9.82159e-06
9.82236e-06
9.82225e-06
9.82314e-06
9.82269e-06
9.82371e-06
9.82271e-06
9.82407e-06
9.82251e-06
9.82438e-06
9.82265e-06
9.82377e-06
9.8197e-06
9.79886e-06
9.79329e-06
9.10308e-06
9.11073e-06
9.133e-06
9.13818e-06
9.13738e-06
9.13932e-06
9.13742e-06
9.13904e-06
9.13763e-06
9.13867e-06
9.13761e-06
9.13807e-06
9.13715e-06
9.13727e-06
9.13646e-06
9.1364e-06
9.13573e-06
9.1356e-06
9.1351e-06
9.13497e-06
9.13462e-06
9.13453e-06
9.13433e-06
9.13428e-06
9.13422e-06
9.13422e-06
9.13428e-06
9.13433e-06
9.13454e-06
9.13463e-06
9.13497e-06
9.1351e-06
9.1356e-06
9.13572e-06
9.13638e-06
9.13644e-06
9.13724e-06
9.13712e-06
9.13803e-06
9.13756e-06
9.13861e-06
9.13757e-06
9.13898e-06
9.13735e-06
9.13926e-06
9.13731e-06
9.13811e-06
9.13292e-06
9.11066e-06
9.103e-06
8.42619e-06
8.43713e-06
8.46241e-06
8.46953e-06
8.46899e-06
8.47137e-06
8.46929e-06
8.47112e-06
8.46955e-06
8.47071e-06
8.46953e-06
8.47006e-06
8.46904e-06
8.46918e-06
8.46829e-06
8.46823e-06
8.4675e-06
8.46737e-06
8.46681e-06
8.46668e-06
8.46629e-06
8.4662e-06
8.46598e-06
8.46593e-06
8.46586e-06
8.46586e-06
8.46593e-06
8.46598e-06
8.46621e-06
8.4663e-06
8.46668e-06
8.46682e-06
8.46737e-06
8.46749e-06
8.46822e-06
8.46827e-06
8.46915e-06
8.469e-06
8.47002e-06
8.46948e-06
8.47065e-06
8.46949e-06
8.47105e-06
8.46921e-06
8.47129e-06
8.46891e-06
8.46945e-06
8.46233e-06
8.43705e-06
8.42611e-06
7.79012e-06
7.80244e-06
7.82791e-06
7.8357e-06
7.83544e-06
7.83791e-06
7.83589e-06
7.83771e-06
7.83616e-06
7.83731e-06
7.83613e-06
7.83665e-06
7.83563e-06
7.83575e-06
7.83486e-06
7.83479e-06
7.83405e-06
7.83391e-06
7.83335e-06
7.8332e-06
7.83281e-06
7.83271e-06
7.83249e-06
7.83243e-06
7.83236e-06
7.83236e-06
7.83244e-06
7.83249e-06
7.83272e-06
7.83282e-06
7.83321e-06
7.83335e-06
7.8339e-06
7.83404e-06
7.83477e-06
7.83484e-06
7.83572e-06
7.83559e-06
7.8366e-06
7.83608e-06
7.83724e-06
7.8361e-06
7.83764e-06
7.83581e-06
7.83784e-06
7.83537e-06
7.83562e-06
7.82783e-06
7.80236e-06
7.79004e-06
7.21905e-06
7.23283e-06
7.25874e-06
7.26724e-06
7.26727e-06
7.26986e-06
7.26786e-06
7.2697e-06
7.26815e-06
7.2693e-06
7.26812e-06
7.26863e-06
7.2676e-06
7.26772e-06
7.26682e-06
7.26674e-06
7.26599e-06
7.26584e-06
7.26528e-06
7.26513e-06
7.26473e-06
7.26463e-06
7.2644e-06
7.26434e-06
7.26427e-06
7.26427e-06
7.26435e-06
7.2644e-06
7.26463e-06
7.26474e-06
7.26513e-06
7.26528e-06
7.26584e-06
7.26599e-06
7.26673e-06
7.2668e-06
7.26769e-06
7.26756e-06
7.26858e-06
7.26806e-06
7.26923e-06
7.26809e-06
7.26963e-06
7.26778e-06
7.26978e-06
7.26719e-06
7.26716e-06
7.25866e-06
7.23275e-06
7.21897e-06
6.69024e-06
6.70531e-06
6.73141e-06
6.74049e-06
6.74077e-06
6.74345e-06
6.7415e-06
6.74334e-06
6.74181e-06
6.74294e-06
6.74176e-06
6.74227e-06
6.74124e-06
6.74135e-06
6.74043e-06
6.74035e-06
6.7396e-06
6.73944e-06
6.73886e-06
6.73871e-06
6.73831e-06
6.7382e-06
6.73797e-06
6.73791e-06
6.73784e-06
6.73784e-06
6.73791e-06
6.73797e-06
6.7382e-06
6.73831e-06
6.73871e-06
6.73886e-06
6.73943e-06
6.73959e-06
6.74034e-06
6.74041e-06
6.74132e-06
6.7412e-06
6.74222e-06
6.74171e-06
6.74287e-06
6.74174e-06
6.74327e-06
6.74142e-06
6.74338e-06
6.74069e-06
6.74041e-06
6.73132e-06
6.70523e-06
6.69017e-06
6.19222e-06
6.20675e-06
6.23057e-06
6.23936e-06
6.24007e-06
6.24266e-06
6.24091e-06
6.2426e-06
6.24121e-06
6.24226e-06
6.24123e-06
6.24172e-06
6.24082e-06
6.24095e-06
6.24015e-06
6.24009e-06
6.23942e-06
6.23929e-06
6.23878e-06
6.23865e-06
6.23829e-06
6.23819e-06
6.23798e-06
6.23793e-06
6.23786e-06
6.23786e-06
6.23793e-06
6.23798e-06
6.23819e-06
6.23829e-06
6.23865e-06
6.23878e-06
6.23929e-06
6.23941e-06
6.24007e-06
6.24012e-06
6.24092e-06
6.24078e-06
6.24167e-06
6.24118e-06
6.24221e-06
6.24115e-06
6.24253e-06
6.24084e-06
6.24259e-06
6.24e-06
6.23928e-06
6.23049e-06
6.20668e-06
6.19216e-06
5.74456e-06
5.75986e-06
5.78331e-06
5.79236e-06
5.79328e-06
5.79591e-06
5.79423e-06
5.79589e-06
5.79455e-06
5.79557e-06
5.79456e-06
5.79503e-06
5.79414e-06
5.79426e-06
5.79347e-06
5.7934e-06
5.79274e-06
5.7926e-06
5.79209e-06
5.79195e-06
5.79159e-06
5.7915e-06
5.79129e-06
5.79124e-06
5.79117e-06
5.79117e-06
5.79124e-06
5.79129e-06
5.7915e-06
5.7916e-06
5.79195e-06
5.79209e-06
5.7926e-06
5.79273e-06
5.79339e-06
5.79344e-06
5.79423e-06
5.7941e-06
5.79498e-06
5.79451e-06
5.79551e-06
5.79448e-06
5.79582e-06
5.79416e-06
5.79584e-06
5.79321e-06
5.79229e-06
5.78323e-06
5.75979e-06
5.7445e-06
5.31931e-06
5.33568e-06
5.3594e-06
5.36917e-06
5.37044e-06
5.3732e-06
5.37158e-06
5.37324e-06
5.37192e-06
5.37293e-06
5.37192e-06
5.37238e-06
5.37148e-06
5.37158e-06
5.37078e-06
5.37069e-06
5.37001e-06
5.36985e-06
5.36933e-06
5.36917e-06
5.3688e-06
5.36869e-06
5.36847e-06
5.36841e-06
5.36834e-06
5.36834e-06
5.36841e-06
5.36847e-06
5.36869e-06
5.3688e-06
5.36917e-06
5.36932e-06
5.36985e-06
5.37e-06
5.37067e-06
5.37075e-06
5.37155e-06
5.37144e-06
5.37233e-06
5.37187e-06
5.37286e-06
5.37185e-06
5.37317e-06
5.37151e-06
5.37313e-06
5.37036e-06
5.36909e-06
5.35932e-06
5.33561e-06
5.31925e-06
4.93083e-06
4.9474e-06
4.97017e-06
4.97989e-06
4.98131e-06
4.98403e-06
4.98252e-06
4.98411e-06
4.98286e-06
4.98381e-06
4.98286e-06
4.98327e-06
4.98241e-06
4.98248e-06
4.98169e-06
4.98159e-06
4.98092e-06
4.98075e-06
4.98023e-06
4.98007e-06
4.9797e-06
4.97958e-06
4.97937e-06
4.97931e-06
4.97924e-06
4.97924e-06
4.97931e-06
4.97937e-06
4.97959e-06
4.9797e-06
4.98007e-06
4.98023e-06
4.98075e-06
4.98091e-06
4.98157e-06
4.98167e-06
4.98245e-06
4.98237e-06
4.98322e-06
4.9828e-06
4.98375e-06
4.9828e-06
4.98404e-06
4.98245e-06
4.98396e-06
4.98123e-06
4.97981e-06
4.97008e-06
4.94733e-06
4.93078e-06
4.57675e-06
4.5934e-06
4.61516e-06
4.62475e-06
4.62629e-06
4.62896e-06
4.62756e-06
4.62908e-06
4.62791e-06
4.6288e-06
4.62788e-06
4.62826e-06
4.62743e-06
4.62747e-06
4.62671e-06
4.62659e-06
4.62593e-06
4.62575e-06
4.62524e-06
4.62507e-06
4.6247e-06
4.62458e-06
4.62437e-06
4.62431e-06
4.62424e-06
4.62424e-06
4.62431e-06
4.62437e-06
4.62459e-06
4.62471e-06
4.62507e-06
4.62524e-06
4.62575e-06
4.62592e-06
4.62657e-06
4.62669e-06
4.62744e-06
4.62739e-06
4.62821e-06
4.62783e-06
4.62873e-06
4.62784e-06
4.62901e-06
4.62749e-06
4.62889e-06
4.62622e-06
4.62467e-06
4.61507e-06
4.59334e-06
4.57671e-06
4.25465e-06
4.27124e-06
4.29197e-06
4.30136e-06
4.30301e-06
4.30561e-06
4.30432e-06
4.30576e-06
4.30467e-06
4.3055e-06
4.30463e-06
4.30497e-06
4.30416e-06
4.30419e-06
4.30344e-06
4.3033e-06
4.30266e-06
4.30247e-06
4.30197e-06
4.30179e-06
4.30143e-06
4.3013e-06
4.30109e-06
4.30103e-06
4.30096e-06
4.30096e-06
4.30103e-06
4.30109e-06
4.3013e-06
4.30143e-06
4.30179e-06
4.30196e-06
4.30246e-06
4.30265e-06
4.30329e-06
4.30342e-06
4.30415e-06
4.30412e-06
4.30492e-06
4.30457e-06
4.30543e-06
4.3046e-06
4.30569e-06
4.30425e-06
4.30554e-06
4.30293e-06
4.30128e-06
4.29189e-06
4.27117e-06
4.25461e-06
3.96206e-06
3.97846e-06
3.99818e-06
4.00731e-06
4.00904e-06
4.01157e-06
4.01039e-06
4.01175e-06
4.01073e-06
4.0115e-06
4.01068e-06
4.01098e-06
4.0102e-06
4.0102e-06
4.00948e-06
4.00932e-06
4.0087e-06
4.00849e-06
4.00799e-06
4.00781e-06
4.00745e-06
4.00732e-06
4.00711e-06
4.00705e-06
4.00698e-06
4.00698e-06
4.00705e-06
4.00712e-06
4.00733e-06
4.00746e-06
4.00781e-06
4.00799e-06
4.00848e-06
4.00868e-06
4.0093e-06
4.00945e-06
4.01017e-06
4.01016e-06
4.01093e-06
4.01062e-06
4.01144e-06
4.01066e-06
4.01168e-06
4.01031e-06
4.01149e-06
4.00896e-06
4.00723e-06
3.9981e-06
3.9784e-06
3.96201e-06
3.69652e-06
3.71267e-06
3.73136e-06
3.74021e-06
3.74199e-06
3.74445e-06
3.74337e-06
3.74466e-06
3.74371e-06
3.74442e-06
3.74365e-06
3.7439e-06
3.74316e-06
3.74313e-06
3.74243e-06
3.74226e-06
3.74165e-06
3.74143e-06
3.74094e-06
3.74075e-06
3.7404e-06
3.74026e-06
3.74006e-06
3.73999e-06
3.73992e-06
3.73992e-06
3.73999e-06
3.74006e-06
3.74027e-06
3.7404e-06
3.74075e-06
3.74094e-06
3.74142e-06
3.74163e-06
3.74224e-06
3.74241e-06
3.7431e-06
3.74312e-06
3.74386e-06
3.74359e-06
3.74436e-06
3.74364e-06
3.74459e-06
3.7433e-06
3.74437e-06
3.74191e-06
3.74013e-06
3.73128e-06
3.7126e-06
3.69648e-06
3.45569e-06
3.47151e-06
3.4892e-06
3.49773e-06
3.49956e-06
3.50194e-06
3.50096e-06
3.50218e-06
3.50129e-06
3.50195e-06
3.50122e-06
3.50144e-06
3.50072e-06
3.50067e-06
3.49999e-06
3.4998e-06
3.4992e-06
3.49897e-06
3.49849e-06
3.49829e-06
3.49795e-06
3.49781e-06
3.4976e-06
3.49753e-06
3.49747e-06
3.49747e-06
3.49754e-06
3.49761e-06
3.49781e-06
3.49795e-06
3.49829e-06
3.49849e-06
3.49897e-06
3.49919e-06
3.49978e-06
3.49996e-06
3.50064e-06
3.50068e-06
3.50139e-06
3.50116e-06
3.50189e-06
3.50122e-06
3.5021e-06
3.50089e-06
3.50186e-06
3.49948e-06
3.49765e-06
3.48911e-06
3.47144e-06
3.45565e-06
3.23733e-06
3.25276e-06
3.26945e-06
3.27768e-06
3.27953e-06
3.28183e-06
3.28095e-06
3.28209e-06
3.28127e-06
3.28188e-06
3.28118e-06
3.28137e-06
3.28068e-06
3.2806e-06
3.27994e-06
3.27973e-06
3.27915e-06
3.27891e-06
3.27844e-06
3.27823e-06
3.27789e-06
3.27775e-06
3.27755e-06
3.27747e-06
3.27741e-06
3.27741e-06
3.27747e-06
3.27755e-06
3.27775e-06
3.27789e-06
3.27823e-06
3.27844e-06
3.2789e-06
3.27914e-06
3.27972e-06
3.27991e-06
3.28057e-06
3.28064e-06
3.28132e-06
3.28112e-06
3.28181e-06
3.2812e-06
3.28202e-06
3.28087e-06
3.28175e-06
3.27945e-06
3.2776e-06
3.26937e-06
3.25269e-06
3.23728e-06
3.03931e-06
3.05432e-06
3.07005e-06
3.07795e-06
3.07982e-06
3.08204e-06
3.08124e-06
3.08232e-06
3.08156e-06
3.08211e-06
3.08146e-06
3.08161e-06
3.08095e-06
3.08085e-06
3.0802e-06
3.07998e-06
3.0794e-06
3.07916e-06
3.07869e-06
3.07848e-06
3.07814e-06
3.07799e-06
3.0778e-06
3.07772e-06
3.07766e-06
3.07766e-06
3.07772e-06
3.0778e-06
3.078e-06
3.07815e-06
3.07848e-06
3.07869e-06
3.07915e-06
3.07939e-06
3.07996e-06
3.08018e-06
3.08081e-06
3.0809e-06
3.08156e-06
3.0814e-06
3.08205e-06
3.08149e-06
3.08225e-06
3.08117e-06
3.08196e-06
3.07974e-06
3.07787e-06
3.06996e-06
3.05425e-06
3.03926e-06
2.85967e-06
2.87422e-06
2.88902e-06
2.89661e-06
2.89849e-06
2.90063e-06
2.89991e-06
2.90092e-06
2.90022e-06
2.90073e-06
2.9001e-06
2.90022e-06
2.89958e-06
2.89946e-06
2.89883e-06
2.8986e-06
2.89803e-06
2.89777e-06
2.89732e-06
2.89709e-06
2.89677e-06
2.89661e-06
2.89642e-06
2.89634e-06
2.89627e-06
2.89627e-06
2.89634e-06
2.89642e-06
2.89661e-06
2.89677e-06
2.8971e-06
2.89732e-06
2.89777e-06
2.89802e-06
2.89858e-06
2.89881e-06
2.89943e-06
2.89954e-06
2.90017e-06
2.90004e-06
2.90066e-06
2.90015e-06
2.90085e-06
2.89983e-06
2.90055e-06
2.89841e-06
2.89653e-06
2.88893e-06
2.87415e-06
2.85963e-06
2.6966e-06
2.71067e-06
2.72457e-06
2.73186e-06
2.73373e-06
2.73579e-06
2.73516e-06
2.73611e-06
2.73546e-06
2.73592e-06
2.73532e-06
2.73541e-06
2.73479e-06
2.73465e-06
2.73404e-06
2.73379e-06
2.73323e-06
2.73296e-06
2.73251e-06
2.73228e-06
2.73196e-06
2.7318e-06
2.73161e-06
2.73153e-06
2.73146e-06
2.73146e-06
2.73153e-06
2.73161e-06
2.7318e-06
2.73196e-06
2.73229e-06
2.73251e-06
2.73296e-06
2.73322e-06
2.73377e-06
2.73401e-06
2.73462e-06
2.73475e-06
2.73536e-06
2.73526e-06
2.73585e-06
2.73539e-06
2.73603e-06
2.73508e-06
2.73571e-06
2.73365e-06
2.73178e-06
2.72448e-06
2.7106e-06
2.69656e-06
2.54845e-06
2.562e-06
2.57505e-06
2.58205e-06
2.58391e-06
2.58589e-06
2.58533e-06
2.58622e-06
2.58562e-06
2.58604e-06
2.58547e-06
2.58553e-06
2.58493e-06
2.58477e-06
2.58417e-06
2.5839e-06
2.58336e-06
2.58308e-06
2.58263e-06
2.5824e-06
2.58208e-06
2.58191e-06
2.58172e-06
2.58164e-06
2.58158e-06
2.58158e-06
2.58164e-06
2.58172e-06
2.58192e-06
2.58208e-06
2.5824e-06
2.58263e-06
2.58307e-06
2.58334e-06
2.58388e-06
2.58414e-06
2.58474e-06
2.58489e-06
2.58548e-06
2.58541e-06
2.58597e-06
2.58555e-06
2.58614e-06
2.58525e-06
2.58581e-06
2.58383e-06
2.58197e-06
2.57496e-06
2.56192e-06
2.5484e-06
2.41369e-06
2.4267e-06
2.43895e-06
2.44568e-06
2.44752e-06
2.44942e-06
2.44893e-06
2.44976e-06
2.44921e-06
2.44958e-06
2.44905e-06
2.44908e-06
2.44849e-06
2.44831e-06
2.44772e-06
2.44744e-06
2.4469e-06
2.44662e-06
2.44618e-06
2.44594e-06
2.44562e-06
2.44545e-06
2.44526e-06
2.44517e-06
2.44511e-06
2.44511e-06
2.44518e-06
2.44526e-06
2.44545e-06
2.44562e-06
2.44594e-06
2.44618e-06
2.44661e-06
2.44689e-06
2.44742e-06
2.44769e-06
2.44828e-06
2.44845e-06
2.44903e-06
2.44899e-06
2.44952e-06
2.44914e-06
2.44969e-06
2.44885e-06
2.44934e-06
2.44743e-06
2.44559e-06
2.43886e-06
2.42662e-06
2.41364e-06
2.29092e-06
2.30342e-06
2.31493e-06
2.32137e-06
2.32319e-06
2.32503e-06
2.32459e-06
2.32538e-06
2.32487e-06
2.3252e-06
2.32468e-06
2.32469e-06
2.32412e-06
2.32392e-06
2.32334e-06
2.32305e-06
2.32251e-06
2.32222e-06
2.32178e-06
2.32153e-06
2.32122e-06
2.32105e-06
2.32086e-06
2.32077e-06
2.32071e-06
2.32071e-06
2.32077e-06
2.32086e-06
2.32105e-06
2.32122e-06
2.32154e-06
2.32178e-06
2.32221e-06
2.3225e-06
2.32303e-06
2.32331e-06
2.32389e-06
2.32408e-06
2.32464e-06
2.32462e-06
2.32513e-06
2.32479e-06
2.3253e-06
2.32451e-06
2.32494e-06
2.32311e-06
2.32129e-06
2.31484e-06
2.30334e-06
2.29087e-06
2.17892e-06
2.19092e-06
2.20176e-06
2.20791e-06
2.20971e-06
2.21147e-06
2.21109e-06
2.21183e-06
2.21136e-06
2.21165e-06
2.21116e-06
2.21114e-06
2.21058e-06
2.21036e-06
2.20979e-06
2.20948e-06
2.20896e-06
2.20865e-06
2.20822e-06
2.20797e-06
2.20765e-06
2.20747e-06
2.20729e-06
2.2072e-06
2.20713e-06
2.20713e-06
2.2072e-06
2.20729e-06
2.20748e-06
2.20765e-06
2.20797e-06
2.20822e-06
2.20865e-06
2.20895e-06
2.20947e-06
2.20976e-06
2.21033e-06
2.21054e-06
2.21108e-06
2.2111e-06
2.21158e-06
2.21128e-06
2.21175e-06
2.21101e-06
2.21138e-06
2.20962e-06
2.20783e-06
2.20166e-06
2.19084e-06
2.17886e-06
2.07659e-06
2.08811e-06
2.0983e-06
2.10419e-06
2.10595e-06
2.10765e-06
2.10732e-06
2.10801e-06
2.10758e-06
2.10784e-06
2.10736e-06
2.10732e-06
2.10677e-06
2.10654e-06
2.10597e-06
2.10565e-06
2.10513e-06
2.10481e-06
2.10438e-06
2.10412e-06
2.10381e-06
2.10363e-06
2.10344e-06
2.10335e-06
2.10329e-06
2.10329e-06
2.10335e-06
2.10344e-06
2.10363e-06
2.10381e-06
2.10412e-06
2.10438e-06
2.10481e-06
2.10512e-06
2.10563e-06
2.10594e-06
2.1065e-06
2.10673e-06
2.10726e-06
2.1073e-06
2.10777e-06
2.1075e-06
2.10793e-06
2.10724e-06
2.10756e-06
2.10587e-06
2.1041e-06
2.09821e-06
2.08803e-06
2.07653e-06
)
;

boundaryField
{
    fuel
    {
        type            fixedValue;
        value           uniform 0;
    }
    wall
    {
        type            zeroGradient;
    }
    outlet
    {
        type            zeroGradient;
    }
    frontAndBack
    {
        type            empty;
    }
    procBoundary1to0
    {
        type            processor;
        value           nonuniform List<scalar> 
50
(
1.98293e-06
1.99398e-06
2.00357e-06
2.0092e-06
2.01093e-06
2.01256e-06
2.01229e-06
2.01294e-06
2.01253e-06
2.01276e-06
2.0123e-06
2.01223e-06
2.01169e-06
2.01144e-06
2.01087e-06
2.01054e-06
2.01002e-06
2.0097e-06
2.00927e-06
2.00901e-06
2.00869e-06
2.00851e-06
2.00832e-06
2.00823e-06
2.00817e-06
2.00817e-06
2.00823e-06
2.00833e-06
2.00851e-06
2.0087e-06
2.00901e-06
2.00927e-06
2.0097e-06
2.01001e-06
2.01053e-06
2.01085e-06
2.0114e-06
2.01165e-06
2.01217e-06
2.01223e-06
2.01269e-06
2.01245e-06
2.01286e-06
2.0122e-06
2.01248e-06
2.01085e-06
2.00911e-06
2.00348e-06
1.9939e-06
1.98287e-06
)
;
    }
}


// ************************************************************************* //
