/*--------------------------------*- C++ -*----------------------------------*\
| =========                 |                                                 |
| \\      /  F ield         | OpenFOAM: The Open Source CFD Toolbox           |
|  \\    /   O peration     | Version:  dev                                   |
|   \\  /    A nd           | Web:      www.OpenFOAM.org                      |
|    \\/     M anipulation  |                                                 |
\*---------------------------------------------------------------------------*/
FoamFile
{
    version     2.0;
    format      ascii;
    class       volScalarField;
    location    "0.025";
    object      A2R5;
}
// * * * * * * * * * * * * * * * * * * * * * * * * * * * * * * * * * * * * * //

dimensions      [0 0 0 0 0 0 0];

internalField   nonuniform List<scalar> 
250
(
1.67282e-07
1.12841e-07
8.35243e-08
6.77869e-08
5.75954e-08
5.11335e-08
4.66988e-08
4.3836e-08
4.2158e-08
4.12125e-08
1.6373e-07
1.14244e-07
8.60302e-08
6.97483e-08
5.87436e-08
5.16326e-08
4.67536e-08
4.35998e-08
4.17644e-08
4.07265e-08
4.07179e-08
4.17273e-08
4.35385e-08
4.6651e-08
5.14722e-08
5.85614e-08
6.93985e-08
8.56849e-08
1.13499e-07
1.6164e-07
1.61228e-07
1.16092e-07
8.86678e-08
7.17317e-08
5.98697e-08
5.20748e-08
4.67388e-08
4.32815e-08
4.12851e-08
4.01514e-08
4.0142e-08
4.1245e-08
4.32162e-08
4.66285e-08
5.1905e-08
5.96744e-08
7.13727e-08
8.83226e-08
1.15387e-07
1.59454e-07
1.59834e-07
1.18362e-07
9.14e-08
7.37095e-08
6.09541e-08
5.24471e-08
4.6644e-08
4.28743e-08
4.07135e-08
3.94818e-08
3.94716e-08
4.06706e-08
4.28053e-08
4.65261e-08
5.22688e-08
6.07458e-08
7.33418e-08
9.10581e-08
1.17695e-07
1.5834e-07
1.59559e-07
1.21064e-07
9.41999e-08
7.56635e-08
6.1986e-08
5.27511e-08
4.64636e-08
4.23799e-08
4.00519e-08
3.87186e-08
3.87075e-08
4.00062e-08
4.23074e-08
4.63387e-08
5.25651e-08
6.17652e-08
7.52814e-08
9.38713e-08
1.20418e-07
1.58308e-07
1.6036e-07
1.24084e-07
9.70453e-08
7.75805e-08
6.29602e-08
5.29766e-08
4.62089e-08
4.18065e-08
3.93093e-08
3.78783e-08
3.78663e-08
3.92612e-08
4.17307e-08
4.60776e-08
5.27841e-08
6.27278e-08
7.71716e-08
9.67457e-08
1.23472e-07
1.59317e-07
1.62154e-07
1.274e-07
9.99108e-08
7.94487e-08
6.38748e-08
5.31347e-08
4.58863e-08
4.11671e-08
3.85003e-08
3.69748e-08
3.69619e-08
3.845e-08
4.10883e-08
4.57496e-08
5.29367e-08
6.36321e-08
7.90414e-08
9.96154e-08
1.26819e-07
1.61286e-07
1.64814e-07
1.30943e-07
1.02765e-07
8.12547e-08
6.47288e-08
5.3233e-08
4.55093e-08
4.04792e-08
3.76443e-08
3.60288e-08
3.6015e-08
3.75923e-08
4.03977e-08
4.53679e-08
5.30307e-08
6.44771e-08
8.08884e-08
1.02438e-07
1.30395e-07
1.64093e-07
1.68174e-07
1.34625e-07
1.05564e-07
8.29794e-08
6.55198e-08
5.32805e-08
4.50947e-08
3.97647e-08
3.67662e-08
3.50664e-08
3.50515e-08
3.67129e-08
3.96809e-08
4.49497e-08
5.30752e-08
6.52605e-08
8.26294e-08
1.05233e-07
1.34113e-07
1.67574e-07
1.72013e-07
1.38321e-07
1.08248e-07
8.45939e-08
6.62418e-08
5.32879e-08
4.4664e-08
3.90519e-08
3.58979e-08
3.4121e-08
3.4105e-08
3.58436e-08
3.8966e-08
4.45163e-08
5.30808e-08
6.59763e-08
8.4257e-08
1.07919e-07
1.37848e-07
1.7151e-07
1.76035e-07
1.41857e-07
1.10723e-07
8.60518e-08
6.68817e-08
5.3267e-08
4.42451e-08
3.83778e-08
3.50823e-08
3.32377e-08
3.32207e-08
3.50274e-08
3.82903e-08
4.40956e-08
5.30594e-08
6.66113e-08
8.57292e-08
1.10396e-07
1.41425e-07
1.7561e-07
1.79804e-07
1.44961e-07
1.12829e-07
8.72715e-08
6.74108e-08
5.32308e-08
4.38764e-08
3.77959e-08
3.43816e-08
3.24823e-08
3.24643e-08
3.43265e-08
3.7707e-08
4.37258e-08
5.30238e-08
6.71363e-08
8.6964e-08
1.12502e-07
1.44568e-07
1.79434e-07
1.82565e-07
1.47142e-07
1.14259e-07
8.8093e-08
6.77642e-08
5.31957e-08
4.36199e-08
3.73958e-08
3.39017e-08
3.19667e-08
3.1948e-08
3.38466e-08
3.73061e-08
4.34687e-08
5.299e-08
6.74865e-08
8.77985e-08
1.13932e-07
1.4678e-07
1.8223e-07
)
;

boundaryField
{
    fuel
    {
        type            fixedValue;
        value           nonuniform 0();
    }
    wall
    {
        type            zeroGradient;
    }
    outlet
    {
        type            zeroGradient;
    }
    frontAndBack
    {
        type            empty;
    }
    procBoundary1to0
    {
        type            processor;
        value           nonuniform List<scalar> 
21
(
1.71812e-07
1.11913e-07
8.12001e-08
6.58877e-08
5.64566e-08
5.06014e-08
4.65958e-08
4.40073e-08
4.24831e-08
4.16249e-08
4.12049e-08
4.12049e-08
4.21242e-08
4.37795e-08
4.66047e-08
5.09844e-08
5.74275e-08
6.74509e-08
8.31804e-08
1.12063e-07
1.64871e-07
)
;
    }
}


// ************************************************************************* //
