/*--------------------------------*- C++ -*----------------------------------*\
| =========                 |                                                 |
| \\      /  F ield         | OpenFOAM: The Open Source CFD Toolbox           |
|  \\    /   O peration     | Version:  dev                                   |
|   \\  /    A nd           | Web:      www.OpenFOAM.org                      |
|    \\/     M anipulation  |                                                 |
\*---------------------------------------------------------------------------*/
FoamFile
{
    version     2.0;
    format      ascii;
    class       volScalarField;
    location    "0.025";
    object      A3C2H;
}
// * * * * * * * * * * * * * * * * * * * * * * * * * * * * * * * * * * * * * //

dimensions      [0 0 0 0 0 0 0];

internalField   nonuniform List<scalar> 
25
(
1.03775e-15
1.37645e-15
1.8639e-15
2.55923e-15
3.5572e-15
4.91684e-15
6.75249e-15
9.19106e-15
1.22873e-14
1.61557e-14
2.08712e-14
2.64884e-14
3.30364e-14
4.05165e-14
4.89e-14
5.81293e-14
6.81183e-14
7.87535e-14
8.9893e-14
1.01363e-13
1.13108e-13
1.24663e-13
1.35939e-13
1.46703e-13
1.56715e-13
)
;

boundaryField
{
    wall
    {
        type            zeroGradient;
    }
    fuel
    {
        type            fixedValue;
        value           nonuniform 0();
    }
    outlet
    {
        type            inletOutlet;
        inletValue      nonuniform 0();
        value           nonuniform 0();
    }
    procBoundary1to0
    {
        type            processor;
        value           uniform 7.9956e-16;
    }
    procBoundary1to2
    {
        type            processor;
        value           uniform 1.65733e-13;
    }
}


// ************************************************************************* //
