/*--------------------------------*- C++ -*----------------------------------*\
| =========                 |                                                 |
| \\      /  F ield         | OpenFOAM: The Open Source CFD Toolbox           |
|  \\    /   O peration     | Version:  dev                                   |
|   \\  /    A nd           | Web:      www.OpenFOAM.org                      |
|    \\/     M anipulation  |                                                 |
\*---------------------------------------------------------------------------*/
FoamFile
{
    version     2.0;
    format      ascii;
    class       volScalarField;
    location    "0.025";
    object      AR;
}
// * * * * * * * * * * * * * * * * * * * * * * * * * * * * * * * * * * * * * //

dimensions      [0 0 0 0 0 0 0];

internalField   nonuniform List<scalar> 
250
(
0.660819
0.660232
0.657689
0.657447
0.658039
0.657799
0.659251
0.659002
0.660134
0.659851
0.655649
0.655023
0.652441
0.652241
0.652947
0.652765
0.654356
0.654123
0.655369
0.65506
0.655101
0.65538
0.65423
0.65438
0.652954
0.652974
0.65252
0.652497
0.655283
0.655741
0.649871
0.649224
0.646654
0.646508
0.647341
0.647238
0.648969
0.648763
0.650122
0.649786
0.649831
0.650136
0.64888
0.649001
0.647445
0.647381
0.646815
0.646728
0.649516
0.649991
0.643471
0.642823
0.640326
0.64025
0.641221
0.641222
0.643093
0.642923
0.644393
0.64403
0.644078
0.644412
0.64305
0.643134
0.641447
0.641276
0.640585
0.640422
0.643144
0.643628
0.636455
0.63573
0.633474
0.633486
0.634602
0.634595
0.636624
0.636623
0.638199
0.637786
0.637837
0.638222
0.63676
0.636674
0.634838
0.634677
0.633849
0.633596
0.63612
0.636661
0.628875
0.628173
0.626139
0.626256
0.62753
0.627659
0.629818
0.629901
0.631575
0.631141
0.631195
0.631604
0.630047
0.629881
0.62792
0.627628
0.626648
0.626292
0.628599
0.629131
0.620803
0.620143
0.618399
0.61863
0.620071
0.620359
0.622633
0.622822
0.624585
0.624145
0.624201
0.624621
0.622978
0.622712
0.620636
0.620196
0.61905
0.618587
0.620608
0.621107
0.612349
0.611748
0.610366
0.610719
0.612331
0.612798
0.615171
0.615489
0.617326
0.616893
0.616953
0.61737
0.615653
0.615268
0.613091
0.612486
0.611163
0.610597
0.612254
0.612702
0.603682
0.60316
0.602206
0.602684
0.604467
0.605131
0.60758
0.608052
0.609944
0.609533
0.609594
0.609999
0.608222
0.607697
0.605437
0.604655
0.60315
0.602483
0.603706
0.604089
0.595066
0.594633
0.59416
0.594763
0.596709
0.597584
0.600085
0.600728
0.602657
0.602279
0.602342
0.602722
0.600904
0.600223
0.5979
0.596934
0.595248
0.594486
0.595218
0.595529
0.586896
0.586557
0.586587
0.58731
0.589405
0.590493
0.593018
0.593846
0.595789
0.595454
0.595517
0.595866
0.594024
0.593179
0.590817
0.589667
0.587809
0.586963
0.587175
0.587414
0.579798
0.579544
0.580055
0.580881
0.5831
0.584386
0.586909
0.587915
0.589852
0.589566
0.589629
0.58994
0.588095
0.587092
0.584714
0.583398
0.581389
0.580477
0.58019
0.580366
0.574886
0.574687
0.575571
0.576464
0.578766
0.580198
0.5827
0.583845
0.585761
0.585517
0.58558
0.585858
0.584024
0.582899
0.580526
0.579091
0.576975
0.576027
0.575349
0.575488
)
;

boundaryField
{
    fuel
    {
        type            fixedValue;
        value           nonuniform 0();
    }
    wall
    {
        type            zeroGradient;
    }
    outlet
    {
        type            zeroGradient;
    }
    frontAndBack
    {
        type            empty;
    }
    procBoundary1to0
    {
        type            processor;
        value           nonuniform List<scalar> 
21
(
0.66541
0.664873
0.662412
0.662138
0.662628
0.662349
0.663665
0.663408
0.664428
0.664172
0.659889
0.659889
0.660143
0.659099
0.65927
0.657971
0.658055
0.6577
0.657731
0.660463
0.660891
)
;
    }
}


// ************************************************************************* //
