/*--------------------------------*- C++ -*----------------------------------*\
| =========                 |                                                 |
| \\      /  F ield         | OpenFOAM: The Open Source CFD Toolbox           |
|  \\    /   O peration     | Version:  dev                                   |
|   \\  /    A nd           | Web:      www.OpenFOAM.org                      |
|    \\/     M anipulation  |                                                 |
\*---------------------------------------------------------------------------*/
FoamFile
{
    version     2.0;
    format      ascii;
    class       volScalarField;
    location    "0.025";
    object      C;
}
// * * * * * * * * * * * * * * * * * * * * * * * * * * * * * * * * * * * * * //

dimensions      [0 0 0 0 0 0 0];

internalField   nonuniform List<scalar> 
250
(
1.67673e-11
2.54097e-11
2.13973e-11
2.25009e-11
2.33788e-11
2.15871e-11
2.49942e-11
2.28864e-11
2.57078e-11
2.44284e-11
8.33589e-12
1.23364e-11
1.00634e-11
1.05612e-11
1.10085e-11
1.01605e-11
1.18791e-11
1.08265e-11
1.22714e-11
1.16205e-11
1.16627e-11
1.2213e-11
1.08997e-11
1.17739e-11
1.02789e-11
1.0846e-11
1.07479e-11
9.93875e-12
1.25385e-11
8.4284e-12
3.89123e-12
5.60664e-12
4.45255e-12
4.66148e-12
4.8817e-12
4.51155e-12
5.32461e-12
4.83216e-12
5.52421e-12
5.21635e-12
5.23607e-12
5.49564e-12
4.86708e-12
5.27373e-12
4.5681e-12
4.80553e-12
4.74974e-12
4.3921e-12
5.69943e-12
3.92917e-12
1.71305e-12
2.39684e-12
1.86121e-12
1.94309e-12
2.04572e-12
1.89988e-12
2.26114e-12
2.04198e-12
2.35269e-12
2.21673e-12
2.22551e-12
2.33987e-12
2.05754e-12
2.23855e-12
1.92491e-12
2.01259e-12
1.98131e-12
1.834e-12
2.43379e-12
1.72658e-12
7.15678e-13
9.57995e-13
7.40098e-13
7.69834e-13
8.14276e-13
7.47867e-13
8.98545e-13
8.207e-13
9.51834e-13
8.92471e-13
8.96056e-13
9.46457e-13
8.27209e-13
8.89114e-13
7.57934e-13
8.0076e-13
7.85241e-13
7.28612e-13
9.75378e-13
7.20434e-13
2.87406e-13
3.69148e-13
2.83322e-13
2.93094e-13
3.10873e-13
2.8624e-13
3.45448e-13
3.15898e-13
3.68004e-13
3.44211e-13
3.45615e-13
3.65879e-13
3.18461e-13
3.41762e-13
2.90123e-13
3.05658e-13
2.98931e-13
2.78719e-13
3.75495e-13
2.88981e-13
1.13026e-13
1.39133e-13
1.06824e-13
1.09601e-13
1.16062e-13
1.07159e-13
1.29034e-13
1.18183e-13
1.37689e-13
1.28674e-13
1.29195e-13
1.36891e-13
1.19135e-13
1.27661e-13
1.08573e-13
1.14134e-13
1.11691e-13
1.05056e-13
1.41337e-13
1.13491e-13
4.4586e-14
5.3071e-14
4.1373e-14
4.21067e-14
4.42955e-14
4.10064e-14
4.86907e-14
4.47155e-14
5.16578e-14
4.83484e-14
4.85337e-14
5.1367e-14
4.50528e-14
4.81912e-14
4.15008e-14
4.35934e-14
4.28328e-14
4.07104e-14
5.38421e-14
4.47192e-14
1.80363e-14
2.1399e-14
1.74817e-14
1.78926e-14
1.88027e-14
1.75253e-14
2.02858e-14
1.87327e-14
2.12191e-14
1.99592e-14
2.00256e-14
2.11099e-14
1.88531e-14
2.00959e-14
1.77031e-14
1.85339e-14
1.81633e-14
1.72276e-14
2.17033e-14
1.80921e-14
7.56698e-15
9.39486e-15
8.45631e-15
8.99713e-15
9.7319e-15
9.2471e-15
1.0481e-14
9.76784e-15
1.08163e-14
1.02444e-14
1.0271e-14
1.07689e-14
9.81693e-15
1.03965e-14
9.32418e-15
9.61398e-15
9.12497e-15
8.35364e-15
9.54679e-15
7.60628e-15
3.13101e-15
4.28743e-15
4.50496e-15
5.21482e-15
6.0918e-15
6.00788e-15
6.80621e-15
6.41193e-15
7.0043e-15
6.66295e-15
6.67518e-15
6.9794e-15
6.4363e-15
6.76063e-15
6.05267e-15
6.0335e-15
5.29655e-15
4.46522e-15
4.37832e-15
3.16132e-15
1.11908e-15
1.79449e-15
2.36255e-15
3.15009e-15
4.16091e-15
4.3567e-15
5.00416e-15
4.78311e-15
5.18225e-15
4.94341e-15
4.94852e-15
5.16838e-15
4.79569e-15
4.97879e-15
4.3878e-15
4.13593e-15
3.20994e-15
2.3545e-15
1.84599e-15
1.13822e-15
3.40612e-16
6.90497e-16
1.23289e-15
1.98221e-15
3.0099e-15
3.37935e-15
3.94135e-15
3.82961e-15
4.11819e-15
3.93972e-15
3.94111e-15
4.1103e-15
3.83572e-15
3.92789e-15
3.40282e-15
3.00487e-15
2.02753e-15
1.23885e-15
7.16608e-16
3.50275e-16
)
;

boundaryField
{
    fuel
    {
        type            fixedValue;
        value           nonuniform 0();
    }
    wall
    {
        type            zeroGradient;
    }
    outlet
    {
        type            zeroGradient;
    }
    frontAndBack
    {
        type            empty;
    }
    procBoundary1to0
    {
        type            processor;
        value           nonuniform List<scalar> 
21
(
3.17445e-11
4.90381e-11
4.26715e-11
4.50476e-11
4.66253e-11
4.31765e-11
4.94402e-11
4.55402e-11
5.06612e-11
4.83327e-11
2.45064e-11
2.45064e-11
2.55873e-11
2.30318e-11
2.47823e-11
2.18338e-11
2.30428e-11
2.29019e-11
2.11502e-11
2.58805e-11
1.70338e-11
)
;
    }
}


// ************************************************************************* //
