/*--------------------------------*- C++ -*----------------------------------*\
| =========                 |                                                 |
| \\      /  F ield         | OpenFOAM: The Open Source CFD Toolbox           |
|  \\    /   O peration     | Version:  dev                                   |
|   \\  /    A nd           | Web:      www.OpenFOAM.org                      |
|    \\/     M anipulation  |                                                 |
\*---------------------------------------------------------------------------*/
FoamFile
{
    version     2.0;
    format      ascii;
    class       volScalarField;
    location    "0.025";
    object      CO2;
}
// * * * * * * * * * * * * * * * * * * * * * * * * * * * * * * * * * * * * * //

dimensions      [0 0 0 0 0 0 0];

internalField   nonuniform List<scalar> 
2000
(
0.0125
0.0124995
0.012502
0.0125029
0.0125042
0.0125039
0.0125043
0.012504
0.0125043
0.0125041
0.0125043
0.0125041
0.0125043
0.0125042
0.0125043
0.0125043
0.0125043
0.0125043
0.0125043
0.0125043
0.0125044
0.0125043
0.0125044
0.0125043
0.0125044
0.0125044
0.0125043
0.0125044
0.0125043
0.0125044
0.0125043
0.0125043
0.0125043
0.0125043
0.0125043
0.0125043
0.0125042
0.0125043
0.0125041
0.0125043
0.0125041
0.0125043
0.012504
0.0125043
0.0125039
0.0125042
0.0125029
0.012502
0.0124995
0.0125
0.0256243
0.025621
0.0256235
0.0256243
0.0256265
0.0256257
0.0256267
0.0256259
0.0256266
0.0256261
0.0256266
0.0256262
0.0256266
0.0256263
0.0256266
0.0256264
0.0256266
0.0256265
0.0256266
0.0256266
0.0256266
0.0256266
0.0256266
0.0256266
0.0256266
0.0256266
0.0256266
0.0256266
0.0256266
0.0256266
0.0256266
0.0256266
0.0256265
0.0256266
0.0256264
0.0256266
0.0256263
0.0256266
0.0256262
0.0256266
0.0256261
0.0256266
0.0256259
0.0256267
0.0256257
0.0256265
0.0256243
0.0256235
0.025621
0.0256243
0.0343395
0.0343328
0.0343305
0.0343296
0.0343318
0.0343306
0.0343318
0.0343308
0.0343317
0.034331
0.0343316
0.0343312
0.0343316
0.0343313
0.0343316
0.0343314
0.0343316
0.0343314
0.0343316
0.0343315
0.0343316
0.0343315
0.0343316
0.0343315
0.0343315
0.0343315
0.0343315
0.0343316
0.0343315
0.0343316
0.0343315
0.0343316
0.0343314
0.0343316
0.0343314
0.0343316
0.0343313
0.0343316
0.0343312
0.0343316
0.034331
0.0343317
0.0343308
0.0343318
0.0343306
0.0343318
0.0343296
0.0343305
0.0343328
0.0343395
0.0396916
0.0396832
0.039677
0.0396749
0.0396768
0.0396754
0.0396767
0.0396757
0.0396766
0.0396758
0.0396764
0.039676
0.0396764
0.0396761
0.0396764
0.0396761
0.0396763
0.0396762
0.0396763
0.0396762
0.0396763
0.0396763
0.0396763
0.0396763
0.0396763
0.0396763
0.0396763
0.0396763
0.0396763
0.0396763
0.0396762
0.0396763
0.0396762
0.0396763
0.0396761
0.0396764
0.0396761
0.0396764
0.039676
0.0396764
0.0396759
0.0396766
0.0396757
0.0396767
0.0396754
0.0396768
0.0396749
0.039677
0.0396832
0.0396916
0.0430305
0.0430212
0.0430126
0.0430097
0.0430112
0.0430098
0.043011
0.04301
0.0430109
0.0430102
0.0430108
0.0430103
0.0430107
0.0430104
0.0430106
0.0430104
0.0430106
0.0430105
0.0430106
0.0430105
0.0430106
0.0430105
0.0430105
0.0430105
0.0430105
0.0430105
0.0430105
0.0430105
0.0430105
0.0430106
0.0430105
0.0430106
0.0430105
0.0430106
0.0430104
0.0430106
0.0430104
0.0430107
0.0430103
0.0430108
0.0430102
0.0430109
0.04301
0.043011
0.0430098
0.0430112
0.0430097
0.0430126
0.0430212
0.0430305
0.0451697
0.0451602
0.0451502
0.0451469
0.045148
0.0451466
0.0451477
0.0451468
0.0451476
0.045147
0.0451475
0.0451471
0.0451474
0.0451471
0.0451474
0.0451472
0.0451473
0.0451472
0.0451473
0.0451472
0.0451473
0.0451472
0.0451472
0.0451472
0.0451472
0.0451472
0.0451472
0.0451472
0.0451472
0.0451473
0.0451472
0.0451473
0.0451472
0.0451473
0.0451472
0.0451474
0.0451471
0.0451474
0.0451471
0.0451475
0.045147
0.0451476
0.0451468
0.0451477
0.0451466
0.045148
0.0451469
0.0451502
0.0451602
0.0451697
0.0465834
0.046574
0.0465635
0.0465599
0.0465608
0.0465594
0.0465605
0.0465596
0.0465604
0.0465598
0.0465603
0.0465599
0.0465602
0.0465599
0.0465601
0.0465599
0.0465601
0.0465599
0.04656
0.0465599
0.04656
0.0465599
0.0465599
0.0465599
0.0465599
0.0465599
0.0465599
0.0465599
0.0465599
0.04656
0.0465599
0.04656
0.0465599
0.0465601
0.0465599
0.0465601
0.0465599
0.0465602
0.0465599
0.0465603
0.0465598
0.0465604
0.0465596
0.0465605
0.0465594
0.0465608
0.0465599
0.0465635
0.046574
0.0465834
0.0475463
0.0475373
0.0475268
0.0475231
0.0475237
0.0475225
0.0475234
0.0475227
0.0475233
0.0475228
0.0475233
0.0475229
0.0475232
0.0475229
0.0475231
0.0475229
0.047523
0.0475229
0.047523
0.0475229
0.0475229
0.0475229
0.0475229
0.0475229
0.0475229
0.0475229
0.0475229
0.0475229
0.0475229
0.0475229
0.0475229
0.047523
0.0475229
0.047523
0.0475229
0.0475231
0.0475229
0.0475232
0.0475229
0.0475233
0.0475228
0.0475233
0.0475227
0.0475234
0.0475225
0.0475237
0.0475231
0.0475268
0.0475373
0.0475463
0.04822
0.0482115
0.0482014
0.0481977
0.0481982
0.048197
0.0481979
0.0481972
0.0481978
0.0481973
0.0481977
0.0481974
0.0481976
0.0481974
0.0481975
0.0481974
0.0481975
0.0481973
0.0481974
0.0481973
0.0481973
0.0481973
0.0481973
0.0481973
0.0481973
0.0481973
0.0481973
0.0481973
0.0481973
0.0481973
0.0481973
0.0481974
0.0481973
0.0481975
0.0481974
0.0481975
0.0481974
0.0481976
0.0481974
0.0481977
0.0481973
0.0481978
0.0481972
0.0481979
0.048197
0.0481982
0.0481977
0.0482014
0.0482115
0.04822
0.048702
0.0486941
0.0486846
0.0486811
0.0486814
0.0486803
0.0486811
0.0486805
0.048681
0.0486806
0.0486809
0.0486806
0.0486809
0.0486806
0.0486808
0.0486806
0.0486807
0.0486805
0.0486806
0.0486805
0.0486805
0.0486805
0.0486805
0.0486805
0.0486805
0.0486805
0.0486805
0.0486805
0.0486805
0.0486805
0.0486805
0.0486806
0.0486805
0.0486807
0.0486806
0.0486808
0.0486806
0.0486808
0.0486806
0.0486809
0.0486806
0.048681
0.0486805
0.0486811
0.0486803
0.0486814
0.0486811
0.0486845
0.0486941
0.048702
0.0490527
0.0490454
0.0490365
0.0490332
0.0490334
0.0490325
0.0490332
0.0490326
0.0490331
0.0490327
0.0490331
0.0490328
0.049033
0.0490328
0.0490329
0.0490327
0.0490328
0.0490326
0.0490327
0.0490326
0.0490326
0.0490325
0.0490326
0.0490325
0.0490325
0.0490325
0.0490325
0.0490326
0.0490325
0.0490326
0.0490326
0.0490327
0.0490326
0.0490328
0.0490327
0.0490329
0.0490328
0.049033
0.0490328
0.0490331
0.0490327
0.0490331
0.0490326
0.0490332
0.0490325
0.0490334
0.0490332
0.0490365
0.0490453
0.0490527
0.0493209
0.0493144
0.0493066
0.0493037
0.0493038
0.049303
0.0493036
0.0493032
0.0493036
0.0493033
0.0493035
0.0493033
0.0493034
0.0493033
0.0493033
0.0493032
0.0493032
0.0493031
0.0493031
0.049303
0.049303
0.049303
0.049303
0.0493029
0.0493029
0.0493029
0.0493029
0.049303
0.049303
0.049303
0.049303
0.0493031
0.0493031
0.0493032
0.0493032
0.0493033
0.0493032
0.0493034
0.0493033
0.0493035
0.0493033
0.0493036
0.0493031
0.0493036
0.049303
0.0493038
0.0493037
0.0493066
0.0493144
0.0493209
0.0495127
0.0495068
0.0494999
0.0494973
0.0494974
0.0494967
0.0494972
0.0494968
0.0494972
0.049497
0.0494972
0.049497
0.0494971
0.0494969
0.049497
0.0494968
0.0494968
0.0494967
0.0494967
0.0494967
0.0494966
0.0494966
0.0494966
0.0494966
0.0494966
0.0494966
0.0494966
0.0494966
0.0494966
0.0494966
0.0494967
0.0494967
0.0494967
0.0494968
0.0494968
0.049497
0.0494969
0.0494971
0.049497
0.0494972
0.0494969
0.0494972
0.0494968
0.0494972
0.0494967
0.0494974
0.0494973
0.0494999
0.0495068
0.0495126
0.0496555
0.049651
0.0496456
0.0496435
0.0496436
0.0496431
0.0496434
0.0496432
0.0496435
0.0496433
0.0496434
0.0496433
0.0496433
0.0496432
0.0496432
0.0496431
0.049643
0.0496429
0.0496429
0.0496428
0.0496428
0.0496428
0.0496427
0.0496427
0.0496427
0.0496427
0.0496427
0.0496427
0.0496428
0.0496428
0.0496428
0.0496429
0.0496429
0.049643
0.0496431
0.0496432
0.0496432
0.0496433
0.0496432
0.0496434
0.0496432
0.0496434
0.0496432
0.0496434
0.049643
0.0496435
0.0496435
0.0496456
0.049651
0.0496555
0.049764
0.0497604
0.0497561
0.0497544
0.0497545
0.0497541
0.0497544
0.0497542
0.0497545
0.0497543
0.0497544
0.0497543
0.0497543
0.0497542
0.0497542
0.0497541
0.049754
0.0497539
0.0497539
0.0497538
0.0497538
0.0497537
0.0497537
0.0497537
0.0497537
0.0497537
0.0497537
0.0497537
0.0497537
0.0497538
0.0497538
0.0497539
0.0497539
0.049754
0.0497541
0.0497542
0.0497542
0.0497543
0.0497543
0.0497544
0.0497543
0.0497544
0.0497542
0.0497544
0.0497541
0.0497545
0.0497543
0.049756
0.0497604
0.049764
0.0498393
0.0498365
0.0498332
0.0498319
0.0498321
0.0498318
0.0498321
0.049832
0.0498322
0.0498321
0.0498322
0.049832
0.0498321
0.0498319
0.0498319
0.0498318
0.0498317
0.0498316
0.0498316
0.0498315
0.0498314
0.0498314
0.0498313
0.0498313
0.0498313
0.0498313
0.0498313
0.0498313
0.0498314
0.0498314
0.0498315
0.0498316
0.0498316
0.0498317
0.0498318
0.0498319
0.0498319
0.049832
0.049832
0.0498321
0.049832
0.0498321
0.0498319
0.0498321
0.0498318
0.0498321
0.0498319
0.0498332
0.0498365
0.0498393
0.0498933
0.0498912
0.0498889
0.049888
0.0498882
0.0498881
0.0498883
0.0498882
0.0498884
0.0498883
0.0498884
0.0498883
0.0498883
0.0498882
0.0498881
0.049888
0.0498879
0.0498878
0.0498877
0.0498877
0.0498876
0.0498875
0.0498875
0.0498875
0.0498875
0.0498875
0.0498875
0.0498875
0.0498875
0.0498876
0.0498877
0.0498877
0.0498878
0.0498879
0.049888
0.0498881
0.0498882
0.0498883
0.0498883
0.0498884
0.0498883
0.0498884
0.0498882
0.0498883
0.0498881
0.0498882
0.049888
0.0498889
0.0498912
0.0498932
0.0499268
0.0499256
0.0499243
0.0499239
0.0499242
0.0499242
0.0499244
0.0499243
0.0499245
0.0499244
0.0499245
0.0499244
0.0499244
0.0499243
0.0499242
0.0499241
0.049924
0.0499239
0.0499238
0.0499237
0.0499236
0.0499236
0.0499235
0.0499235
0.0499235
0.0499235
0.0499235
0.0499235
0.0499236
0.0499236
0.0499237
0.0499238
0.0499239
0.049924
0.0499241
0.0499242
0.0499242
0.0499244
0.0499244
0.0499245
0.0499244
0.0499244
0.0499243
0.0499243
0.0499241
0.0499242
0.0499239
0.0499243
0.0499256
0.0499268
0.0499458
0.0499455
0.0499451
0.0499452
0.0499455
0.0499456
0.0499458
0.0499458
0.0499459
0.0499459
0.0499459
0.0499459
0.0499458
0.0499457
0.0499456
0.0499455
0.0499454
0.0499453
0.0499452
0.0499451
0.049945
0.049945
0.0499449
0.0499449
0.0499449
0.0499449
0.0499449
0.0499449
0.049945
0.049945
0.0499451
0.0499452
0.0499453
0.0499454
0.0499455
0.0499456
0.0499457
0.0499458
0.0499459
0.0499459
0.0499459
0.0499459
0.0499458
0.0499458
0.0499456
0.0499455
0.0499451
0.0499451
0.0499454
0.0499457
0.0499516
0.0499522
0.0499529
0.0499534
0.0499539
0.0499541
0.0499543
0.0499544
0.0499544
0.0499544
0.0499544
0.0499544
0.0499543
0.0499542
0.0499541
0.049954
0.0499539
0.0499538
0.0499536
0.0499535
0.0499535
0.0499534
0.0499533
0.0499533
0.0499533
0.0499533
0.0499533
0.0499533
0.0499534
0.0499535
0.0499535
0.0499536
0.0499538
0.0499539
0.049954
0.0499541
0.0499542
0.0499543
0.0499544
0.0499544
0.0499544
0.0499544
0.0499543
0.0499542
0.0499541
0.0499539
0.0499534
0.0499529
0.0499522
0.0499516
0.0499467
0.0499481
0.0499498
0.0499508
0.0499514
0.0499517
0.0499518
0.049952
0.049952
0.0499521
0.049952
0.049952
0.0499519
0.0499518
0.0499517
0.0499516
0.0499514
0.0499513
0.0499512
0.0499511
0.049951
0.0499509
0.0499509
0.0499508
0.0499508
0.0499508
0.0499508
0.0499509
0.0499509
0.049951
0.0499511
0.0499512
0.0499513
0.0499514
0.0499516
0.0499517
0.0499518
0.0499519
0.049952
0.049952
0.049952
0.049952
0.0499519
0.0499518
0.0499517
0.0499514
0.0499508
0.0499498
0.0499481
0.0499466
0.0499327
0.0499351
0.0499377
0.0499391
0.0499398
0.0499403
0.0499404
0.0499406
0.0499405
0.0499406
0.0499406
0.0499406
0.0499405
0.0499404
0.0499402
0.0499401
0.04994
0.0499398
0.0499397
0.0499396
0.0499395
0.0499394
0.0499393
0.0499393
0.0499393
0.0499393
0.0499393
0.0499393
0.0499394
0.0499395
0.0499396
0.0499397
0.0499398
0.04994
0.0499401
0.0499402
0.0499404
0.0499405
0.0499406
0.0499406
0.0499406
0.0499405
0.0499405
0.0499403
0.0499403
0.0499398
0.0499391
0.0499376
0.0499351
0.0499327
0.0499106
0.0499138
0.0499172
0.0499191
0.0499199
0.0499205
0.0499205
0.0499208
0.0499207
0.0499209
0.0499208
0.0499208
0.0499207
0.0499206
0.0499204
0.0499203
0.0499201
0.04992
0.0499199
0.0499198
0.0499196
0.0499196
0.0499195
0.0499194
0.0499194
0.0499194
0.0499194
0.0499195
0.0499196
0.0499196
0.0499198
0.0499199
0.04992
0.0499201
0.0499203
0.0499204
0.0499206
0.0499207
0.0499208
0.0499208
0.0499208
0.0499207
0.0499207
0.0499205
0.0499204
0.0499199
0.049919
0.0499171
0.0499138
0.0499106
0.0498824
0.0498864
0.0498906
0.0498929
0.0498939
0.0498946
0.0498946
0.0498949
0.0498948
0.049895
0.0498949
0.0498949
0.0498948
0.0498947
0.0498945
0.0498944
0.0498942
0.0498941
0.0498939
0.0498938
0.0498937
0.0498936
0.0498935
0.0498935
0.0498934
0.0498934
0.0498935
0.0498935
0.0498936
0.0498937
0.0498938
0.0498939
0.0498941
0.0498942
0.0498944
0.0498945
0.0498947
0.0498948
0.0498949
0.0498949
0.049895
0.0498948
0.0498949
0.0498946
0.0498945
0.0498938
0.0498929
0.0498905
0.0498863
0.0498823
0.049847
0.0498519
0.049857
0.0498598
0.0498609
0.0498617
0.0498617
0.0498621
0.049862
0.0498622
0.0498621
0.0498621
0.049862
0.0498619
0.0498617
0.0498616
0.0498613
0.0498612
0.049861
0.0498609
0.0498607
0.0498607
0.0498606
0.0498605
0.0498605
0.0498605
0.0498605
0.0498606
0.0498607
0.0498607
0.0498609
0.049861
0.0498612
0.0498613
0.0498615
0.0498617
0.0498619
0.0498619
0.0498621
0.0498621
0.0498622
0.049862
0.0498621
0.0498617
0.0498617
0.0498609
0.0498598
0.049857
0.0498519
0.0498469
0.0498063
0.0498121
0.0498179
0.0498211
0.0498224
0.0498233
0.0498233
0.0498237
0.0498236
0.0498238
0.0498237
0.0498237
0.0498236
0.0498235
0.0498233
0.0498231
0.0498229
0.0498228
0.0498226
0.0498224
0.0498223
0.0498222
0.0498221
0.049822
0.049822
0.049822
0.049822
0.0498221
0.0498222
0.0498223
0.0498224
0.0498226
0.0498227
0.0498229
0.0498231
0.0498233
0.0498235
0.0498235
0.0498237
0.0498237
0.0498238
0.0498236
0.0498237
0.0498233
0.0498233
0.0498224
0.0498211
0.0498179
0.0498121
0.0498063
0.0497611
0.0497677
0.0497742
0.0497778
0.0497792
0.0497802
0.0497802
0.0497806
0.0497805
0.0497808
0.0497806
0.0497807
0.0497805
0.0497804
0.0497802
0.04978
0.0497798
0.0497796
0.0497794
0.0497793
0.0497791
0.049779
0.0497789
0.0497788
0.0497788
0.0497788
0.0497788
0.0497789
0.049779
0.0497791
0.0497793
0.0497794
0.0497796
0.0497798
0.04978
0.0497801
0.0497804
0.0497805
0.0497806
0.0497806
0.0497807
0.0497805
0.0497806
0.0497802
0.0497802
0.0497792
0.0497778
0.0497742
0.0497677
0.0497611
0.0497119
0.0497192
0.0497264
0.0497304
0.0497319
0.049733
0.049733
0.0497335
0.0497334
0.0497336
0.0497334
0.0497335
0.0497333
0.0497332
0.049733
0.0497328
0.0497325
0.0497324
0.0497321
0.049732
0.0497318
0.0497317
0.0497316
0.0497315
0.0497315
0.0497315
0.0497315
0.0497316
0.0497317
0.0497318
0.049732
0.0497321
0.0497324
0.0497325
0.0497328
0.0497329
0.0497332
0.0497333
0.0497335
0.0497334
0.0497336
0.0497333
0.0497334
0.049733
0.049733
0.0497319
0.0497303
0.0497264
0.0497192
0.0497119
0.0496592
0.0496673
0.0496751
0.0496793
0.049681
0.0496822
0.0496822
0.0496827
0.0496826
0.0496828
0.0496827
0.0496827
0.0496825
0.0496824
0.0496821
0.049682
0.0496817
0.0496815
0.0496813
0.0496811
0.0496809
0.0496808
0.0496807
0.0496806
0.0496806
0.0496806
0.0496806
0.0496807
0.0496808
0.0496809
0.0496811
0.0496813
0.0496815
0.0496817
0.049682
0.0496821
0.0496824
0.0496825
0.0496827
0.0496826
0.0496828
0.0496825
0.0496827
0.0496822
0.0496822
0.049681
0.0496793
0.049675
0.0496672
0.0496592
0.0496035
0.0496123
0.0496206
0.0496252
0.049627
0.0496283
0.0496283
0.0496288
0.0496286
0.0496289
0.0496287
0.0496288
0.0496286
0.0496285
0.0496282
0.049628
0.0496277
0.0496275
0.0496273
0.0496271
0.0496269
0.0496268
0.0496267
0.0496266
0.0496266
0.0496266
0.0496266
0.0496267
0.0496268
0.0496269
0.0496271
0.0496273
0.0496275
0.0496277
0.049628
0.0496282
0.0496285
0.0496285
0.0496288
0.0496287
0.0496289
0.0496286
0.0496287
0.0496282
0.0496282
0.0496269
0.0496251
0.0496205
0.0496122
0.0496035
0.0495452
0.0495546
0.0495634
0.0495683
0.0495702
0.0495716
0.0495716
0.0495721
0.049572
0.0495723
0.0495721
0.0495722
0.0495719
0.0495718
0.0495715
0.0495713
0.049571
0.0495708
0.0495705
0.0495703
0.0495701
0.04957
0.0495699
0.0495698
0.0495697
0.0495697
0.0495698
0.0495699
0.04957
0.0495701
0.0495703
0.0495705
0.0495708
0.049571
0.0495713
0.0495715
0.0495718
0.0495719
0.0495721
0.049572
0.0495722
0.0495719
0.0495721
0.0495715
0.0495715
0.0495701
0.0495682
0.0495634
0.0495545
0.0495452
0.0494846
0.0494946
0.0495039
0.049509
0.049511
0.0495125
0.0495125
0.0495131
0.0495129
0.0495132
0.049513
0.0495131
0.0495128
0.0495127
0.0495124
0.0495122
0.0495119
0.0495117
0.0495114
0.0495112
0.049511
0.0495108
0.0495107
0.0495106
0.0495106
0.0495106
0.0495106
0.0495107
0.0495108
0.049511
0.0495112
0.0495114
0.0495117
0.0495119
0.0495122
0.0495124
0.0495127
0.0495128
0.0495131
0.049513
0.0495132
0.0495129
0.049513
0.0495124
0.0495124
0.049511
0.049509
0.0495038
0.0494946
0.0494846
0.0494221
0.0494327
0.0494423
0.0494477
0.0494498
0.0494514
0.0494514
0.049452
0.0494518
0.0494521
0.0494519
0.049452
0.0494517
0.0494516
0.0494513
0.0494511
0.0494507
0.0494505
0.0494502
0.04945
0.0494497
0.0494496
0.0494494
0.0494493
0.0494493
0.0494493
0.0494493
0.0494494
0.0494496
0.0494497
0.04945
0.0494502
0.0494505
0.0494507
0.049451
0.0494512
0.0494516
0.0494517
0.049452
0.0494519
0.0494521
0.0494518
0.0494519
0.0494513
0.0494513
0.0494498
0.0494477
0.0494423
0.0494326
0.0494221
0.049358
0.0493691
0.049379
0.0493847
0.0493869
0.0493885
0.0493885
0.0493891
0.049389
0.0493893
0.0493891
0.0493891
0.0493888
0.0493887
0.0493884
0.0493881
0.0493878
0.0493875
0.0493872
0.049387
0.0493867
0.0493866
0.0493864
0.0493863
0.0493863
0.0493863
0.0493863
0.0493864
0.0493866
0.0493867
0.049387
0.0493872
0.0493875
0.0493877
0.0493881
0.0493883
0.0493887
0.0493888
0.0493891
0.049389
0.0493892
0.0493889
0.0493891
0.0493884
0.0493884
0.0493868
0.0493846
0.049379
0.049369
0.049358
0.0492926
0.049304
0.0493143
0.0493201
0.0493224
0.0493241
0.0493241
0.0493248
0.0493246
0.0493249
0.0493247
0.0493248
0.0493245
0.0493243
0.0493239
0.0493237
0.0493233
0.0493231
0.0493227
0.0493225
0.0493222
0.0493221
0.0493219
0.0493218
0.0493218
0.0493218
0.0493218
0.0493219
0.0493221
0.0493222
0.0493225
0.0493227
0.0493231
0.0493233
0.0493237
0.0493239
0.0493243
0.0493244
0.0493247
0.0493247
0.0493249
0.0493245
0.0493247
0.049324
0.049324
0.0493223
0.0493201
0.0493142
0.049304
0.0492925
0.049226
0.0492378
0.0492483
0.0492544
0.0492567
0.0492585
0.0492585
0.0492592
0.049259
0.0492593
0.0492591
0.0492592
0.0492588
0.0492587
0.0492583
0.049258
0.0492576
0.0492574
0.049257
0.0492568
0.0492565
0.0492563
0.0492561
0.049256
0.049256
0.049256
0.049256
0.0492561
0.0492563
0.0492565
0.0492567
0.049257
0.0492574
0.0492576
0.049258
0.0492583
0.0492587
0.0492588
0.0492591
0.0492591
0.0492593
0.0492589
0.0492591
0.0492584
0.0492584
0.0492566
0.0492543
0.0492483
0.0492378
0.0492259
0.0491585
0.0491707
0.0491814
0.0491876
0.04919
0.0491918
0.0491919
0.0491925
0.0491924
0.0491927
0.0491925
0.0491925
0.0491922
0.049192
0.0491916
0.0491914
0.0491909
0.0491906
0.0491902
0.04919
0.0491897
0.0491895
0.0491893
0.0491892
0.0491892
0.0491892
0.0491892
0.0491893
0.0491895
0.0491897
0.04919
0.0491902
0.0491906
0.0491909
0.0491913
0.0491916
0.049192
0.0491922
0.0491925
0.0491924
0.0491927
0.0491923
0.0491925
0.0491918
0.0491917
0.0491899
0.0491875
0.0491813
0.0491706
0.0491585
0.0490904
0.0491028
0.0491137
0.04912
0.0491225
0.0491244
0.0491244
0.0491251
0.049125
0.0491253
0.0491251
0.0491251
0.0491247
0.0491246
0.0491241
0.0491238
0.0491234
0.0491231
0.0491227
0.0491224
0.0491221
0.0491219
0.0491217
0.0491216
0.0491216
0.0491216
0.0491216
0.0491217
0.0491219
0.0491221
0.0491224
0.0491227
0.0491231
0.0491234
0.0491238
0.0491241
0.0491245
0.0491247
0.0491251
0.049125
0.0491252
0.0491249
0.049125
0.0491243
0.0491243
0.0491224
0.0491199
0.0491136
0.0491028
0.0490903
0.0490217
0.0490344
0.0490454
0.0490519
0.0490544
0.0490563
0.0490563
0.0490571
0.0490569
0.0490572
0.049057
0.049057
0.0490567
0.0490565
0.049056
0.0490557
0.0490552
0.0490549
0.0490545
0.0490542
0.0490539
0.0490537
0.0490535
0.0490534
0.0490533
0.0490533
0.0490534
0.0490535
0.0490537
0.0490539
0.0490542
0.0490545
0.0490549
0.0490552
0.0490557
0.049056
0.0490564
0.0490566
0.049057
0.0490569
0.0490572
0.0490568
0.049057
0.0490563
0.0490562
0.0490543
0.0490518
0.0490453
0.0490344
0.0490216
0.0489527
0.0489657
0.0489767
0.0489833
0.0489858
0.0489878
0.0489878
0.0489886
0.0489884
0.0489888
0.0489885
0.0489885
0.0489881
0.0489879
0.0489875
0.0489871
0.0489866
0.0489863
0.0489859
0.0489856
0.0489852
0.048985
0.0489848
0.0489847
0.0489846
0.0489846
0.0489847
0.0489848
0.048985
0.0489852
0.0489856
0.0489859
0.0489863
0.0489866
0.0489871
0.0489874
0.0489879
0.0489881
0.0489885
0.0489884
0.0489887
0.0489883
0.0489885
0.0489878
0.0489877
0.0489858
0.0489832
0.0489766
0.0489656
0.0489526
)
;

boundaryField
{
    fuel
    {
        type            fixedValue;
        value           uniform 0;
    }
    wall
    {
        type            zeroGradient;
    }
    outlet
    {
        type            zeroGradient;
    }
    frontAndBack
    {
        type            empty;
    }
    procBoundary1to0
    {
        type            processor;
        value           nonuniform List<scalar> 
50
(
0.0488836
0.0488967
0.0489078
0.0489144
0.048917
0.048919
0.0489191
0.0489198
0.0489197
0.04892
0.0489197
0.0489197
0.0489193
0.0489191
0.0489186
0.0489183
0.0489178
0.0489174
0.0489169
0.0489166
0.0489163
0.048916
0.0489158
0.0489157
0.0489156
0.0489156
0.0489157
0.0489158
0.048916
0.0489163
0.0489166
0.0489169
0.0489174
0.0489177
0.0489183
0.0489186
0.0489191
0.0489193
0.0489197
0.0489197
0.0489199
0.0489196
0.0489197
0.048919
0.0489189
0.0489169
0.0489143
0.0489077
0.0488966
0.0488835
)
;
    }
}


// ************************************************************************* //
