/*--------------------------------*- C++ -*----------------------------------*\
| =========                 |                                                 |
| \\      /  F ield         | OpenFOAM: The Open Source CFD Toolbox           |
|  \\    /   O peration     | Version:  dev                                   |
|   \\  /    A nd           | Web:      www.OpenFOAM.org                      |
|    \\/     M anipulation  |                                                 |
\*---------------------------------------------------------------------------*/
FoamFile
{
    version     2.0;
    format      ascii;
    class       volScalarField;
    location    "0.025";
    object      dQ;
}
// * * * * * * * * * * * * * * * * * * * * * * * * * * * * * * * * * * * * * //

dimensions      [1 2 -3 0 0 0 0];

internalField   nonuniform List<scalar> 
250
(
0.00332849
0.00336289
0.00314869
0.00318715
0.00310624
0.0031737
0.00325965
0.00332004
0.00343548
0.00342115
0.00311807
0.00307999
0.00284191
0.00286608
0.00277956
0.00283187
0.00290563
0.00295961
0.00307739
0.00305359
0.00304685
0.00306924
0.00297757
0.00292139
0.00285183
0.00278657
0.00285677
0.00282708
0.00300998
0.00303128
0.00294809
0.0028454
0.00260144
0.00259301
0.00250374
0.00252568
0.00257349
0.00261124
0.00271403
0.00268553
0.00267695
0.00270322
0.00262472
0.00258408
0.00253919
0.00249956
0.00258183
0.00257746
0.00277709
0.0028585
0.00291128
0.00273542
0.00247514
0.0024172
0.00230868
0.00231038
0.00232809
0.00234599
0.00242658
0.00239721
0.00238554
0.00241547
0.00235408
0.00233294
0.00230783
0.00230462
0.00239209
0.00243857
0.00265253
0.00280829
0.00303841
0.00276161
0.00245642
0.00234155
0.00222046
0.0021932
0.00219277
0.00219481
0.00224149
0.00221405
0.00221317
0.00223235
0.00219859
0.00219496
0.00218877
0.00220788
0.00230905
0.00240263
0.00265255
0.00290972
0.00328658
0.00286739
0.00249544
0.00233
0.00219523
0.00215936
0.00215145
0.00214733
0.00218241
0.00215762
0.00215641
0.00217536
0.00214936
0.00214663
0.00215411
0.00218053
0.00229201
0.00242555
0.00271904
0.00312457
0.00357715
0.00295897
0.00252531
0.00232749
0.00218525
0.00216009
0.00216188
0.0021634
0.00220159
0.00217948
0.00217776
0.00219626
0.00216684
0.00215924
0.00215986
0.00217478
0.00228839
0.00244501
0.00278252
0.00336354
0.00380161
0.00298296
0.00247642
0.00226344
0.00212252
0.00212659
0.0021561
0.00217562
0.00223294
0.00221274
0.0022099
0.00222872
0.00218373
0.00215976
0.00213737
0.00212187
0.00222809
0.00239074
0.00278259
0.00352962
0.00391382
0.00290122
0.00228973
0.00205248
0.00191329
0.00195471
0.00202549
0.00207447
0.00216492
0.00214643
0.00214191
0.00216124
0.00209017
0.00203965
0.00198038
0.00192427
0.00202113
0.00219472
0.00266869
0.00357397
0.00390083
0.002751
0.00198269
0.00167241
0.00151536
0.00156974
0.00167109
0.00174832
0.00186721
0.00185413
0.00184869
0.00186462
0.00177112
0.0016961
0.0016047
0.00152921
0.00163447
0.00186311
0.00246935
0.00349143
0.00337723
0.00231956
0.00153802
0.00119228
0.0010126
0.00103907
0.00113161
0.00121235
0.00132755
0.00132032
0.00131532
0.00132585
0.00123544
0.00115869
0.00106923
0.00101638
0.00114286
0.00141181
0.0020468
0.00299826
0.00168918
0.00122613
0.000829034
0.000633231
0.000506434
0.000499983
0.000547557
0.000597286
0.000664105
0.000658352
0.00065509
0.000662198
0.000610797
0.000564409
0.000513931
0.000500951
0.000597709
0.000762669
0.00109992
0.00153304
0.000699386
0.000564211
0.000435619
0.000344036
0.000244262
0.000197137
0.000194639
0.000209057
0.000227615
0.000222817
0.000221499
0.000225904
0.00021288
0.000199157
0.000193928
0.00022711
0.000316313
0.000409633
0.000527002
0.000654568
)
;

boundaryField
{
    fuel
    {
        type            calculated;
        value           nonuniform 0();
    }
    wall
    {
        type            calculated;
        value           uniform 0;
    }
    outlet
    {
        type            calculated;
        value           uniform 0;
    }
    frontAndBack
    {
        type            empty;
    }
    procBoundary1to0
    {
        type            processor;
        value           uniform 0;
    }
}


// ************************************************************************* //
