/*--------------------------------*- C++ -*----------------------------------*\
| =========                 |                                                 |
| \\      /  F ield         | OpenFOAM: The Open Source CFD Toolbox           |
|  \\    /   O peration     | Version:  dev                                   |
|   \\  /    A nd           | Web:      www.OpenFOAM.org                      |
|    \\/     M anipulation  |                                                 |
\*---------------------------------------------------------------------------*/
FoamFile
{
    version     2.0;
    format      ascii;
    class       volScalarField;
    location    "0.025";
    object      H2O;
}
// * * * * * * * * * * * * * * * * * * * * * * * * * * * * * * * * * * * * * //

dimensions      [0 0 0 0 0 0 0];

internalField   nonuniform List<scalar> 
250
(
0.0564662
0.0560415
0.0554867
0.0552525
0.0549354
0.0547695
0.0546575
0.0545646
0.0545881
0.0544752
0.0560254
0.0555672
0.0549918
0.0547392
0.0544044
0.0542269
0.054109
0.0540145
0.0540445
0.0539234
0.0539037
0.054007
0.0539997
0.0540792
0.0541861
0.0543338
0.0546442
0.0548823
0.0554044
0.0558637
0.0555574
0.0550608
0.0544638
0.0541895
0.0538384
0.0536464
0.0535228
0.0534272
0.0534645
0.0533361
0.0533137
0.053425
0.0534131
0.053494
0.0536046
0.0537601
0.0540881
0.0543404
0.0548816
0.0553794
0.0550627
0.0545204
0.053902
0.0536024
0.053221
0.053027
0.0528982
0.052802
0.0528474
0.0527126
0.0526867
0.0528072
0.0527902
0.052871
0.0529777
0.0531485
0.0534875
0.0537671
0.0543193
0.0548687
0.054544
0.0539451
0.0533076
0.0529789
0.0525794
0.0523638
0.0522358
0.0521392
0.0521775
0.0520374
0.052023
0.0521378
0.0521249
0.0522108
0.0523195
0.0524999
0.0528569
0.0531603
0.0537213
0.0543353
0.0540079
0.0533334
0.0526837
0.0523217
0.0519019
0.0516703
0.0515378
0.0514414
0.0514866
0.0513419
0.051325
0.0514474
0.05143
0.051503
0.051626
0.0518172
0.0521924
0.052523
0.0530813
0.0537875
0.0534669
0.0526826
0.0520357
0.0516361
0.0511949
0.0509476
0.0508095
0.0507138
0.0507654
0.0506164
0.0505976
0.0507262
0.050704
0.0507764
0.0509028
0.0511057
0.051499
0.0518608
0.0524192
0.0532171
0.0528956
0.0520368
0.051373
0.0509313
0.0504681
0.0502043
0.0500597
0.049965
0.0500223
0.0498693
0.0498495
0.0499826
0.0499568
0.0500285
0.050159
0.0503748
0.0507857
0.0511828
0.0517601
0.0526182
0.0523035
0.0514128
0.0507089
0.0502214
0.0497362
0.0494547
0.0493028
0.0492089
0.0492708
0.0491144
0.0490942
0.0492306
0.0492023
0.0492733
0.0494086
0.0496385
0.0500668
0.0505029
0.0511203
0.0520019
0.0517021
0.0508353
0.0500631
0.0495273
0.0490204
0.0487202
0.0485605
0.0484671
0.0485319
0.0483729
0.048353
0.0484917
0.0484619
0.0485323
0.0486735
0.0489184
0.0493635
0.0498409
0.0505258
0.0513794
0.0511575
0.0502869
0.0494638
0.0488801
0.0483527
0.0480333
0.0478653
0.0477719
0.0478379
0.0476773
0.0476582
0.0477981
0.0477679
0.047839
0.047985
0.0482461
0.0487073
0.049226
0.0499647
0.0508131
0.0507028
0.0498132
0.048955
0.0483276
0.0477824
0.0474448
0.0472689
0.0471746
0.0472401
0.0470789
0.0470608
0.0472012
0.0471715
0.0472438
0.0473952
0.0476715
0.0481468
0.0487031
0.0494814
0.0503388
0.0503997
0.0494908
0.0486123
0.0479533
0.0473957
0.0470443
0.0468619
0.0467663
0.0468301
0.046669
0.0466518
0.0467921
0.0467637
0.0468373
0.0469934
0.0472815
0.0477667
0.0483505
0.0491524
0.0500223
)
;

boundaryField
{
    fuel
    {
        type            fixedValue;
        value           nonuniform 0();
    }
    wall
    {
        type            zeroGradient;
    }
    outlet
    {
        type            zeroGradient;
    }
    frontAndBack
    {
        type            empty;
    }
    procBoundary1to0
    {
        type            processor;
        value           nonuniform List<scalar> 
21
(
0.0568808
0.0564862
0.0559498
0.0557311
0.0554318
0.055276
0.0551698
0.055079
0.0550967
0.0549926
0.0544574
0.0544574
0.0545533
0.0545497
0.0546273
0.0547302
0.0548702
0.055164
0.0553867
0.0558935
0.0563205
)
;
    }
}


// ************************************************************************* //
