/*--------------------------------*- C++ -*----------------------------------*\
| =========                 |                                                 |
| \\      /  F ield         | OpenFOAM: The Open Source CFD Toolbox           |
|  \\    /   O peration     | Version:  dev                                   |
|   \\  /    A nd           | Web:      www.OpenFOAM.org                      |
|    \\/     M anipulation  |                                                 |
\*---------------------------------------------------------------------------*/
FoamFile
{
    version     2.0;
    format      ascii;
    class       volScalarField;
    location    "0.025";
    object      HCCO;
}
// * * * * * * * * * * * * * * * * * * * * * * * * * * * * * * * * * * * * * //

dimensions      [0 0 0 0 0 0 0];

internalField   nonuniform List<scalar> 
250
(
8.25127e-08
8.94097e-08
7.8329e-08
7.64549e-08
7.54431e-08
7.13185e-08
7.44708e-08
7.07618e-08
7.35577e-08
7.15263e-08
6.24255e-08
6.6751e-08
5.77281e-08
5.61318e-08
5.53208e-08
5.21681e-08
5.45941e-08
5.16959e-08
5.3888e-08
5.2282e-08
5.23549e-08
5.3767e-08
5.18208e-08
5.43605e-08
5.23839e-08
5.49363e-08
5.648e-08
5.73551e-08
6.70873e-08
6.24216e-08
4.63153e-08
4.8695e-08
4.15534e-08
4.01655e-08
3.95069e-08
3.71594e-08
3.89572e-08
3.67496e-08
3.84066e-08
3.71775e-08
3.72331e-08
3.83144e-08
3.68455e-08
3.87785e-08
3.73245e-08
3.92157e-08
4.04279e-08
4.12596e-08
4.89237e-08
4.62693e-08
3.37968e-08
3.48045e-08
2.92577e-08
2.803e-08
2.74654e-08
2.57706e-08
2.70412e-08
2.53943e-08
2.65965e-08
2.56849e-08
2.57255e-08
2.65289e-08
2.54641e-08
2.69106e-08
2.589e-08
2.7253e-08
2.82146e-08
2.90338e-08
3.49343e-08
3.37298e-08
2.43295e-08
2.43342e-08
2.02012e-08
1.91017e-08
1.85856e-08
1.72394e-08
1.81028e-08
1.70399e-08
1.78741e-08
1.7194e-08
1.72215e-08
1.78263e-08
1.70887e-08
1.80096e-08
1.73198e-08
1.84354e-08
1.92233e-08
2.00346e-08
2.4436e-08
2.42661e-08
1.73172e-08
1.68436e-08
1.37138e-08
1.27282e-08
1.22424e-08
1.12758e-08
1.18183e-08
1.10862e-08
1.16384e-08
1.11636e-08
1.11819e-08
1.1606e-08
1.11188e-08
1.17551e-08
1.13282e-08
1.21389e-08
1.28021e-08
1.3592e-08
1.68925e-08
1.72641e-08
1.21378e-08
1.15055e-08
9.15713e-09
8.28812e-09
7.83115e-09
7.13911e-09
7.45324e-09
6.96474e-09
7.31354e-09
6.99817e-09
7.00983e-09
7.29252e-09
6.98569e-09
7.41202e-09
7.17161e-09
7.76158e-09
8.32963e-09
9.06827e-09
1.15233e-08
1.20965e-08
8.2524e-09
7.69175e-09
5.98928e-09
5.25322e-09
4.83329e-09
4.33786e-09
4.49863e-09
4.18545e-09
4.39501e-09
4.1976e-09
4.20474e-09
4.38206e-09
4.19835e-09
4.47293e-09
4.35664e-09
4.78758e-09
5.27442e-09
5.92492e-09
7.69543e-09
8.22421e-09
5.32164e-09
4.96588e-09
3.83005e-09
3.24298e-09
2.86532e-09
2.50682e-09
2.56506e-09
2.37453e-09
2.49047e-09
2.37714e-09
2.38125e-09
2.48311e-09
2.38193e-09
2.55001e-09
2.51618e-09
2.83612e-09
3.25047e-09
3.78617e-09
4.96611e-09
5.307e-09
3.27254e-09
3.13338e-09
2.47488e-09
2.03189e-09
1.68679e-09
1.40755e-09
1.39015e-09
1.27653e-09
1.32796e-09
1.26998e-09
1.2721e-09
1.32426e-09
1.28015e-09
1.38194e-09
1.41024e-09
1.66826e-09
2.03071e-09
2.44726e-09
3.13462e-09
3.26859e-09
2.10482e-09
2.0817e-09
1.76502e-09
1.44697e-09
1.11699e-09
8.57235e-10
7.73718e-10
6.95407e-10
7.00199e-10
6.73582e-10
6.7445e-10
6.98661e-10
6.96433e-10
7.69226e-10
8.55026e-10
1.10408e-09
1.44137e-09
1.749e-09
2.08452e-09
2.10472e-09
1.94957e-09
1.82736e-09
1.68854e-09
1.47604e-09
1.13792e-09
8.25201e-10
6.58066e-10
5.76721e-10
5.40253e-10
5.28481e-10
5.28564e-10
5.39945e-10
5.75755e-10
6.54907e-10
8.1836e-10
1.12639e-09
1.4691e-09
1.68004e-09
1.82746e-09
1.94151e-09
4.4741e-09
3.45983e-09
3.06011e-09
2.82378e-09
2.34289e-09
1.74317e-09
1.36474e-09
1.1928e-09
1.09021e-09
1.07334e-09
1.07298e-09
1.09038e-09
1.18948e-09
1.35905e-09
1.72751e-09
2.32392e-09
2.81675e-09
3.04966e-09
3.4366e-09
4.41787e-09
)
;

boundaryField
{
    fuel
    {
        type            fixedValue;
        value           nonuniform 0();
    }
    wall
    {
        type            zeroGradient;
    }
    outlet
    {
        type            zeroGradient;
    }
    frontAndBack
    {
        type            empty;
    }
    procBoundary1to0
    {
        type            processor;
        value           nonuniform List<scalar> 
21
(
1.06849e-07
1.16952e-07
1.03713e-07
1.01544e-07
1.00251e-07
9.50284e-08
9.89615e-08
9.43643e-08
9.78023e-08
9.53172e-08
7.16209e-08
7.16209e-08
7.34042e-08
7.09258e-08
7.41739e-08
7.16053e-08
7.49403e-08
7.69236e-08
7.78534e-08
8.992e-08
8.26275e-08
)
;
    }
}


// ************************************************************************* //
