/*--------------------------------*- C++ -*----------------------------------*\
| =========                 |                                                 |
| \\      /  F ield         | OpenFOAM: The Open Source CFD Toolbox           |
|  \\    /   O peration     | Version:  dev                                   |
|   \\  /    A nd           | Web:      www.OpenFOAM.org                      |
|    \\/     M anipulation  |                                                 |
\*---------------------------------------------------------------------------*/
FoamFile
{
    version     2.0;
    format      ascii;
    class       volScalarField;
    location    "0.025";
    object      i-C6H5;
}
// * * * * * * * * * * * * * * * * * * * * * * * * * * * * * * * * * * * * * //

dimensions      [0 0 0 0 0 0 0];

internalField   nonuniform List<scalar> 
2000
(
4.67365e-09
4.68364e-09
4.69699e-09
4.70184e-09
4.70212e-09
4.70328e-09
4.70268e-09
4.70329e-09
4.7028e-09
4.70322e-09
4.70291e-09
4.7032e-09
4.70301e-09
4.70322e-09
4.70308e-09
4.70323e-09
4.70314e-09
4.70324e-09
4.70319e-09
4.70325e-09
4.70321e-09
4.70325e-09
4.70324e-09
4.70326e-09
4.70325e-09
4.70325e-09
4.70326e-09
4.70324e-09
4.70325e-09
4.70321e-09
4.70325e-09
4.70319e-09
4.70324e-09
4.70314e-09
4.70323e-09
4.70308e-09
4.70322e-09
4.70301e-09
4.70321e-09
4.70291e-09
4.70322e-09
4.70281e-09
4.70329e-09
4.70269e-09
4.70329e-09
4.70212e-09
4.70184e-09
4.69699e-09
4.68365e-09
4.67365e-09
2.20417e-08
2.2081e-08
2.2128e-08
2.21462e-08
2.21464e-08
2.21511e-08
2.21485e-08
2.21511e-08
2.2149e-08
2.21508e-08
2.21494e-08
2.21507e-08
2.21498e-08
2.21507e-08
2.21501e-08
2.21507e-08
2.21503e-08
2.21507e-08
2.21504e-08
2.21507e-08
2.21505e-08
2.21507e-08
2.21506e-08
2.21507e-08
2.21507e-08
2.21507e-08
2.21507e-08
2.21506e-08
2.21507e-08
2.21505e-08
2.21507e-08
2.21504e-08
2.21507e-08
2.21503e-08
2.21507e-08
2.21501e-08
2.21507e-08
2.21498e-08
2.21507e-08
2.21494e-08
2.21508e-08
2.2149e-08
2.21511e-08
2.21485e-08
2.21512e-08
2.21464e-08
2.21462e-08
2.2128e-08
2.2081e-08
2.20417e-08
2.04628e-08
2.0468e-08
2.04677e-08
2.0466e-08
2.04617e-08
2.04633e-08
2.04613e-08
2.04628e-08
2.04615e-08
2.04625e-08
2.04616e-08
2.04622e-08
2.04616e-08
2.0462e-08
2.04615e-08
2.04617e-08
2.04614e-08
2.04615e-08
2.04613e-08
2.04614e-08
2.04613e-08
2.04613e-08
2.04612e-08
2.04613e-08
2.04612e-08
2.04612e-08
2.04613e-08
2.04612e-08
2.04613e-08
2.04613e-08
2.04614e-08
2.04613e-08
2.04615e-08
2.04614e-08
2.04617e-08
2.04615e-08
2.0462e-08
2.04616e-08
2.04622e-08
2.04616e-08
2.04625e-08
2.04615e-08
2.04627e-08
2.04613e-08
2.04633e-08
2.04617e-08
2.0466e-08
2.04677e-08
2.0468e-08
2.04628e-08
1.0747e-08
1.0748e-08
1.07457e-08
1.07433e-08
1.07402e-08
1.0741e-08
1.07398e-08
1.07407e-08
1.07399e-08
1.07405e-08
1.07399e-08
1.07403e-08
1.07399e-08
1.07401e-08
1.07398e-08
1.07399e-08
1.07397e-08
1.07398e-08
1.07396e-08
1.07397e-08
1.07396e-08
1.07396e-08
1.07396e-08
1.07396e-08
1.07396e-08
1.07396e-08
1.07396e-08
1.07396e-08
1.07396e-08
1.07396e-08
1.07397e-08
1.07396e-08
1.07398e-08
1.07397e-08
1.07399e-08
1.07398e-08
1.07401e-08
1.07399e-08
1.07403e-08
1.07399e-08
1.07405e-08
1.07399e-08
1.07407e-08
1.07398e-08
1.0741e-08
1.07402e-08
1.07433e-08
1.07457e-08
1.0748e-08
1.0747e-08
5.68115e-09
5.68518e-09
5.68857e-09
5.68896e-09
5.68729e-09
5.68819e-09
5.68722e-09
5.68797e-09
5.68732e-09
5.68783e-09
5.68739e-09
5.68771e-09
5.6874e-09
5.6876e-09
5.68738e-09
5.68751e-09
5.68735e-09
5.68743e-09
5.68732e-09
5.68737e-09
5.6873e-09
5.68733e-09
5.68729e-09
5.6873e-09
5.68729e-09
5.68729e-09
5.6873e-09
5.68729e-09
5.68733e-09
5.6873e-09
5.68737e-09
5.68732e-09
5.68743e-09
5.68735e-09
5.68751e-09
5.68738e-09
5.6876e-09
5.6874e-09
5.68771e-09
5.68739e-09
5.68783e-09
5.68732e-09
5.68796e-09
5.68721e-09
5.68819e-09
5.68728e-09
5.68895e-09
5.68856e-09
5.68518e-09
5.68114e-09
3.51615e-09
3.52162e-09
3.52785e-09
3.52967e-09
3.52878e-09
3.5297e-09
3.52891e-09
3.52956e-09
3.52901e-09
3.52945e-09
3.52908e-09
3.52937e-09
3.52912e-09
3.52931e-09
3.52912e-09
3.52925e-09
3.52912e-09
3.5292e-09
3.52912e-09
3.52916e-09
3.52911e-09
3.52914e-09
3.52911e-09
3.52912e-09
3.52911e-09
3.52911e-09
3.52912e-09
3.52911e-09
3.52914e-09
3.52911e-09
3.52916e-09
3.52912e-09
3.5292e-09
3.52912e-09
3.52925e-09
3.52912e-09
3.52931e-09
3.52912e-09
3.52937e-09
3.52908e-09
3.52945e-09
3.52901e-09
3.52956e-09
3.52891e-09
3.52969e-09
3.52877e-09
3.52967e-09
3.52785e-09
3.52162e-09
3.51615e-09
2.557e-09
2.56266e-09
2.56978e-09
2.57209e-09
2.57159e-09
2.57245e-09
2.57179e-09
2.57236e-09
2.57188e-09
2.57227e-09
2.57196e-09
2.57222e-09
2.572e-09
2.57217e-09
2.57202e-09
2.57213e-09
2.57202e-09
2.57209e-09
2.57202e-09
2.57207e-09
2.57202e-09
2.57205e-09
2.57202e-09
2.57204e-09
2.57203e-09
2.57203e-09
2.57204e-09
2.57202e-09
2.57205e-09
2.57202e-09
2.57207e-09
2.57202e-09
2.57209e-09
2.57202e-09
2.57213e-09
2.57201e-09
2.57217e-09
2.572e-09
2.57222e-09
2.57195e-09
2.57227e-09
2.57188e-09
2.57236e-09
2.57179e-09
2.57245e-09
2.57159e-09
2.57209e-09
2.56978e-09
2.56266e-09
2.557e-09
2.06725e-09
2.07265e-09
2.07988e-09
2.08229e-09
2.08199e-09
2.08279e-09
2.08221e-09
2.08272e-09
2.08229e-09
2.08264e-09
2.08236e-09
2.08259e-09
2.0824e-09
2.08256e-09
2.08242e-09
2.08252e-09
2.08243e-09
2.0825e-09
2.08243e-09
2.08247e-09
2.08243e-09
2.08246e-09
2.08243e-09
2.08245e-09
2.08244e-09
2.08244e-09
2.08245e-09
2.08243e-09
2.08246e-09
2.08243e-09
2.08247e-09
2.08243e-09
2.08249e-09
2.08243e-09
2.08252e-09
2.08242e-09
2.08256e-09
2.0824e-09
2.08259e-09
2.08236e-09
2.08264e-09
2.08229e-09
2.08272e-09
2.08221e-09
2.08278e-09
2.08199e-09
2.08229e-09
2.07988e-09
2.07264e-09
2.06725e-09
1.75594e-09
1.76094e-09
1.76801e-09
1.77037e-09
1.77019e-09
1.77092e-09
1.77041e-09
1.77087e-09
1.77048e-09
1.7708e-09
1.77055e-09
1.77076e-09
1.77059e-09
1.77073e-09
1.7706e-09
1.7707e-09
1.77061e-09
1.77067e-09
1.77061e-09
1.77065e-09
1.77061e-09
1.77063e-09
1.77061e-09
1.77062e-09
1.77062e-09
1.77062e-09
1.77062e-09
1.77061e-09
1.77063e-09
1.77061e-09
1.77065e-09
1.77061e-09
1.77067e-09
1.77061e-09
1.7707e-09
1.7706e-09
1.77073e-09
1.77058e-09
1.77076e-09
1.77055e-09
1.7708e-09
1.77048e-09
1.77087e-09
1.77041e-09
1.77092e-09
1.77019e-09
1.77037e-09
1.76801e-09
1.76094e-09
1.75594e-09
1.52037e-09
1.525e-09
1.53182e-09
1.5341e-09
1.53399e-09
1.53467e-09
1.5342e-09
1.53463e-09
1.53427e-09
1.53456e-09
1.53433e-09
1.53452e-09
1.53437e-09
1.53449e-09
1.53438e-09
1.53447e-09
1.53439e-09
1.53444e-09
1.53439e-09
1.53442e-09
1.53438e-09
1.53441e-09
1.53439e-09
1.5344e-09
1.53439e-09
1.53439e-09
1.5344e-09
1.53439e-09
1.53441e-09
1.53438e-09
1.53442e-09
1.53439e-09
1.53444e-09
1.53439e-09
1.53446e-09
1.53438e-09
1.53449e-09
1.53436e-09
1.53452e-09
1.53433e-09
1.53456e-09
1.53427e-09
1.53463e-09
1.5342e-09
1.53467e-09
1.53399e-09
1.5341e-09
1.53182e-09
1.525e-09
1.52037e-09
1.32186e-09
1.32616e-09
1.3327e-09
1.33488e-09
1.33482e-09
1.33546e-09
1.33503e-09
1.33542e-09
1.33509e-09
1.33536e-09
1.33515e-09
1.33533e-09
1.33518e-09
1.3353e-09
1.33519e-09
1.33527e-09
1.3352e-09
1.33525e-09
1.33519e-09
1.33522e-09
1.33519e-09
1.33521e-09
1.33519e-09
1.3352e-09
1.3352e-09
1.3352e-09
1.3352e-09
1.33519e-09
1.33521e-09
1.33519e-09
1.33522e-09
1.33519e-09
1.33524e-09
1.3352e-09
1.33527e-09
1.33519e-09
1.3353e-09
1.33518e-09
1.33533e-09
1.33514e-09
1.33536e-09
1.33509e-09
1.33542e-09
1.33503e-09
1.33546e-09
1.33482e-09
1.33488e-09
1.3327e-09
1.32616e-09
1.32186e-09
1.14184e-09
1.14575e-09
1.15178e-09
1.1538e-09
1.15379e-09
1.15437e-09
1.15398e-09
1.15434e-09
1.15404e-09
1.15428e-09
1.15409e-09
1.15425e-09
1.15412e-09
1.15422e-09
1.15413e-09
1.1542e-09
1.15413e-09
1.15417e-09
1.15413e-09
1.15415e-09
1.15412e-09
1.15414e-09
1.15412e-09
1.15413e-09
1.15412e-09
1.15412e-09
1.15413e-09
1.15412e-09
1.15414e-09
1.15412e-09
1.15415e-09
1.15413e-09
1.15417e-09
1.15413e-09
1.1542e-09
1.15413e-09
1.15422e-09
1.15411e-09
1.15425e-09
1.15409e-09
1.15428e-09
1.15404e-09
1.15433e-09
1.15398e-09
1.15437e-09
1.15378e-09
1.1538e-09
1.15178e-09
1.14575e-09
1.14184e-09
9.90835e-10
9.94474e-10
1.00016e-09
1.00208e-09
1.00209e-09
1.00263e-09
1.00228e-09
1.00261e-09
1.00233e-09
1.00256e-09
1.00237e-09
1.00253e-09
1.0024e-09
1.0025e-09
1.00241e-09
1.00247e-09
1.00241e-09
1.00245e-09
1.00241e-09
1.00243e-09
1.0024e-09
1.00242e-09
1.0024e-09
1.00241e-09
1.0024e-09
1.0024e-09
1.00241e-09
1.0024e-09
1.00242e-09
1.0024e-09
1.00243e-09
1.00241e-09
1.00245e-09
1.00241e-09
1.00247e-09
1.00241e-09
1.0025e-09
1.0024e-09
1.00253e-09
1.00237e-09
1.00256e-09
1.00233e-09
1.00261e-09
1.00227e-09
1.00263e-09
1.00209e-09
1.00208e-09
1.00015e-09
9.94473e-10
9.90834e-10
8.59914e-10
8.62746e-10
8.6752e-10
8.69175e-10
8.69279e-10
8.69725e-10
8.69452e-10
8.69713e-10
8.69494e-10
8.69674e-10
8.69534e-10
8.69656e-10
8.69562e-10
8.69642e-10
8.69576e-10
8.69629e-10
8.69582e-10
8.69616e-10
8.69584e-10
8.69605e-10
8.69584e-10
8.69597e-10
8.69585e-10
8.69592e-10
8.69588e-10
8.69588e-10
8.69592e-10
8.69585e-10
8.69597e-10
8.69584e-10
8.69604e-10
8.69584e-10
8.69616e-10
8.69582e-10
8.69629e-10
8.69575e-10
8.69642e-10
8.69561e-10
8.69655e-10
8.69534e-10
8.69674e-10
8.69494e-10
8.69712e-10
8.69451e-10
8.69725e-10
8.69279e-10
8.69175e-10
8.67519e-10
8.62746e-10
8.59914e-10
7.44297e-10
7.46818e-10
7.51072e-10
7.52574e-10
7.52696e-10
7.53093e-10
7.52856e-10
7.53084e-10
7.52893e-10
7.53051e-10
7.52929e-10
7.53035e-10
7.52953e-10
7.53024e-10
7.52966e-10
7.53012e-10
7.52971e-10
7.53e-10
7.52972e-10
7.5299e-10
7.52971e-10
7.52983e-10
7.52973e-10
7.52978e-10
7.52975e-10
7.52975e-10
7.52978e-10
7.52972e-10
7.52983e-10
7.52971e-10
7.5299e-10
7.52972e-10
7.53e-10
7.52971e-10
7.53012e-10
7.52965e-10
7.53024e-10
7.52953e-10
7.53035e-10
7.52928e-10
7.53051e-10
7.52893e-10
7.53084e-10
7.52855e-10
7.53092e-10
7.52696e-10
7.52573e-10
7.51072e-10
7.46818e-10
7.44297e-10
6.49893e-10
6.52195e-10
6.56061e-10
6.57451e-10
6.57587e-10
6.57948e-10
6.57736e-10
6.57942e-10
6.5777e-10
6.57913e-10
6.57803e-10
6.57899e-10
6.57826e-10
6.57889e-10
6.57837e-10
6.57879e-10
6.57842e-10
6.57868e-10
6.57842e-10
6.57858e-10
6.57841e-10
6.57851e-10
6.57842e-10
6.57847e-10
6.57845e-10
6.57845e-10
6.57847e-10
6.57842e-10
6.57851e-10
6.57841e-10
6.57858e-10
6.57842e-10
6.57868e-10
6.57841e-10
6.57879e-10
6.57837e-10
6.57889e-10
6.57825e-10
6.57899e-10
6.57803e-10
6.57912e-10
6.5777e-10
6.57942e-10
6.57736e-10
6.57948e-10
6.57586e-10
6.57451e-10
6.56061e-10
6.52195e-10
6.49892e-10
5.67447e-10
5.6966e-10
5.73295e-10
5.74668e-10
5.74845e-10
5.75191e-10
5.75003e-10
5.75192e-10
5.75036e-10
5.75167e-10
5.75068e-10
5.75157e-10
5.7509e-10
5.75149e-10
5.75101e-10
5.75139e-10
5.75104e-10
5.75128e-10
5.75104e-10
5.75118e-10
5.75101e-10
5.7511e-10
5.75101e-10
5.75106e-10
5.75103e-10
5.75103e-10
5.75105e-10
5.75101e-10
5.7511e-10
5.75101e-10
5.75117e-10
5.75103e-10
5.75128e-10
5.75104e-10
5.75138e-10
5.751e-10
5.75148e-10
5.7509e-10
5.75156e-10
5.75068e-10
5.75166e-10
5.75035e-10
5.75192e-10
5.75002e-10
5.75191e-10
5.74845e-10
5.74668e-10
5.73295e-10
5.6966e-10
5.67447e-10
5.00216e-10
5.02254e-10
5.05549e-10
5.06822e-10
5.07005e-10
5.07322e-10
5.07155e-10
5.07325e-10
5.07185e-10
5.07303e-10
5.07215e-10
5.07295e-10
5.07236e-10
5.07288e-10
5.07245e-10
5.0728e-10
5.07249e-10
5.0727e-10
5.07248e-10
5.0726e-10
5.07245e-10
5.07253e-10
5.07245e-10
5.07249e-10
5.07246e-10
5.07246e-10
5.07249e-10
5.07245e-10
5.07253e-10
5.07245e-10
5.0726e-10
5.07247e-10
5.07269e-10
5.07248e-10
5.07279e-10
5.07245e-10
5.07288e-10
5.07235e-10
5.07294e-10
5.07215e-10
5.07303e-10
5.07185e-10
5.07325e-10
5.07154e-10
5.07322e-10
5.07005e-10
5.06822e-10
5.05549e-10
5.02254e-10
5.00216e-10
4.41336e-10
4.43329e-10
4.46469e-10
4.47725e-10
4.47906e-10
4.48217e-10
4.48054e-10
4.48221e-10
4.48085e-10
4.482e-10
4.48113e-10
4.48189e-10
4.4813e-10
4.48179e-10
4.48135e-10
4.48166e-10
4.48134e-10
4.48152e-10
4.48129e-10
4.4814e-10
4.48124e-10
4.48131e-10
4.48122e-10
4.48125e-10
4.48123e-10
4.48123e-10
4.48125e-10
4.48122e-10
4.48131e-10
4.48124e-10
4.48139e-10
4.48129e-10
4.48152e-10
4.48133e-10
4.48165e-10
4.48134e-10
4.48178e-10
4.48129e-10
4.48188e-10
4.48112e-10
4.48199e-10
4.48084e-10
4.48221e-10
4.48053e-10
4.48216e-10
4.47905e-10
4.47724e-10
4.46468e-10
4.43329e-10
4.41336e-10
3.91427e-10
3.93251e-10
3.96056e-10
3.97205e-10
3.97385e-10
3.97665e-10
3.97523e-10
3.97672e-10
3.97551e-10
3.97653e-10
3.97577e-10
3.97644e-10
3.97592e-10
3.97635e-10
3.97596e-10
3.97623e-10
3.97594e-10
3.9761e-10
3.97589e-10
3.97598e-10
3.97583e-10
3.97589e-10
3.97581e-10
3.97584e-10
3.97581e-10
3.97581e-10
3.97584e-10
3.97581e-10
3.97589e-10
3.97583e-10
3.97597e-10
3.97588e-10
3.97609e-10
3.97593e-10
3.97622e-10
3.97595e-10
3.97634e-10
3.97591e-10
3.97643e-10
3.97576e-10
3.97652e-10
3.97551e-10
3.97671e-10
3.97522e-10
3.97665e-10
3.97384e-10
3.97205e-10
3.96055e-10
3.93251e-10
3.91427e-10
3.50566e-10
3.52274e-10
3.54831e-10
3.55903e-10
3.56081e-10
3.5634e-10
3.56212e-10
3.56348e-10
3.56239e-10
3.56331e-10
3.56262e-10
3.56323e-10
3.56275e-10
3.56314e-10
3.56279e-10
3.56303e-10
3.56276e-10
3.5629e-10
3.56271e-10
3.56278e-10
3.56265e-10
3.5627e-10
3.56262e-10
3.56265e-10
3.56263e-10
3.56263e-10
3.56265e-10
3.56262e-10
3.5627e-10
3.56265e-10
3.56278e-10
3.5627e-10
3.5629e-10
3.56276e-10
3.56302e-10
3.56278e-10
3.56314e-10
3.56275e-10
3.56323e-10
3.56261e-10
3.5633e-10
3.56238e-10
3.56347e-10
3.56211e-10
3.5634e-10
3.5608e-10
3.55902e-10
3.5483e-10
3.52274e-10
3.50566e-10
3.15735e-10
3.17345e-10
3.19685e-10
3.20687e-10
3.20862e-10
3.21103e-10
3.20986e-10
3.21111e-10
3.21012e-10
3.21096e-10
3.21033e-10
3.21089e-10
3.21045e-10
3.21081e-10
3.21047e-10
3.21069e-10
3.21044e-10
3.21056e-10
3.21038e-10
3.21045e-10
3.21032e-10
3.21036e-10
3.21029e-10
3.21031e-10
3.21029e-10
3.21029e-10
3.21031e-10
3.21029e-10
3.21036e-10
3.21032e-10
3.21045e-10
3.21038e-10
3.21056e-10
3.21044e-10
3.21069e-10
3.21047e-10
3.2108e-10
3.21045e-10
3.21088e-10
3.21033e-10
3.21095e-10
3.21011e-10
3.2111e-10
3.20985e-10
3.21102e-10
3.20861e-10
3.20687e-10
3.19684e-10
3.17344e-10
3.15735e-10
2.8527e-10
2.86694e-10
2.88703e-10
2.89594e-10
2.89776e-10
2.8999e-10
2.89894e-10
2.9e-10
2.89916e-10
2.8999e-10
2.89941e-10
2.89991e-10
2.89959e-10
2.89993e-10
2.89969e-10
2.89991e-10
2.89973e-10
2.89986e-10
2.89973e-10
2.8998e-10
2.89971e-10
2.89975e-10
2.8997e-10
2.89972e-10
2.89971e-10
2.89971e-10
2.89972e-10
2.8997e-10
2.89975e-10
2.89971e-10
2.8998e-10
2.89972e-10
2.89986e-10
2.89972e-10
2.8999e-10
2.89968e-10
2.89992e-10
2.89958e-10
2.89991e-10
2.8994e-10
2.8999e-10
2.89916e-10
2.89999e-10
2.89893e-10
2.8999e-10
2.89776e-10
2.89594e-10
2.88703e-10
2.86695e-10
2.85272e-10
2.59612e-10
2.60954e-10
2.62789e-10
2.6362e-10
2.63796e-10
2.63995e-10
2.63908e-10
2.64005e-10
2.6393e-10
2.63997e-10
2.63953e-10
2.64e-10
2.6397e-10
2.64002e-10
2.6398e-10
2.64e-10
2.63984e-10
2.63996e-10
2.63983e-10
2.6399e-10
2.63982e-10
2.63986e-10
2.63981e-10
2.63983e-10
2.63981e-10
2.63981e-10
2.63983e-10
2.63981e-10
2.63985e-10
2.63981e-10
2.6399e-10
2.63983e-10
2.63995e-10
2.63983e-10
2.64e-10
2.6398e-10
2.64001e-10
2.6397e-10
2.63999e-10
2.63952e-10
2.63997e-10
2.63929e-10
2.64005e-10
2.63908e-10
2.63995e-10
2.63796e-10
2.6362e-10
2.62789e-10
2.60955e-10
2.59613e-10
2.36603e-10
2.37895e-10
2.39614e-10
2.40416e-10
2.40595e-10
2.40787e-10
2.40707e-10
2.40798e-10
2.40729e-10
2.40792e-10
2.4075e-10
2.40794e-10
2.40766e-10
2.40795e-10
2.40774e-10
2.40792e-10
2.40776e-10
2.40786e-10
2.40773e-10
2.40779e-10
2.4077e-10
2.40773e-10
2.40768e-10
2.4077e-10
2.40768e-10
2.40768e-10
2.4077e-10
2.40768e-10
2.40773e-10
2.4077e-10
2.40779e-10
2.40773e-10
2.40785e-10
2.40775e-10
2.40791e-10
2.40774e-10
2.40794e-10
2.40766e-10
2.40793e-10
2.4075e-10
2.40791e-10
2.40728e-10
2.40798e-10
2.40707e-10
2.40787e-10
2.40595e-10
2.40416e-10
2.39614e-10
2.37896e-10
2.36605e-10
2.16611e-10
2.17821e-10
2.19382e-10
2.20126e-10
2.20298e-10
2.20476e-10
2.20404e-10
2.20487e-10
2.20424e-10
2.20482e-10
2.20445e-10
2.20485e-10
2.2046e-10
2.20486e-10
2.20468e-10
2.20484e-10
2.20469e-10
2.20478e-10
2.20467e-10
2.20471e-10
2.20463e-10
2.20466e-10
2.20461e-10
2.20462e-10
2.20461e-10
2.20461e-10
2.20462e-10
2.20461e-10
2.20466e-10
2.20463e-10
2.20471e-10
2.20466e-10
2.20478e-10
2.20468e-10
2.20483e-10
2.20467e-10
2.20486e-10
2.2046e-10
2.20484e-10
2.20445e-10
2.20481e-10
2.20424e-10
2.20486e-10
2.20403e-10
2.20475e-10
2.20298e-10
2.20125e-10
2.19382e-10
2.17822e-10
2.16612e-10
1.99157e-10
2.00295e-10
2.01717e-10
2.02406e-10
2.02572e-10
2.02736e-10
2.02672e-10
2.02747e-10
2.02691e-10
2.02743e-10
2.02711e-10
2.02747e-10
2.02726e-10
2.02749e-10
2.02733e-10
2.02747e-10
2.02734e-10
2.02742e-10
2.02731e-10
2.02735e-10
2.02728e-10
2.0273e-10
2.02726e-10
2.02727e-10
2.02725e-10
2.02725e-10
2.02727e-10
2.02725e-10
2.0273e-10
2.02727e-10
2.02735e-10
2.02731e-10
2.02741e-10
2.02733e-10
2.02747e-10
2.02732e-10
2.02749e-10
2.02725e-10
2.02747e-10
2.0271e-10
2.02743e-10
2.02691e-10
2.02747e-10
2.02671e-10
2.02735e-10
2.02571e-10
2.02406e-10
2.01716e-10
2.00296e-10
1.99158e-10
1.83853e-10
1.84925e-10
1.86224e-10
1.86863e-10
1.87021e-10
1.87174e-10
1.87116e-10
1.87185e-10
1.87135e-10
1.87183e-10
1.87154e-10
1.87187e-10
1.87168e-10
1.8719e-10
1.87175e-10
1.87188e-10
1.87176e-10
1.87183e-10
1.87173e-10
1.87177e-10
1.87169e-10
1.87171e-10
1.87167e-10
1.87168e-10
1.87167e-10
1.87167e-10
1.87168e-10
1.87167e-10
1.87171e-10
1.87169e-10
1.87176e-10
1.87173e-10
1.87182e-10
1.87175e-10
1.87187e-10
1.87174e-10
1.87189e-10
1.87167e-10
1.87186e-10
1.87153e-10
1.87182e-10
1.87134e-10
1.87185e-10
1.87116e-10
1.87173e-10
1.87021e-10
1.86862e-10
1.86224e-10
1.84925e-10
1.83855e-10
1.70378e-10
1.71387e-10
1.72579e-10
1.73171e-10
1.73323e-10
1.73464e-10
1.73413e-10
1.73476e-10
1.7343e-10
1.73474e-10
1.73448e-10
1.73479e-10
1.73462e-10
1.73482e-10
1.73469e-10
1.73481e-10
1.7347e-10
1.73476e-10
1.73467e-10
1.7347e-10
1.73463e-10
1.73465e-10
1.73461e-10
1.73462e-10
1.73461e-10
1.73461e-10
1.73462e-10
1.73461e-10
1.73465e-10
1.73463e-10
1.7347e-10
1.73467e-10
1.73476e-10
1.73469e-10
1.7348e-10
1.73468e-10
1.73482e-10
1.73462e-10
1.73479e-10
1.73448e-10
1.73473e-10
1.7343e-10
1.73475e-10
1.73412e-10
1.73464e-10
1.73322e-10
1.73171e-10
1.72578e-10
1.71388e-10
1.70379e-10
1.58465e-10
1.59417e-10
1.60511e-10
1.61062e-10
1.61206e-10
1.61338e-10
1.61292e-10
1.61349e-10
1.61309e-10
1.61349e-10
1.61326e-10
1.61355e-10
1.6134e-10
1.61358e-10
1.61346e-10
1.61357e-10
1.61347e-10
1.61353e-10
1.61344e-10
1.61347e-10
1.61341e-10
1.61342e-10
1.61338e-10
1.61339e-10
1.61338e-10
1.61338e-10
1.61339e-10
1.61338e-10
1.61342e-10
1.6134e-10
1.61346e-10
1.61344e-10
1.61352e-10
1.61346e-10
1.61357e-10
1.61345e-10
1.61358e-10
1.61339e-10
1.61354e-10
1.61326e-10
1.61348e-10
1.61308e-10
1.61349e-10
1.61291e-10
1.61338e-10
1.61206e-10
1.61061e-10
1.60511e-10
1.59417e-10
1.58466e-10
1.47893e-10
1.48792e-10
1.49799e-10
1.50311e-10
1.50449e-10
1.50572e-10
1.5053e-10
1.50583e-10
1.50546e-10
1.50583e-10
1.50563e-10
1.50589e-10
1.50576e-10
1.50593e-10
1.50582e-10
1.50593e-10
1.50583e-10
1.50588e-10
1.5058e-10
1.50583e-10
1.50577e-10
1.50578e-10
1.50574e-10
1.50575e-10
1.50574e-10
1.50574e-10
1.50575e-10
1.50574e-10
1.50578e-10
1.50577e-10
1.50582e-10
1.5058e-10
1.50588e-10
1.50583e-10
1.50592e-10
1.50582e-10
1.50593e-10
1.50575e-10
1.50589e-10
1.50562e-10
1.50582e-10
1.50545e-10
1.50582e-10
1.50529e-10
1.50572e-10
1.50449e-10
1.5031e-10
1.49798e-10
1.48792e-10
1.47894e-10
1.38476e-10
1.39326e-10
1.40254e-10
1.40731e-10
1.40862e-10
1.40977e-10
1.40939e-10
1.40988e-10
1.40954e-10
1.40989e-10
1.40971e-10
1.40996e-10
1.40984e-10
1.41e-10
1.4099e-10
1.41e-10
1.40991e-10
1.40996e-10
1.40988e-10
1.4099e-10
1.40985e-10
1.40986e-10
1.40982e-10
1.40983e-10
1.40982e-10
1.40981e-10
1.40982e-10
1.40982e-10
1.40985e-10
1.40984e-10
1.4099e-10
1.40988e-10
1.40995e-10
1.40991e-10
1.40999e-10
1.4099e-10
1.40999e-10
1.40983e-10
1.40995e-10
1.40971e-10
1.40988e-10
1.40954e-10
1.40987e-10
1.40939e-10
1.40977e-10
1.40862e-10
1.40731e-10
1.40254e-10
1.39327e-10
1.38478e-10
1.3006e-10
1.30863e-10
1.31719e-10
1.32164e-10
1.32289e-10
1.32397e-10
1.32362e-10
1.32407e-10
1.32377e-10
1.32409e-10
1.32393e-10
1.32416e-10
1.32406e-10
1.32421e-10
1.32412e-10
1.32421e-10
1.32413e-10
1.32417e-10
1.3241e-10
1.32412e-10
1.32407e-10
1.32407e-10
1.32404e-10
1.32404e-10
1.32403e-10
1.32403e-10
1.32404e-10
1.32404e-10
1.32407e-10
1.32406e-10
1.32411e-10
1.3241e-10
1.32417e-10
1.32412e-10
1.3242e-10
1.32411e-10
1.3242e-10
1.32405e-10
1.32415e-10
1.32392e-10
1.32408e-10
1.32376e-10
1.32406e-10
1.32361e-10
1.32396e-10
1.32289e-10
1.32164e-10
1.31719e-10
1.30864e-10
1.30061e-10
1.22511e-10
1.23272e-10
1.24061e-10
1.24478e-10
1.24597e-10
1.24697e-10
1.24665e-10
1.24706e-10
1.24679e-10
1.24709e-10
1.24695e-10
1.24717e-10
1.24708e-10
1.24722e-10
1.24714e-10
1.24722e-10
1.24715e-10
1.24719e-10
1.24712e-10
1.24714e-10
1.24709e-10
1.24709e-10
1.24706e-10
1.24706e-10
1.24705e-10
1.24705e-10
1.24706e-10
1.24706e-10
1.24709e-10
1.24708e-10
1.24713e-10
1.24712e-10
1.24718e-10
1.24714e-10
1.24722e-10
1.24714e-10
1.24721e-10
1.24707e-10
1.24716e-10
1.24695e-10
1.24708e-10
1.24679e-10
1.24706e-10
1.24665e-10
1.24696e-10
1.24596e-10
1.24477e-10
1.24061e-10
1.23272e-10
1.22513e-10
1.15718e-10
1.16438e-10
1.17168e-10
1.17558e-10
1.1767e-10
1.17764e-10
1.17735e-10
1.17773e-10
1.17749e-10
1.17776e-10
1.17764e-10
1.17785e-10
1.17777e-10
1.1779e-10
1.17783e-10
1.17791e-10
1.17784e-10
1.17788e-10
1.17782e-10
1.17783e-10
1.17778e-10
1.17778e-10
1.17775e-10
1.17775e-10
1.17774e-10
1.17774e-10
1.17775e-10
1.17775e-10
1.17778e-10
1.17778e-10
1.17782e-10
1.17781e-10
1.17787e-10
1.17784e-10
1.1779e-10
1.17783e-10
1.1779e-10
1.17776e-10
1.17784e-10
1.17764e-10
1.17776e-10
1.17748e-10
1.17772e-10
1.17734e-10
1.17764e-10
1.1767e-10
1.17557e-10
1.17167e-10
1.16439e-10
1.1572e-10
1.09587e-10
1.10267e-10
1.10941e-10
1.11307e-10
1.11414e-10
1.11502e-10
1.11475e-10
1.1151e-10
1.11488e-10
1.11514e-10
1.11503e-10
1.11522e-10
1.11516e-10
1.11529e-10
1.11522e-10
1.1153e-10
1.11523e-10
1.11526e-10
1.11521e-10
1.11522e-10
1.11517e-10
1.11517e-10
1.11514e-10
1.11514e-10
1.11514e-10
1.11513e-10
1.11514e-10
1.11514e-10
1.11517e-10
1.11517e-10
1.11521e-10
1.1152e-10
1.11526e-10
1.11523e-10
1.11529e-10
1.11522e-10
1.11528e-10
1.11515e-10
1.11522e-10
1.11503e-10
1.11513e-10
1.11487e-10
1.11509e-10
1.11474e-10
1.11501e-10
1.11414e-10
1.11307e-10
1.10941e-10
1.10268e-10
1.09588e-10
1.04033e-10
1.04676e-10
1.05299e-10
1.05644e-10
1.05744e-10
1.05826e-10
1.05802e-10
1.05834e-10
1.05814e-10
1.05838e-10
1.05829e-10
1.05848e-10
1.05842e-10
1.05854e-10
1.05849e-10
1.05855e-10
1.0585e-10
1.05853e-10
1.05847e-10
1.05848e-10
1.05844e-10
1.05844e-10
1.05841e-10
1.05841e-10
1.0584e-10
1.0584e-10
1.05841e-10
1.05841e-10
1.05843e-10
1.05843e-10
1.05847e-10
1.05847e-10
1.05852e-10
1.05849e-10
1.05855e-10
1.05848e-10
1.05853e-10
1.05841e-10
1.05847e-10
1.05829e-10
1.05838e-10
1.05814e-10
1.05834e-10
1.05801e-10
1.05826e-10
1.05744e-10
1.05643e-10
1.05299e-10
1.04676e-10
1.04035e-10
9.89866e-11
9.95945e-11
1.00172e-10
1.00495e-10
1.0059e-10
1.00667e-10
1.00644e-10
1.00674e-10
1.00656e-10
1.00679e-10
1.00671e-10
1.00688e-10
1.00684e-10
1.00695e-10
1.0069e-10
1.00697e-10
1.00692e-10
1.00694e-10
1.00689e-10
1.0069e-10
1.00686e-10
1.00685e-10
1.00683e-10
1.00683e-10
1.00682e-10
1.00682e-10
1.00682e-10
1.00683e-10
1.00685e-10
1.00685e-10
1.00689e-10
1.00689e-10
1.00694e-10
1.00691e-10
1.00696e-10
1.0069e-10
1.00695e-10
1.00683e-10
1.00688e-10
1.0067e-10
1.00678e-10
1.00655e-10
1.00673e-10
1.00644e-10
1.00666e-10
1.0059e-10
1.00495e-10
1.00172e-10
9.95948e-11
9.89879e-11
9.43856e-11
9.49616e-11
9.54979e-11
9.58005e-11
9.58902e-11
9.59614e-11
9.59401e-11
9.59678e-11
9.59516e-11
9.59729e-11
9.59666e-11
9.59831e-11
9.59794e-11
9.59903e-11
9.59863e-11
9.59922e-11
9.59874e-11
9.59898e-11
9.59851e-11
9.59855e-11
9.59815e-11
9.59813e-11
9.59787e-11
9.59785e-11
9.59776e-11
9.59776e-11
9.59783e-11
9.59785e-11
9.5981e-11
9.59811e-11
9.59851e-11
9.59846e-11
9.59893e-11
9.59868e-11
9.59916e-11
9.59856e-11
9.59896e-11
9.59787e-11
9.59824e-11
9.5966e-11
9.59723e-11
9.5951e-11
9.59673e-11
9.59397e-11
9.59611e-11
9.58899e-11
9.58002e-11
9.54974e-11
9.49619e-11
9.43869e-11
9.01784e-11
9.07248e-11
9.12224e-11
9.1506e-11
9.15904e-11
9.16567e-11
9.16367e-11
9.16623e-11
9.16477e-11
9.16678e-11
9.16626e-11
9.16784e-11
9.16755e-11
9.1686e-11
9.16825e-11
9.16882e-11
9.16838e-11
9.1686e-11
9.16815e-11
9.16818e-11
9.16779e-11
9.16776e-11
9.16751e-11
9.16749e-11
9.1674e-11
9.1674e-11
9.16747e-11
9.16749e-11
9.16773e-11
9.16776e-11
9.16814e-11
9.1681e-11
9.16855e-11
9.16832e-11
9.16876e-11
9.16818e-11
9.16853e-11
9.16748e-11
9.16777e-11
9.16619e-11
9.16672e-11
9.16471e-11
9.16618e-11
9.16363e-11
9.16564e-11
9.15901e-11
9.15058e-11
9.12219e-11
9.07251e-11
9.01796e-11
)
;

boundaryField
{
    fuel
    {
        type            fixedValue;
        value           uniform 0;
    }
    wall
    {
        type            zeroGradient;
    }
    outlet
    {
        type            zeroGradient;
    }
    frontAndBack
    {
        type            empty;
    }
    procBoundary1to0
    {
        type            processor;
        value           nonuniform List<scalar> 
50
(
8.63192e-11
8.68374e-11
8.72993e-11
8.75655e-11
8.76445e-11
8.77062e-11
8.76874e-11
8.77111e-11
8.76978e-11
8.77169e-11
8.77127e-11
8.77279e-11
8.77257e-11
8.77358e-11
8.77328e-11
8.77383e-11
8.77343e-11
8.77363e-11
8.7732e-11
8.77322e-11
8.77284e-11
8.7728e-11
8.77256e-11
8.77253e-11
8.77245e-11
8.77244e-11
8.77252e-11
8.77254e-11
8.77277e-11
8.77281e-11
8.77317e-11
8.77315e-11
8.77357e-11
8.77336e-11
8.77376e-11
8.77322e-11
8.77351e-11
8.7725e-11
8.77272e-11
8.7712e-11
8.77163e-11
8.76973e-11
8.77106e-11
8.7687e-11
8.77059e-11
8.76442e-11
8.75653e-11
8.72988e-11
8.68377e-11
8.63203e-11
)
;
    }
}


// ************************************************************************* //
