/*--------------------------------*- C++ -*----------------------------------*\
| =========                 |                                                 |
| \\      /  F ield         | OpenFOAM: The Open Source CFD Toolbox           |
|  \\    /   O peration     | Version:  dev                                   |
|   \\  /    A nd           | Web:      www.OpenFOAM.org                      |
|    \\/     M anipulation  |                                                 |
\*---------------------------------------------------------------------------*/
FoamFile
{
    version     2.0;
    format      ascii;
    class       volScalarField;
    location    "0.025";
    object      l-C6H6;
}
// * * * * * * * * * * * * * * * * * * * * * * * * * * * * * * * * * * * * * //

dimensions      [0 0 0 0 0 0 0];

internalField   nonuniform List<scalar> 
25
(
2.52685e-12
4.19193e-12
6.65315e-12
1.00777e-11
1.46804e-11
2.03559e-11
2.70966e-11
3.4755e-11
4.283e-11
5.09529e-11
5.86269e-11
6.53664e-11
7.07538e-11
7.44835e-11
7.63888e-11
7.64479e-11
7.47732e-11
7.15862e-11
6.71882e-11
6.19323e-11
5.61307e-11
5.02824e-11
4.47306e-11
3.99162e-11
3.63517e-11
)
;

boundaryField
{
    wall
    {
        type            zeroGradient;
    }
    fuel
    {
        type            fixedValue;
        value           nonuniform 0();
    }
    outlet
    {
        type            inletOutlet;
        inletValue      nonuniform 0();
        value           nonuniform 0();
    }
    procBoundary1to0
    {
        type            processor;
        value           uniform 1.45002e-12;
    }
    procBoundary1to2
    {
        type            processor;
        value           uniform 3.47092e-11;
    }
}


// ************************************************************************* //
