/*--------------------------------*- C++ -*----------------------------------*\
| =========                 |                                                 |
| \\      /  F ield         | OpenFOAM: The Open Source CFD Toolbox           |
|  \\    /   O peration     | Version:  dev                                   |
|   \\  /    A nd           | Web:      www.OpenFOAM.org                      |
|    \\/     M anipulation  |                                                 |
\*---------------------------------------------------------------------------*/
FoamFile
{
    version     2.0;
    format      ascii;
    class       volScalarField;
    location    "0.025";
    object      n-C4H3;
}
// * * * * * * * * * * * * * * * * * * * * * * * * * * * * * * * * * * * * * //

dimensions      [0 0 0 0 0 0 0];

internalField   nonuniform List<scalar> 
25
(
1.27619e-11
1.71137e-11
2.26942e-11
2.96024e-11
3.80635e-11
4.78245e-11
5.89608e-11
7.14809e-11
8.50212e-11
9.95742e-11
1.1504e-10
1.31376e-10
1.48613e-10
1.66868e-10
1.8635e-10
2.07362e-10
2.30309e-10
2.55688e-10
2.84081e-10
3.16136e-10
3.52997e-10
3.94778e-10
4.42735e-10
4.9773e-10
5.60597e-10
)
;

boundaryField
{
    wall
    {
        type            zeroGradient;
    }
    fuel
    {
        type            fixedValue;
        value           nonuniform 0();
    }
    outlet
    {
        type            inletOutlet;
        inletValue      nonuniform 0();
        value           nonuniform 0();
    }
    procBoundary1to0
    {
        type            processor;
        value           uniform 9.4638e-12;
    }
    procBoundary1to2
    {
        type            processor;
        value           uniform 6.32013e-10;
    }
}


// ************************************************************************* //
