/*--------------------------------*- C++ -*----------------------------------*\
| =========                 |                                                 |
| \\      /  F ield         | OpenFOAM: The Open Source CFD Toolbox           |
|  \\    /   O peration     | Version:  dev                                   |
|   \\  /    A nd           | Web:      www.OpenFOAM.org                      |
|    \\/     M anipulation  |                                                 |
\*---------------------------------------------------------------------------*/
FoamFile
{
    version     2.0;
    format      ascii;
    class       volScalarField;
    location    "0.025";
    object      n-C6H7;
}
// * * * * * * * * * * * * * * * * * * * * * * * * * * * * * * * * * * * * * //

dimensions      [0 0 0 0 0 0 0];

internalField   nonuniform List<scalar> 
25
(
2.51907e-16
4.17216e-16
6.59475e-16
9.92599e-16
1.43332e-15
1.96669e-15
2.58606e-15
3.27125e-15
3.97242e-15
4.65397e-15
5.27287e-15
5.79139e-15
6.18159e-15
6.42789e-15
6.52755e-15
6.48912e-15
6.32968e-15
6.07147e-15
5.73867e-15
5.35501e-15
4.93692e-15
4.51023e-15
4.08448e-15
3.66996e-15
3.27365e-15
)
;

boundaryField
{
    wall
    {
        type            zeroGradient;
    }
    fuel
    {
        type            fixedValue;
        value           nonuniform 0();
    }
    outlet
    {
        type            inletOutlet;
        inletValue      nonuniform 0();
        value           nonuniform 0();
    }
    procBoundary1to0
    {
        type            processor;
        value           uniform 1.44306e-16;
    }
    procBoundary1to2
    {
        type            processor;
        value           uniform 2.90026e-15;
    }
}


// ************************************************************************* //
