/*--------------------------------*- C++ -*----------------------------------*\
| =========                 |                                                 |
| \\      /  F ield         | OpenFOAM: The Open Source CFD Toolbox           |
|  \\    /   O peration     | Version:  dev                                   |
|   \\  /    A nd           | Web:      www.OpenFOAM.org                      |
|    \\/     M anipulation  |                                                 |
\*---------------------------------------------------------------------------*/
FoamFile
{
    version     2.0;
    format      ascii;
    class       volScalarField;
    location    "0.025";
    object      O2;
}
// * * * * * * * * * * * * * * * * * * * * * * * * * * * * * * * * * * * * * //

dimensions      [0 0 0 0 0 0 0];

internalField   nonuniform List<scalar> 
25
(
8.2129e-07
6.81411e-07
5.6698e-07
4.78554e-07
4.16809e-07
3.88633e-07
4.02344e-07
4.74226e-07
6.26974e-07
8.9601e-07
1.3296e-06
1.99229e-06
2.96733e-06
4.35882e-06
6.29315e-06
8.91981e-06
1.24112e-05
1.69615e-05
2.27834e-05
3.0103e-05
3.92727e-05
5.0362e-05
6.37503e-05
7.97217e-05
9.85672e-05
)
;

boundaryField
{
    wall
    {
        type            zeroGradient;
    }
    fuel
    {
        type            fixedValue;
        value           nonuniform 0();
    }
    outlet
    {
        type            inletOutlet;
        inletValue      nonuniform 0();
        value           nonuniform 0();
    }
    procBoundary1to0
    {
        type            processor;
        value           uniform 9.88324e-07;
    }
    procBoundary1to2
    {
        type            processor;
        value           uniform 0.000120552;
    }
}


// ************************************************************************* //
