/*--------------------------------*- C++ -*----------------------------------*\
| =========                 |                                                 |
| \\      /  F ield         | OpenFOAM: The Open Source CFD Toolbox           |
|  \\    /   O peration     | Version:  dev                                   |
|   \\  /    A nd           | Web:      www.OpenFOAM.org                      |
|    \\/     M anipulation  |                                                 |
\*---------------------------------------------------------------------------*/
FoamFile
{
    version     2.0;
    format      ascii;
    class       volScalarField;
    location    "0.025";
    object      P2-;
}
// * * * * * * * * * * * * * * * * * * * * * * * * * * * * * * * * * * * * * //

dimensions      [0 0 0 0 0 0 0];

internalField   nonuniform List<scalar> 
250
(
7.96514e-12
3.31869e-12
1.835e-12
1.40236e-12
1.14469e-12
9.50311e-13
8.7653e-13
7.74238e-13
7.5451e-13
7.12848e-13
5.63021e-12
2.57333e-12
1.4552e-12
1.10553e-12
8.90061e-13
7.27147e-13
6.67042e-13
5.82312e-13
5.67431e-13
5.33142e-13
5.33491e-13
5.65539e-13
5.82209e-13
6.62564e-13
7.26542e-13
8.81238e-13
1.10395e-12
1.44086e-12
2.54958e-12
5.38674e-12
3.88271e-12
1.94319e-12
1.11996e-12
8.4271e-13
6.67673e-13
5.36108e-13
4.88404e-13
4.21133e-13
4.1012e-13
3.83215e-13
3.83558e-13
4.08673e-13
4.2115e-13
4.84852e-13
5.35754e-13
6.60458e-13
8.41647e-13
1.10803e-12
1.9279e-12
3.73534e-12
2.62333e-12
1.43321e-12
8.38131e-13
6.22178e-13
4.83613e-13
3.81155e-13
3.44179e-13
2.92797e-13
2.84798e-13
2.64627e-13
2.64894e-13
2.83714e-13
2.9284e-13
3.41493e-13
3.80946e-13
4.7804e-13
6.2149e-13
8.28839e-13
1.42343e-12
2.54001e-12
1.74331e-12
1.02946e-12
6.10193e-13
4.45062e-13
3.38071e-13
2.58859e-13
2.31355e-13
1.95291e-13
1.89621e-13
1.74914e-13
1.75097e-13
1.88844e-13
1.95336e-13
2.29405e-13
2.58722e-13
3.33954e-13
4.44565e-13
6.033e-13
1.02482e-12
1.6993e-12
1.1398e-12
7.23032e-13
4.30249e-13
3.07243e-13
2.27223e-13
1.69404e-13
1.4937e-13
1.24266e-13
1.20392e-13
1.10331e-13
1.10453e-13
1.19863e-13
1.24305e-13
1.48032e-13
1.69328e-13
2.24314e-13
3.0682e-13
4.25386e-13
7.20373e-13
1.11798e-12
7.24906e-13
4.88134e-13
2.89468e-13
2.02035e-13
1.45141e-13
1.04951e-13
9.10965e-14
7.45635e-14
7.20759e-14
6.56173e-14
6.56941e-14
7.17371e-14
7.45958e-14
9.02312e-14
1.04921e-13
1.4319e-13
2.01847e-13
2.86076e-13
4.86743e-13
7.14699e-13
4.34024e-13
3.06346e-13
1.79911e-13
1.22939e-13
8.58959e-14
6.01039e-14
5.13326e-14
4.12761e-14
3.98409e-14
3.60296e-14
3.60749e-14
3.96405e-14
4.13021e-14
5.08155e-14
6.01067e-14
8.46812e-14
1.2302e-13
1.7761e-13
3.05804e-13
4.29545e-13
2.30171e-13
1.68604e-13
9.78815e-14
6.5895e-14
4.50483e-14
3.05502e-14
2.57315e-14
2.03239e-14
1.96244e-14
1.76361e-14
1.76603e-14
1.9519e-14
2.0343e-14
2.54572e-14
3.05698e-14
4.43777e-14
6.60398e-14
9.65449e-14
1.68553e-13
2.2838e-13
1.00365e-13
7.57586e-14
4.37026e-14
2.92276e-14
1.97148e-14
1.30236e-14
1.0859e-14
8.43687e-15
8.16713e-15
7.2994e-15
7.31051e-15
8.12047e-15
8.44835e-15
1.07373e-14
1.30423e-14
1.94076e-14
2.93388e-14
4.30743e-14
7.5858e-14
9.97394e-14
3.29569e-14
2.53091e-14
1.44935e-14
9.6443e-15
6.44296e-15
4.15163e-15
3.44073e-15
2.62562e-15
2.55553e-15
2.2682e-15
2.27216e-15
2.53969e-15
2.63068e-15
3.39947e-15
4.16163e-15
6.33616e-15
9.69675e-15
1.42713e-14
2.53793e-14
3.27698e-14
7.1953e-15
5.53495e-15
3.16013e-15
2.08856e-15
1.37521e-15
8.69119e-16
7.10275e-16
5.35224e-16
5.19696e-16
4.59706e-16
4.60523e-16
5.16309e-16
5.36281e-16
7.01398e-16
8.7118e-16
1.35159e-15
2.10011e-15
3.11003e-15
5.55078e-15
7.15179e-15
1.86201e-15
1.396e-15
8.11009e-16
5.25911e-16
3.41764e-16
2.1385e-16
1.70763e-16
1.28572e-16
1.2286e-16
1.09142e-16
1.09286e-16
1.22099e-16
1.28701e-16
1.68697e-16
2.14027e-16
3.36017e-16
5.27772e-16
7.97996e-16
1.39739e-15
1.84747e-15
)
;

boundaryField
{
    fuel
    {
        type            fixedValue;
        value           nonuniform 0();
    }
    wall
    {
        type            zeroGradient;
    }
    outlet
    {
        type            zeroGradient;
    }
    frontAndBack
    {
        type            empty;
    }
    procBoundary1to0
    {
        type            processor;
        value           nonuniform List<scalar> 
21
(
1.09009e-11
4.15298e-12
2.23998e-12
1.71698e-12
1.41851e-12
1.19597e-12
1.10796e-12
9.90047e-13
9.64547e-13
9.1638e-13
7.13422e-13
7.13422e-13
7.52394e-13
7.74165e-13
8.71237e-13
9.494e-13
1.13401e-12
1.3995e-12
1.81694e-12
3.27895e-12
7.55487e-12
)
;
    }
}


// ************************************************************************* //
