/*--------------------------------*- C++ -*----------------------------------*\
| =========                 |                                                 |
| \\      /  F ield         | OpenFOAM: The Open Source CFD Toolbox           |
|  \\    /   O peration     | Version:  dev                                   |
|   \\  /    A nd           | Web:      www.OpenFOAM.org                      |
|    \\/     M anipulation  |                                                 |
\*---------------------------------------------------------------------------*/
FoamFile
{
    version     2.0;
    format      ascii;
    class       surfaceScalarField;
    location    "0";
    object      phi;
}
// * * * * * * * * * * * * * * * * * * * * * * * * * * * * * * * * * * * * * //

dimensions      [1 0 -1 0 0 0 0];

internalField   nonuniform List<scalar> 
12
(
3.88105e-05
3.991e-05
4.10431e-05
4.22119e-05
4.34316e-05
4.46967e-05
4.60083e-05
4.73489e-05
4.87337e-05
5.0173e-05
5.16659e-05
5.32095e-05
)
;

boundaryField
{
    wall
    {
        type            calculated;
        value           nonuniform List<scalar> 
52
(
2.34234e-19
2.32379e-19
2.30378e-19
2.28239e-19
2.25984e-19
2.2356e-19
2.20983e-19
2.18301e-19
2.15401e-19
2.12332e-19
2.09084e-19
2.05654e-19
2.02044e-19
-2.34234e-19
-2.32379e-19
-2.30378e-19
-2.28239e-19
-2.25984e-19
-2.2356e-19
-2.20983e-19
-2.18301e-19
-2.15401e-19
-2.12332e-19
-2.09084e-19
-2.05654e-19
-2.02044e-19
2.34234e-19
2.32379e-19
2.30378e-19
2.28239e-19
2.25984e-19
2.2356e-19
2.20983e-19
2.18301e-19
2.15401e-19
2.12332e-19
2.09084e-19
2.05654e-19
2.02044e-19
-2.34234e-19
-2.32379e-19
-2.30378e-19
-2.28239e-19
-2.25984e-19
-2.2356e-19
-2.20983e-19
-2.18301e-19
-2.15401e-19
-2.12332e-19
-2.09084e-19
-2.05654e-19
-2.02044e-19
)
;
    }
    fuel
    {
        type            calculated;
        value           nonuniform 0();
    }
    outlet
    {
        type            calculated;
        value           nonuniform 0();
    }
    procBoundary5to4
    {
        type            processor;
        value           uniform -3.774e-05;
    }
    procBoundary5to6
    {
        type            processor;
        value           uniform 5.48045e-05;
    }
}


// ************************************************************************* //
