/*--------------------------------*- C++ -*----------------------------------*\
| =========                 |                                                 |
| \\      /  F ield         | OpenFOAM: The Open Source CFD Toolbox           |
|  \\    /   O peration     | Version:  dev                                   |
|   \\  /    A nd           | Web:      www.OpenFOAM.org                      |
|    \\/     M anipulation  |                                                 |
\*---------------------------------------------------------------------------*/
FoamFile
{
    version     2.0;
    format      ascii;
    class       surfaceScalarField;
    location    "0";
    object      phi;
}
// * * * * * * * * * * * * * * * * * * * * * * * * * * * * * * * * * * * * * //

dimensions      [1 0 -1 0 0 0 0];

internalField   nonuniform List<scalar> 
12
(
1.63616e-06
1.68354e-06
1.73278e-06
1.78326e-06
1.83547e-06
1.88972e-06
1.94581e-06
2.00387e-06
2.06295e-06
2.12319e-06
2.1849e-06
2.2491e-06
)
;

boundaryField
{
    front
    {
        type            wedge;
        value           nonuniform List<scalar> 
13
(
-2.05742e-17
-2.09465e-17
-2.13262e-17
-2.17106e-17
-2.21106e-17
-2.25164e-17
-2.24553e-17
-2.23655e-17
-2.17209e-17
-2.10267e-17
-2.02993e-17
-1.95752e-17
-1.93794e-17
)
;
    }
    back
    {
        type            wedge;
        value           nonuniform List<scalar> 
13
(
2.05742e-17
2.09465e-17
2.13262e-17
2.17106e-17
2.21106e-17
2.25164e-17
2.24553e-17
2.23655e-17
2.17209e-17
2.10267e-17
2.02993e-17
1.95752e-17
1.93794e-17
)
;
    }
    wall
    {
        type            calculated;
        value           nonuniform List<scalar> 
13
(
-5.15327e-12
-5.1541e-12
-5.15259e-12
-5.1461e-12
-5.13584e-12
-5.1213e-12
-5.10256e-12
-5.08058e-12
-5.05273e-12
-5.02012e-12
-4.98254e-12
-4.93994e-12
-4.892e-12
)
;
    }
    fuel
    {
        type            calculated;
        value           nonuniform 0();
    }
    outlet
    {
        type            calculated;
        value           nonuniform 0();
    }
    axis
    {
        type            empty;
        value           nonuniform 0();
    }
    procBoundary5to4
    {
        type            processor;
        value           uniform -1.59003e-06;
    }
    procBoundary5to6
    {
        type            processor;
        value           uniform 2.31774e-06;
    }
}


// ************************************************************************* //
