/*--------------------------------*- C++ -*----------------------------------*\
| =========                 |                                                 |
| \\      /  F ield         | OpenFOAM: The Open Source CFD Toolbox           |
|  \\    /   O peration     | Version:  dev                                   |
|   \\  /    A nd           | Web:      www.OpenFOAM.org                      |
|    \\/     M anipulation  |                                                 |
\*---------------------------------------------------------------------------*/
FoamFile
{
    version     2.0;
    format      ascii;
    class       volScalarField;
    location    "0.05";
    object      A1C2H*;
}
// * * * * * * * * * * * * * * * * * * * * * * * * * * * * * * * * * * * * * //

dimensions      [0 0 0 0 0 0 0];

internalField   nonuniform List<scalar> 
250
(
3.14526e-09
3.15088e-09
3.14221e-09
3.15159e-09
3.16854e-09
3.20548e-09
3.44084e-09
4.12312e-09
7.69055e-09
6.73915e-09
2.93116e-09
2.93622e-09
2.92848e-09
2.93722e-09
2.95314e-09
2.98727e-09
3.19977e-09
3.78316e-09
6.71221e-09
6.33719e-09
5.52548e-09
5.97611e-09
3.50682e-09
3.01145e-09
2.80638e-09
2.76527e-09
2.75324e-09
2.73861e-09
2.74949e-09
2.74153e-09
2.74198e-09
2.7466e-09
2.73966e-09
2.74785e-09
2.76279e-09
2.79423e-09
2.98542e-09
3.4818e-09
5.87395e-09
5.90558e-09
5.19882e-09
5.24319e-09
3.2363e-09
2.81649e-09
2.63141e-09
2.5942e-09
2.58299e-09
2.56919e-09
2.57934e-09
2.57164e-09
2.57214e-09
2.57647e-09
2.57017e-09
2.57793e-09
2.59197e-09
2.62077e-09
2.79245e-09
3.21259e-09
5.16085e-09
5.45079e-09
4.83233e-09
4.56069e-09
2.99084e-09
2.63722e-09
2.47021e-09
2.43664e-09
2.42616e-09
2.41293e-09
2.42263e-09
2.41492e-09
2.41553e-09
2.41975e-09
2.41392e-09
2.42139e-09
2.43464e-09
2.46078e-09
2.61491e-09
2.96814e-09
4.49731e-09
4.98116e-09
4.44414e-09
4.03034e-09
2.76264e-09
2.467e-09
2.31612e-09
2.28601e-09
2.27618e-09
2.26319e-09
2.27278e-09
2.26476e-09
2.26548e-09
2.26979e-09
2.26421e-09
2.27155e-09
2.28419e-09
2.30757e-09
2.44619e-09
2.74078e-09
3.97009e-09
4.50999e-09
4.04594e-09
3.55894e-09
2.54305e-09
2.29868e-09
2.16223e-09
2.13542e-09
2.12615e-09
2.1131e-09
2.12294e-09
2.11427e-09
2.11512e-09
2.11974e-09
2.11419e-09
2.12156e-09
2.13372e-09
2.15419e-09
2.27935e-09
2.52214e-09
3.49399e-09
4.04654e-09
3.64551e-09
3.1511e-09
2.32386e-09
2.12538e-09
2.00213e-09
1.97858e-09
1.96985e-09
1.95644e-09
1.96688e-09
1.95724e-09
1.95823e-09
1.96337e-09
1.95761e-09
1.96515e-09
1.97697e-09
1.99426e-09
2.10793e-09
2.30425e-09
3.08306e-09
3.59746e-09
3.24567e-09
2.77586e-09
2.09829e-09
1.93702e-09
1.8186e-09
1.79654e-09
1.78815e-09
1.77442e-09
1.78552e-09
1.77466e-09
1.77583e-09
1.78154e-09
1.7757e-09
1.78336e-09
1.79493e-09
1.81028e-09
1.91982e-09
2.08043e-09
2.7061e-09
3.16447e-09
2.84699e-09
2.42032e-09
1.86264e-09
1.73756e-09
1.62913e-09
1.61011e-09
1.6023e-09
1.58817e-09
1.60007e-09
1.58808e-09
1.58939e-09
1.59572e-09
1.58956e-09
1.59735e-09
1.60859e-09
1.6208e-09
1.72208e-09
1.84698e-09
2.35096e-09
2.74684e-09
2.45046e-09
2.07688e-09
1.61719e-09
1.52366e-09
1.42509e-09
1.40906e-09
1.4019e-09
1.38766e-09
1.40015e-09
1.38731e-09
1.38873e-09
1.39552e-09
1.38914e-09
1.39689e-09
1.40765e-09
1.41688e-09
1.50947e-09
1.60405e-09
2.01039e-09
2.34389e-09
2.06002e-09
1.74389e-09
1.36681e-09
1.30003e-09
1.21207e-09
1.19897e-09
1.19257e-09
1.1787e-09
1.19134e-09
1.17816e-09
1.17962e-09
1.18661e-09
1.18021e-09
1.18765e-09
1.19771e-09
1.20422e-09
1.28715e-09
1.35633e-09
1.68277e-09
1.95725e-09
1.68404e-09
1.42555e-09
1.12017e-09
1.07518e-09
9.98863e-10
9.88544e-10
9.83009e-10
9.70067e-10
9.82287e-10
9.69421e-10
9.7087e-10
9.77689e-10
9.71563e-10
9.78388e-10
9.8746e-10
9.91658e-10
1.06381e-09
1.11229e-09
1.37177e-09
1.59205e-09
7.72445e-10
7.78741e-10
7.73165e-10
7.79126e-10
7.86988e-10
7.89363e-10
8.49935e-10
8.82159e-10
1.0847e-09
1.25642e-09
)
;

boundaryField
{
    fuel
    {
        type            fixedValue;
        value           nonuniform 0();
    }
    wall
    {
        type            zeroGradient;
    }
    outlet
    {
        type            zeroGradient;
    }
    frontAndBack
    {
        type            empty;
    }
    procBoundary0to1
    {
        type            processor;
        value           nonuniform List<scalar> 
21
(
1.33256e-09
1.12936e-09
8.87719e-10
8.59547e-10
7.95653e-10
7.8787e-10
7.83261e-10
7.7177e-10
7.82979e-10
7.71095e-10
7.71095e-10
5.93221e-10
5.98723e-10
5.93905e-10
5.98849e-10
6.05368e-10
6.06433e-10
6.55239e-10
6.75379e-10
8.29259e-10
9.58468e-10
)
;
    }
    procBoundary0to2
    {
        type            processor;
        value           nonuniform List<scalar> 
12
(
3.14534e-09
5.80656e-09
6.85649e-09
3.81169e-09
3.22798e-09
3.00125e-09
2.95598e-09
2.94308e-09
2.92748e-09
2.93927e-09
2.93091e-09
2.93091e-09
)
;
    }
    procBoundary0to3
    {
        type            processor;
        value           nonuniform List<scalar> 10(3.38962e-09 3.39589e-09 3.38618e-09 3.39627e-09 3.4142e-09 3.45408e-09 3.7364e-09 4.55102e-09 8.82209e-09 7.13462e-09);
    }
}


// ************************************************************************* //
