/*--------------------------------*- C++ -*----------------------------------*\
| =========                 |                                                 |
| \\      /  F ield         | OpenFOAM: The Open Source CFD Toolbox           |
|  \\    /   O peration     | Version:  dev                                   |
|   \\  /    A nd           | Web:      www.OpenFOAM.org                      |
|    \\/     M anipulation  |                                                 |
\*---------------------------------------------------------------------------*/
FoamFile
{
    version     2.0;
    format      ascii;
    class       volScalarField;
    location    "0.05";
    object      A2;
}
// * * * * * * * * * * * * * * * * * * * * * * * * * * * * * * * * * * * * * //

dimensions      [0 0 0 0 0 0 0];

internalField   nonuniform List<scalar> 
250
(
4.77686e-09
4.76929e-09
4.77079e-09
4.76651e-09
4.77759e-09
4.86525e-09
5.32052e-09
8.24557e-09
4.06667e-08
1.7415e-07
4.9155e-09
4.90389e-09
4.9092e-09
4.90114e-09
4.90855e-09
4.9982e-09
5.40894e-09
8.06233e-09
3.42091e-08
1.4213e-07
9.62317e-08
2.93131e-08
8.06275e-09
5.63279e-09
5.25777e-09
5.16893e-09
5.15864e-09
5.18296e-09
5.16032e-09
5.19127e-09
5.1888e-09
5.17172e-09
5.18211e-09
5.16897e-09
5.17143e-09
5.26512e-09
5.62976e-09
8.06997e-09
2.92835e-08
1.15252e-07
7.87818e-08
2.53837e-08
8.29403e-09
6.01683e-09
5.69246e-09
5.60338e-09
5.59616e-09
5.6337e-09
5.59827e-09
5.64263e-09
5.63914e-09
5.61459e-09
5.63187e-09
5.61183e-09
5.60758e-09
5.70793e-09
6.02214e-09
8.30517e-09
2.5698e-08
9.35451e-08
6.54519e-08
2.25339e-08
8.81277e-09
6.62537e-09
6.35946e-09
6.26905e-09
6.26575e-09
6.32134e-09
6.26822e-09
6.33121e-09
6.32616e-09
6.29137e-09
6.31805e-09
6.28869e-09
6.27538e-09
6.38577e-09
6.64198e-09
8.82063e-09
2.30502e-08
7.66833e-08
5.57986e-08
2.10668e-08
9.69052e-09
7.53216e-09
7.33645e-09
7.24321e-09
7.24468e-09
7.32437e-09
7.24728e-09
7.33553e-09
7.32818e-09
7.27967e-09
7.31896e-09
7.27728e-09
7.25207e-09
7.37673e-09
7.56391e-09
9.68901e-09
2.16308e-08
6.41439e-08
4.93045e-08
2.06151e-08
1.10141e-08
8.82817e-09
8.71772e-09
8.61918e-09
8.6261e-09
8.73663e-09
8.62835e-09
8.74942e-09
8.73891e-09
8.67266e-09
8.72829e-09
8.67102e-09
8.63093e-09
8.77491e-09
8.87818e-09
1.09978e-08
2.1154e-08
5.53129e-08
4.54796e-08
2.11365e-08
1.28765e-08
1.06131e-08
1.06028e-08
1.04953e-08
1.05077e-08
1.06553e-08
1.05088e-08
1.06699e-08
1.06554e-08
1.05675e-08
1.06432e-08
1.05673e-08
1.05101e-08
1.06789e-08
1.0678e-08
1.28399e-08
2.16112e-08
4.95911e-08
4.38924e-08
2.25825e-08
1.53546e-08
1.3036e-08
1.32569e-08
1.31704e-08
1.31918e-08
1.33798e-08
1.31907e-08
1.34003e-08
1.33802e-08
1.32677e-08
1.33631e-08
1.32674e-08
1.31897e-08
1.33622e-08
1.3137e-08
1.52927e-08
2.29636e-08
4.64396e-08
4.4158e-08
2.49097e-08
1.84736e-08
1.6037e-08
1.63801e-08
1.62854e-08
1.63105e-08
1.65377e-08
1.63056e-08
1.65609e-08
1.65355e-08
1.6399e-08
1.65164e-08
1.64019e-08
1.63073e-08
1.65055e-08
1.61532e-08
1.83819e-08
2.51718e-08
4.5382e-08
4.59008e-08
2.80253e-08
2.21781e-08
1.9634e-08
2.00714e-08
1.99675e-08
1.99941e-08
2.0253e-08
1.99836e-08
2.02781e-08
2.02481e-08
2.0091e-08
2.02274e-08
2.00984e-08
1.99911e-08
2.02129e-08
1.97678e-08
2.20543e-08
2.81433e-08
4.59778e-08
4.87142e-08
3.17541e-08
2.63121e-08
2.36954e-08
2.41788e-08
2.40651e-08
2.40896e-08
2.43668e-08
2.40721e-08
2.43928e-08
2.43593e-08
2.41889e-08
2.43381e-08
2.42018e-08
2.4089e-08
2.43292e-08
2.38399e-08
2.61569e-08
3.17057e-08
4.77871e-08
5.21461e-08
3.58323e-08
3.06316e-08
2.79967e-08
2.84678e-08
2.83448e-08
2.83632e-08
2.86421e-08
2.83385e-08
2.86675e-08
2.86323e-08
2.84582e-08
2.86119e-08
2.84769e-08
2.83675e-08
2.86182e-08
2.81409e-08
3.04493e-08
3.56033e-08
5.03542e-08
3.28e-08
3.2632e-08
3.27817e-08
3.26564e-08
3.25586e-08
3.28104e-08
3.23975e-08
3.46506e-08
3.95295e-08
5.32219e-08
)
;

boundaryField
{
    fuel
    {
        type            fixedValue;
        value           nonuniform 0();
    }
    wall
    {
        type            zeroGradient;
    }
    outlet
    {
        type            zeroGradient;
    }
    frontAndBack
    {
        type            empty;
    }
    procBoundary0to1
    {
        type            processor;
        value           nonuniform List<scalar> 
21
(
5.57245e-08
3.99392e-08
3.48524e-08
3.22644e-08
3.26689e-08
3.25384e-08
3.25476e-08
3.28115e-08
3.25163e-08
3.28348e-08
3.28348e-08
3.6624e-08
3.64703e-08
3.66091e-08
3.64995e-08
3.64195e-08
3.66633e-08
3.63512e-08
3.85021e-08
4.3185e-08
5.59773e-08
)
;
    }
    procBoundary0to2
    {
        type            processor;
        value           nonuniform List<scalar> 
12
(
4.77844e-09
1.1804e-07
3.488e-08
8.06853e-09
5.41832e-09
4.99681e-09
4.90739e-09
4.89473e-09
4.90944e-09
4.89601e-09
4.91738e-09
4.91738e-09
)
;
    }
    procBoundary0to3
    {
        type            processor;
        value           nonuniform List<scalar> 10(4.74436e-09 4.73984e-09 4.73841e-09 4.737e-09 4.75086e-09 4.83815e-09 5.34021e-09 8.63366e-09 4.8861e-08 2.10777e-07);
    }
}


// ************************************************************************* //
