/*--------------------------------*- C++ -*----------------------------------*\
| =========                 |                                                 |
| \\      /  F ield         | OpenFOAM: The Open Source CFD Toolbox           |
|  \\    /   O peration     | Version:  dev                                   |
|   \\  /    A nd           | Web:      www.OpenFOAM.org                      |
|    \\/     M anipulation  |                                                 |
\*---------------------------------------------------------------------------*/
FoamFile
{
    version     2.0;
    format      ascii;
    class       volScalarField;
    location    "0.05";
    object      A2C2H22;
}
// * * * * * * * * * * * * * * * * * * * * * * * * * * * * * * * * * * * * * //

dimensions      [0 0 0 0 0 0 0];

internalField   nonuniform List<scalar> 
25
(
3.8276e-14
9.26147e-15
2.24992e-15
5.62726e-16
1.44042e-16
3.95674e-17
1.16824e-17
3.95382e-18
1.53736e-18
6.97295e-19
3.5823e-19
2.0684e-19
1.31801e-19
9.09213e-20
6.6859e-20
5.19889e-20
4.27608e-20
3.74265e-20
3.51503e-20
3.53602e-20
3.78419e-20
4.24942e-20
4.95228e-20
5.86124e-20
7.01261e-20
)
;

boundaryField
{
    wall
    {
        type            zeroGradient;
    }
    fuel
    {
        type            fixedValue;
        value           uniform 0;
    }
    outlet
    {
        type            inletOutlet;
        inletValue      nonuniform 0();
        value           nonuniform 0();
    }
    procBoundary0to1
    {
        type            processor;
        value           uniform 8.38941e-20;
    }
}


// ************************************************************************* //
