/*--------------------------------*- C++ -*----------------------------------*\
| =========                 |                                                 |
| \\      /  F ield         | OpenFOAM: The Open Source CFD Toolbox           |
|  \\    /   O peration     | Version:  dev                                   |
|   \\  /    A nd           | Web:      www.OpenFOAM.org                      |
|    \\/     M anipulation  |                                                 |
\*---------------------------------------------------------------------------*/
FoamFile
{
    version     2.0;
    format      ascii;
    class       volScalarField;
    location    "0.05";
    object      A2C2HB;
}
// * * * * * * * * * * * * * * * * * * * * * * * * * * * * * * * * * * * * * //

dimensions      [0 0 0 0 0 0 0];

internalField   nonuniform List<scalar> 
25
(
7.58089e-11
1.95105e-11
5.17464e-12
1.43085e-12
4.05407e-13
1.2024e-13
3.6714e-14
1.2197e-14
4.48047e-15
1.91442e-15
9.53864e-16
5.55967e-16
3.68892e-16
2.69586e-16
2.11633e-16
1.7625e-16
1.55537e-16
1.46305e-16
1.47649e-16
1.59801e-16
1.84145e-16
2.22785e-16
2.80444e-16
3.5818e-16
4.62622e-16
)
;

boundaryField
{
    wall
    {
        type            zeroGradient;
    }
    fuel
    {
        type            fixedValue;
        value           uniform 0;
    }
    outlet
    {
        type            inletOutlet;
        inletValue      nonuniform 0();
        value           nonuniform 0();
    }
    procBoundary0to1
    {
        type            processor;
        value           uniform 5.99643e-16;
    }
}


// ************************************************************************* //
