/*--------------------------------*- C++ -*----------------------------------*\
| =========                 |                                                 |
| \\      /  F ield         | OpenFOAM: The Open Source CFD Toolbox           |
|  \\    /   O peration     | Version:  dev                                   |
|   \\  /    A nd           | Web:      www.OpenFOAM.org                      |
|    \\/     M anipulation  |                                                 |
\*---------------------------------------------------------------------------*/
FoamFile
{
    version     2.0;
    format      ascii;
    class       volScalarField;
    location    "0.05";
    object      A2R5-;
}
// * * * * * * * * * * * * * * * * * * * * * * * * * * * * * * * * * * * * * //

dimensions      [0 0 0 0 0 0 0];

internalField   nonuniform List<scalar> 
2014
(
1.07436e-08
1.07934e-08
1.08409e-08
1.08653e-08
1.08738e-08
1.08784e-08
1.0876e-08
1.08762e-08
1.08737e-08
1.08736e-08
1.0872e-08
1.08721e-08
1.08711e-08
1.08712e-08
1.08706e-08
1.08708e-08
1.08704e-08
1.08706e-08
1.08703e-08
1.08704e-08
1.08703e-08
1.08704e-08
1.08703e-08
1.08703e-08
1.08703e-08
1.08703e-08
1.08703e-08
1.08703e-08
1.08704e-08
1.08703e-08
1.08704e-08
1.08703e-08
1.08706e-08
1.08704e-08
1.08708e-08
1.08706e-08
1.08712e-08
1.08711e-08
1.08721e-08
1.08721e-08
1.08736e-08
1.08737e-08
1.08762e-08
1.0876e-08
1.08784e-08
1.08738e-08
1.08653e-08
1.08409e-08
1.07934e-08
1.07436e-08
1.04905e-08
1.05398e-08
1.05862e-08
1.061e-08
1.06183e-08
1.06227e-08
1.06204e-08
1.06205e-08
1.06179e-08
1.06178e-08
1.06162e-08
1.06162e-08
1.06153e-08
1.06154e-08
1.06147e-08
1.06149e-08
1.06145e-08
1.06147e-08
1.06144e-08
1.06146e-08
1.06144e-08
1.06145e-08
1.06144e-08
1.06144e-08
1.06144e-08
1.06144e-08
1.06144e-08
1.06144e-08
1.06145e-08
1.06144e-08
1.06146e-08
1.06144e-08
1.06147e-08
1.06145e-08
1.06149e-08
1.06148e-08
1.06154e-08
1.06153e-08
1.06162e-08
1.06162e-08
1.06178e-08
1.06179e-08
1.06205e-08
1.06204e-08
1.06227e-08
1.06183e-08
1.061e-08
1.05862e-08
1.05398e-08
1.04905e-08
1.0243e-08
1.02918e-08
1.03371e-08
1.03602e-08
1.03682e-08
1.03725e-08
1.03701e-08
1.03702e-08
1.03676e-08
1.03674e-08
1.03658e-08
1.03658e-08
1.03648e-08
1.03649e-08
1.03643e-08
1.03644e-08
1.03641e-08
1.03642e-08
1.0364e-08
1.03641e-08
1.03639e-08
1.0364e-08
1.03639e-08
1.0364e-08
1.03639e-08
1.03639e-08
1.0364e-08
1.03639e-08
1.0364e-08
1.03639e-08
1.03641e-08
1.0364e-08
1.03642e-08
1.03641e-08
1.03644e-08
1.03643e-08
1.03649e-08
1.03648e-08
1.03658e-08
1.03658e-08
1.03674e-08
1.03676e-08
1.03702e-08
1.03701e-08
1.03725e-08
1.03682e-08
1.03602e-08
1.03371e-08
1.02919e-08
1.0243e-08
1.00009e-08
1.00493e-08
1.00932e-08
1.01157e-08
1.01234e-08
1.01276e-08
1.01252e-08
1.01251e-08
1.01226e-08
1.01223e-08
1.01207e-08
1.01207e-08
1.01197e-08
1.01198e-08
1.01192e-08
1.01193e-08
1.01189e-08
1.01191e-08
1.01188e-08
1.01189e-08
1.01188e-08
1.01188e-08
1.01187e-08
1.01188e-08
1.01188e-08
1.01188e-08
1.01188e-08
1.01188e-08
1.01188e-08
1.01188e-08
1.01189e-08
1.01188e-08
1.01191e-08
1.01189e-08
1.01193e-08
1.01192e-08
1.01198e-08
1.01197e-08
1.01207e-08
1.01208e-08
1.01223e-08
1.01226e-08
1.01251e-08
1.01252e-08
1.01276e-08
1.01234e-08
1.01157e-08
1.00932e-08
1.00493e-08
1.00009e-08
9.76408e-09
9.81209e-09
9.85465e-09
9.87648e-09
9.88385e-09
9.88781e-09
9.88536e-09
9.88523e-09
9.88269e-09
9.88239e-09
9.8808e-09
9.88072e-09
9.87974e-09
9.87978e-09
9.87917e-09
9.87929e-09
9.87891e-09
9.87906e-09
9.87882e-09
9.87893e-09
9.87877e-09
9.87884e-09
9.87874e-09
9.87878e-09
9.87876e-09
9.87876e-09
9.87878e-09
9.87875e-09
9.87884e-09
9.87878e-09
9.87893e-09
9.87882e-09
9.87906e-09
9.87891e-09
9.87929e-09
9.87918e-09
9.87978e-09
9.87975e-09
9.88072e-09
9.88081e-09
9.88239e-09
9.8827e-09
9.88523e-09
9.88536e-09
9.88781e-09
9.88385e-09
9.87648e-09
9.85465e-09
9.8121e-09
9.76408e-09
9.53244e-09
9.57999e-09
9.62115e-09
9.64229e-09
9.6493e-09
9.65308e-09
9.65059e-09
9.65038e-09
9.64784e-09
9.64748e-09
9.64589e-09
9.64578e-09
9.6448e-09
9.64482e-09
9.64422e-09
9.64432e-09
9.64394e-09
9.64408e-09
9.64385e-09
9.64395e-09
9.6438e-09
9.64386e-09
9.64377e-09
9.64381e-09
9.64378e-09
9.64378e-09
9.64381e-09
9.64377e-09
9.64386e-09
9.6438e-09
9.64395e-09
9.64385e-09
9.64409e-09
9.64395e-09
9.64433e-09
9.64423e-09
9.64483e-09
9.64481e-09
9.64578e-09
9.6459e-09
9.64748e-09
9.64784e-09
9.65038e-09
9.65059e-09
9.65308e-09
9.6493e-09
9.64228e-09
9.62115e-09
9.58e-09
9.53245e-09
9.30586e-09
9.3529e-09
9.3926e-09
9.41303e-09
9.41967e-09
9.42326e-09
9.42073e-09
9.42044e-09
9.41789e-09
9.41748e-09
9.4159e-09
9.41575e-09
9.41477e-09
9.41478e-09
9.41418e-09
9.41427e-09
9.41389e-09
9.41403e-09
9.4138e-09
9.41389e-09
9.41374e-09
9.4138e-09
9.41371e-09
9.41375e-09
9.41372e-09
9.41372e-09
9.41375e-09
9.41372e-09
9.4138e-09
9.41375e-09
9.4139e-09
9.4138e-09
9.41403e-09
9.4139e-09
9.41428e-09
9.41418e-09
9.41478e-09
9.41478e-09
9.41576e-09
9.41591e-09
9.41749e-09
9.4179e-09
9.42044e-09
9.42073e-09
9.42326e-09
9.41967e-09
9.41303e-09
9.3926e-09
9.3529e-09
9.30587e-09
9.08421e-09
9.13068e-09
9.16889e-09
9.1886e-09
9.19486e-09
9.19824e-09
9.19567e-09
9.1953e-09
9.19275e-09
9.19229e-09
9.19071e-09
9.19053e-09
9.18955e-09
9.18954e-09
9.18894e-09
9.18902e-09
9.18865e-09
9.18878e-09
9.18855e-09
9.18864e-09
9.18849e-09
9.18855e-09
9.18846e-09
9.1885e-09
9.18847e-09
9.18847e-09
9.1885e-09
9.18846e-09
9.18855e-09
9.1885e-09
9.18864e-09
9.18855e-09
9.18878e-09
9.18866e-09
9.18903e-09
9.18895e-09
9.18955e-09
9.18956e-09
9.19053e-09
9.19072e-09
9.1923e-09
9.19275e-09
9.1953e-09
9.19567e-09
9.19824e-09
9.19486e-09
9.1886e-09
9.16889e-09
9.13068e-09
9.08422e-09
8.86739e-09
8.91321e-09
8.94991e-09
8.96889e-09
8.97475e-09
8.97792e-09
8.97531e-09
8.97485e-09
8.97231e-09
8.9718e-09
8.97021e-09
8.97001e-09
8.96903e-09
8.969e-09
8.96841e-09
8.96848e-09
8.96811e-09
8.96823e-09
8.968e-09
8.96809e-09
8.96794e-09
8.968e-09
8.96791e-09
8.96795e-09
8.96792e-09
8.96792e-09
8.96795e-09
8.96791e-09
8.968e-09
8.96795e-09
8.96809e-09
8.968e-09
8.96823e-09
8.96811e-09
8.96849e-09
8.96841e-09
8.96901e-09
8.96904e-09
8.97001e-09
8.97022e-09
8.9718e-09
8.97231e-09
8.97485e-09
8.97531e-09
8.97792e-09
8.97475e-09
8.96889e-09
8.94991e-09
8.91321e-09
8.8674e-09
8.65529e-09
8.70037e-09
8.73555e-09
8.7538e-09
8.75924e-09
8.7622e-09
8.75954e-09
8.759e-09
8.75646e-09
8.7559e-09
8.75432e-09
8.75408e-09
8.75311e-09
8.75306e-09
8.75247e-09
8.75253e-09
8.75217e-09
8.75228e-09
8.75205e-09
8.75214e-09
8.75199e-09
8.75205e-09
8.75196e-09
8.75199e-09
8.75197e-09
8.75197e-09
8.752e-09
8.75196e-09
8.75205e-09
8.752e-09
8.75214e-09
8.75206e-09
8.75228e-09
8.75217e-09
8.75254e-09
8.75248e-09
8.75307e-09
8.75312e-09
8.75409e-09
8.75433e-09
8.75591e-09
8.75646e-09
8.759e-09
8.75954e-09
8.7622e-09
8.75924e-09
8.7538e-09
8.73555e-09
8.70037e-09
8.65529e-09
8.4478e-09
8.49204e-09
8.5257e-09
8.54322e-09
8.54824e-09
8.55098e-09
8.54827e-09
8.54765e-09
8.5451e-09
8.5445e-09
8.54292e-09
8.54266e-09
8.54169e-09
8.54163e-09
8.54104e-09
8.54109e-09
8.54072e-09
8.54083e-09
8.54061e-09
8.54069e-09
8.54055e-09
8.5406e-09
8.54051e-09
8.54055e-09
8.54052e-09
8.54052e-09
8.54055e-09
8.54052e-09
8.5406e-09
8.54055e-09
8.54069e-09
8.54061e-09
8.54083e-09
8.54073e-09
8.5411e-09
8.54104e-09
8.54163e-09
8.5417e-09
8.54266e-09
8.54293e-09
8.54451e-09
8.54511e-09
8.54765e-09
8.54827e-09
8.55097e-09
8.54824e-09
8.54322e-09
8.5257e-09
8.49204e-09
8.4478e-09
8.24483e-09
8.2881e-09
8.32027e-09
8.33706e-09
8.34164e-09
8.34415e-09
8.3414e-09
8.3407e-09
8.33815e-09
8.33751e-09
8.33593e-09
8.33564e-09
8.33467e-09
8.3346e-09
8.33401e-09
8.33405e-09
8.33369e-09
8.33379e-09
8.33357e-09
8.33365e-09
8.33351e-09
8.33356e-09
8.33347e-09
8.3335e-09
8.33348e-09
8.33348e-09
8.3335e-09
8.33348e-09
8.33356e-09
8.33351e-09
8.33365e-09
8.33357e-09
8.3338e-09
8.3337e-09
8.33406e-09
8.33402e-09
8.3346e-09
8.33468e-09
8.33564e-09
8.33594e-09
8.33751e-09
8.33816e-09
8.3407e-09
8.3414e-09
8.34415e-09
8.34164e-09
8.33706e-09
8.32027e-09
8.28811e-09
8.24483e-09
8.04627e-09
8.08846e-09
8.11916e-09
8.13521e-09
8.13936e-09
8.14163e-09
8.13883e-09
8.13805e-09
8.13551e-09
8.13483e-09
8.13325e-09
8.13293e-09
8.13197e-09
8.13188e-09
8.1313e-09
8.13133e-09
8.13097e-09
8.13107e-09
8.13085e-09
8.13092e-09
8.13078e-09
8.13083e-09
8.13075e-09
8.13078e-09
8.13075e-09
8.13075e-09
8.13078e-09
8.13075e-09
8.13083e-09
8.13079e-09
8.13093e-09
8.13085e-09
8.13107e-09
8.13098e-09
8.13134e-09
8.1313e-09
8.13189e-09
8.13198e-09
8.13294e-09
8.13326e-09
8.13483e-09
8.13552e-09
8.13806e-09
8.13884e-09
8.14163e-09
8.13936e-09
8.13521e-09
8.11916e-09
8.08846e-09
8.04628e-09
7.85203e-09
7.89301e-09
7.92228e-09
7.93761e-09
7.94129e-09
7.94333e-09
7.94049e-09
7.93963e-09
7.93709e-09
7.93636e-09
7.93479e-09
7.93445e-09
7.93349e-09
7.93339e-09
7.93281e-09
7.93283e-09
7.93248e-09
7.93257e-09
7.93235e-09
7.93242e-09
7.93228e-09
7.93233e-09
7.93225e-09
7.93227e-09
7.93225e-09
7.93225e-09
7.93228e-09
7.93225e-09
7.93233e-09
7.93228e-09
7.93242e-09
7.93235e-09
7.93257e-09
7.93248e-09
7.93284e-09
7.93281e-09
7.93339e-09
7.9335e-09
7.93445e-09
7.9348e-09
7.93637e-09
7.93709e-09
7.93963e-09
7.94049e-09
7.94333e-09
7.94129e-09
7.93761e-09
7.92228e-09
7.89301e-09
7.85203e-09
7.66197e-09
7.70166e-09
7.72952e-09
7.74414e-09
7.74734e-09
7.74915e-09
7.74627e-09
7.74533e-09
7.7428e-09
7.74203e-09
7.74046e-09
7.7401e-09
7.73915e-09
7.73903e-09
7.73845e-09
7.73847e-09
7.73812e-09
7.7382e-09
7.73798e-09
7.73805e-09
7.73791e-09
7.73796e-09
7.73788e-09
7.73791e-09
7.73788e-09
7.73788e-09
7.73791e-09
7.73788e-09
7.73796e-09
7.73792e-09
7.73805e-09
7.73798e-09
7.7382e-09
7.73812e-09
7.73847e-09
7.73846e-09
7.73903e-09
7.73915e-09
7.7401e-09
7.74047e-09
7.74203e-09
7.7428e-09
7.74533e-09
7.74627e-09
7.74915e-09
7.74734e-09
7.74414e-09
7.72952e-09
7.70167e-09
7.66198e-09
7.47601e-09
7.51434e-09
7.54081e-09
7.55473e-09
7.55742e-09
7.55901e-09
7.55608e-09
7.55507e-09
7.55254e-09
7.55174e-09
7.55017e-09
7.54979e-09
7.54884e-09
7.54871e-09
7.54814e-09
7.54815e-09
7.5478e-09
7.54788e-09
7.54766e-09
7.54773e-09
7.54759e-09
7.54764e-09
7.54756e-09
7.54758e-09
7.54756e-09
7.54756e-09
7.54759e-09
7.54756e-09
7.54764e-09
7.5476e-09
7.54773e-09
7.54767e-09
7.54788e-09
7.5478e-09
7.54815e-09
7.54815e-09
7.54872e-09
7.54885e-09
7.54979e-09
7.55018e-09
7.55174e-09
7.55255e-09
7.55507e-09
7.55609e-09
7.55901e-09
7.55742e-09
7.55473e-09
7.54081e-09
7.51434e-09
7.47601e-09
7.29402e-09
7.33094e-09
7.35605e-09
7.36927e-09
7.37145e-09
7.37282e-09
7.36985e-09
7.36876e-09
7.36624e-09
7.3654e-09
7.36384e-09
7.36344e-09
7.3625e-09
7.36235e-09
7.36179e-09
7.36179e-09
7.36144e-09
7.36151e-09
7.3613e-09
7.36137e-09
7.36123e-09
7.36127e-09
7.3612e-09
7.36122e-09
7.3612e-09
7.3612e-09
7.36122e-09
7.3612e-09
7.36127e-09
7.36123e-09
7.36137e-09
7.3613e-09
7.36152e-09
7.36145e-09
7.36179e-09
7.36179e-09
7.36236e-09
7.3625e-09
7.36344e-09
7.36385e-09
7.3654e-09
7.36624e-09
7.36876e-09
7.36985e-09
7.37282e-09
7.37145e-09
7.36927e-09
7.35605e-09
7.33094e-09
7.29403e-09
7.11591e-09
7.15137e-09
7.17516e-09
7.18768e-09
7.18933e-09
7.19048e-09
7.18748e-09
7.18632e-09
7.1838e-09
7.18293e-09
7.18138e-09
7.18096e-09
7.18002e-09
7.17986e-09
7.1793e-09
7.1793e-09
7.17896e-09
7.17902e-09
7.17881e-09
7.17887e-09
7.17874e-09
7.17878e-09
7.1787e-09
7.17873e-09
7.17871e-09
7.17871e-09
7.17873e-09
7.17871e-09
7.17878e-09
7.17874e-09
7.17887e-09
7.17881e-09
7.17902e-09
7.17896e-09
7.1793e-09
7.17931e-09
7.17987e-09
7.18003e-09
7.18096e-09
7.18139e-09
7.18293e-09
7.18381e-09
7.18632e-09
7.18748e-09
7.19048e-09
7.18933e-09
7.18768e-09
7.17516e-09
7.15138e-09
7.11591e-09
6.94156e-09
6.97554e-09
6.99809e-09
7.00988e-09
7.01099e-09
7.01192e-09
7.00888e-09
7.00765e-09
7.00515e-09
7.00424e-09
7.0027e-09
7.00226e-09
7.00133e-09
7.00116e-09
7.0006e-09
7.00059e-09
7.00025e-09
7.00031e-09
7.00011e-09
7.00017e-09
7.00004e-09
7.00007e-09
7e-09
7.00002e-09
7e-09
7e-09
7.00002e-09
7e-09
7.00008e-09
7.00004e-09
7.00017e-09
7.00011e-09
7.00032e-09
7.00026e-09
7.0006e-09
7.00061e-09
7.00117e-09
7.00134e-09
7.00226e-09
7.00271e-09
7.00424e-09
7.00515e-09
7.00765e-09
7.00888e-09
7.01192e-09
7.01099e-09
7.00988e-09
6.99809e-09
6.97554e-09
6.94156e-09
6.77087e-09
6.80333e-09
6.82476e-09
6.83578e-09
6.83633e-09
6.83704e-09
6.83397e-09
6.83267e-09
6.83018e-09
6.82924e-09
6.82772e-09
6.82725e-09
6.82633e-09
6.82616e-09
6.82561e-09
6.82559e-09
6.82525e-09
6.82531e-09
6.8251e-09
6.82516e-09
6.82503e-09
6.82507e-09
6.82499e-09
6.82502e-09
6.82499e-09
6.82499e-09
6.82502e-09
6.825e-09
6.82507e-09
6.82503e-09
6.82516e-09
6.82511e-09
6.82531e-09
6.82526e-09
6.82559e-09
6.82561e-09
6.82616e-09
6.82634e-09
6.82726e-09
6.82772e-09
6.82924e-09
6.83018e-09
6.83267e-09
6.83397e-09
6.83704e-09
6.83633e-09
6.83578e-09
6.82476e-09
6.80333e-09
6.77088e-09
6.60375e-09
6.63474e-09
6.65501e-09
6.66529e-09
6.66525e-09
6.66576e-09
6.66266e-09
6.6613e-09
6.65882e-09
6.65785e-09
6.65634e-09
6.65586e-09
6.65495e-09
6.65476e-09
6.65422e-09
6.65419e-09
6.65386e-09
6.65391e-09
6.65371e-09
6.65376e-09
6.65364e-09
6.65367e-09
6.6536e-09
6.65362e-09
6.6536e-09
6.6536e-09
6.65362e-09
6.6536e-09
6.65367e-09
6.65364e-09
6.65377e-09
6.65371e-09
6.65391e-09
6.65387e-09
6.6542e-09
6.65422e-09
6.65477e-09
6.65496e-09
6.65586e-09
6.65635e-09
6.65786e-09
6.65882e-09
6.6613e-09
6.66266e-09
6.66576e-09
6.66525e-09
6.66529e-09
6.65501e-09
6.63474e-09
6.60375e-09
6.44009e-09
6.46967e-09
6.48875e-09
6.49833e-09
6.49768e-09
6.49798e-09
6.49486e-09
6.49344e-09
6.49098e-09
6.48998e-09
6.48848e-09
6.48799e-09
6.48709e-09
6.48689e-09
6.48635e-09
6.48632e-09
6.486e-09
6.48604e-09
6.48584e-09
6.48589e-09
6.48577e-09
6.4858e-09
6.48573e-09
6.48575e-09
6.48573e-09
6.48573e-09
6.48575e-09
6.48573e-09
6.4858e-09
6.48577e-09
6.4859e-09
6.48585e-09
6.48604e-09
6.486e-09
6.48633e-09
6.48636e-09
6.4869e-09
6.4871e-09
6.48799e-09
6.48849e-09
6.48999e-09
6.49098e-09
6.49344e-09
6.49486e-09
6.49798e-09
6.49768e-09
6.49833e-09
6.48875e-09
6.46967e-09
6.44009e-09
6.27982e-09
6.30803e-09
6.3259e-09
6.33481e-09
6.33351e-09
6.33362e-09
6.33048e-09
6.329e-09
6.32656e-09
6.32554e-09
6.32406e-09
6.32355e-09
6.32266e-09
6.32245e-09
6.32192e-09
6.32188e-09
6.32157e-09
6.3216e-09
6.32141e-09
6.32146e-09
6.32133e-09
6.32137e-09
6.3213e-09
6.32132e-09
6.3213e-09
6.3213e-09
6.32132e-09
6.3213e-09
6.32137e-09
6.32134e-09
6.32146e-09
6.32141e-09
6.32161e-09
6.32157e-09
6.32189e-09
6.32193e-09
6.32246e-09
6.32266e-09
6.32355e-09
6.32406e-09
6.32554e-09
6.32656e-09
6.329e-09
6.33048e-09
6.33362e-09
6.33351e-09
6.33481e-09
6.32589e-09
6.30804e-09
6.27982e-09
6.12284e-09
6.14972e-09
6.16635e-09
6.17465e-09
6.17264e-09
6.17257e-09
6.16942e-09
6.16788e-09
6.16546e-09
6.16442e-09
6.16295e-09
6.16243e-09
6.16156e-09
6.16134e-09
6.16082e-09
6.16078e-09
6.16046e-09
6.1605e-09
6.16031e-09
6.16035e-09
6.16023e-09
6.16026e-09
6.16019e-09
6.16021e-09
6.16019e-09
6.16019e-09
6.16021e-09
6.16019e-09
6.16026e-09
6.16023e-09
6.16035e-09
6.16031e-09
6.1605e-09
6.16047e-09
6.16078e-09
6.16083e-09
6.16135e-09
6.16156e-09
6.16244e-09
6.16296e-09
6.16442e-09
6.16546e-09
6.16788e-09
6.16942e-09
6.17257e-09
6.17264e-09
6.17464e-09
6.16635e-09
6.14973e-09
6.12284e-09
5.96904e-09
5.99464e-09
6.01001e-09
6.01774e-09
6.01492e-09
6.0147e-09
6.01154e-09
6.00995e-09
6.00756e-09
6.0065e-09
6.00505e-09
6.00452e-09
6.00365e-09
6.00343e-09
6.00292e-09
6.00287e-09
6.00256e-09
6.00259e-09
6.0024e-09
6.00244e-09
6.00233e-09
6.00236e-09
6.00229e-09
6.00231e-09
6.00229e-09
6.00229e-09
6.00231e-09
6.00229e-09
6.00236e-09
6.00233e-09
6.00245e-09
6.00241e-09
6.00259e-09
6.00257e-09
6.00287e-09
6.00292e-09
6.00344e-09
6.00366e-09
6.00452e-09
6.00506e-09
6.0065e-09
6.00756e-09
6.00995e-09
6.01154e-09
6.0147e-09
6.01492e-09
6.01774e-09
6.01001e-09
5.99464e-09
5.96905e-09
5.81831e-09
5.84264e-09
5.85675e-09
5.86398e-09
5.86561e-09
5.86527e-09
5.86209e-09
5.86046e-09
5.85808e-09
5.85701e-09
5.85558e-09
5.85504e-09
5.85418e-09
5.85396e-09
5.85345e-09
5.8534e-09
5.8531e-09
5.85312e-09
5.85294e-09
5.85297e-09
5.85286e-09
5.85289e-09
5.85282e-09
5.85284e-09
5.85282e-09
5.85282e-09
5.85284e-09
5.85282e-09
5.85289e-09
5.85286e-09
5.85298e-09
5.85294e-09
5.85312e-09
5.8531e-09
5.8534e-09
5.85346e-09
5.85396e-09
5.85419e-09
5.85504e-09
5.85558e-09
5.85701e-09
5.85808e-09
5.86046e-09
5.86209e-09
5.86527e-09
5.86561e-09
5.86398e-09
5.85675e-09
5.84264e-09
5.81831e-09
5.67552e-09
5.6988e-09
5.71167e-09
5.71846e-09
5.71913e-09
5.7183e-09
5.71475e-09
5.71288e-09
5.71035e-09
5.70917e-09
5.70766e-09
5.70707e-09
5.70617e-09
5.70592e-09
5.70539e-09
5.70532e-09
5.70501e-09
5.70503e-09
5.70483e-09
5.70486e-09
5.70475e-09
5.70477e-09
5.7047e-09
5.70472e-09
5.7047e-09
5.7047e-09
5.70472e-09
5.70471e-09
5.70477e-09
5.70475e-09
5.70487e-09
5.70483e-09
5.70503e-09
5.70501e-09
5.70533e-09
5.7054e-09
5.70593e-09
5.70618e-09
5.70707e-09
5.70767e-09
5.70917e-09
5.71035e-09
5.71288e-09
5.71475e-09
5.7183e-09
5.71913e-09
5.71846e-09
5.71167e-09
5.6988e-09
5.67552e-09
5.53151e-09
5.55369e-09
5.56513e-09
5.57132e-09
5.57133e-09
5.57025e-09
5.56669e-09
5.56477e-09
5.56226e-09
5.56107e-09
5.55958e-09
5.55898e-09
5.55809e-09
5.55784e-09
5.55731e-09
5.55724e-09
5.55693e-09
5.55695e-09
5.55675e-09
5.55678e-09
5.55667e-09
5.55669e-09
5.55663e-09
5.55664e-09
5.55662e-09
5.55662e-09
5.55665e-09
5.55663e-09
5.55669e-09
5.55667e-09
5.55679e-09
5.55676e-09
5.55695e-09
5.55693e-09
5.55725e-09
5.55732e-09
5.55784e-09
5.5581e-09
5.55898e-09
5.55959e-09
5.56107e-09
5.56226e-09
5.56477e-09
5.56669e-09
5.57025e-09
5.57133e-09
5.57132e-09
5.56512e-09
5.55369e-09
5.53151e-09
5.38994e-09
5.41095e-09
5.42116e-09
5.42685e-09
5.42642e-09
5.42518e-09
5.42161e-09
5.41964e-09
5.41716e-09
5.41595e-09
5.41448e-09
5.41387e-09
5.413e-09
5.41274e-09
5.41222e-09
5.41215e-09
5.41184e-09
5.41185e-09
5.41166e-09
5.41169e-09
5.41158e-09
5.4116e-09
5.41154e-09
5.41155e-09
5.41153e-09
5.41153e-09
5.41155e-09
5.41154e-09
5.4116e-09
5.41158e-09
5.41169e-09
5.41167e-09
5.41185e-09
5.41185e-09
5.41215e-09
5.41223e-09
5.41274e-09
5.41301e-09
5.41388e-09
5.41449e-09
5.41595e-09
5.41716e-09
5.41964e-09
5.42161e-09
5.42517e-09
5.42642e-09
5.42685e-09
5.42116e-09
5.41095e-09
5.38994e-09
5.25114e-09
5.27096e-09
5.28003e-09
5.28519e-09
5.28435e-09
5.28295e-09
5.27938e-09
5.27736e-09
5.27491e-09
5.27369e-09
5.27224e-09
5.27162e-09
5.27077e-09
5.2705e-09
5.27e-09
5.26992e-09
5.26962e-09
5.26962e-09
5.26944e-09
5.26946e-09
5.26935e-09
5.26937e-09
5.26931e-09
5.26933e-09
5.26931e-09
5.26931e-09
5.26933e-09
5.26931e-09
5.26937e-09
5.26935e-09
5.26947e-09
5.26944e-09
5.26962e-09
5.26962e-09
5.26992e-09
5.27e-09
5.27051e-09
5.27078e-09
5.27163e-09
5.27225e-09
5.27369e-09
5.27491e-09
5.27736e-09
5.27938e-09
5.28295e-09
5.28435e-09
5.28519e-09
5.28003e-09
5.27096e-09
5.25114e-09
5.11496e-09
5.13362e-09
5.14155e-09
5.1462e-09
5.14498e-09
5.14342e-09
5.13985e-09
5.13779e-09
5.13537e-09
5.13414e-09
5.13272e-09
5.13209e-09
5.13125e-09
5.13098e-09
5.13049e-09
5.1304e-09
5.13011e-09
5.13011e-09
5.12993e-09
5.12995e-09
5.12984e-09
5.12986e-09
5.1298e-09
5.12982e-09
5.1298e-09
5.1298e-09
5.12982e-09
5.1298e-09
5.12986e-09
5.12984e-09
5.12995e-09
5.12993e-09
5.13011e-09
5.13011e-09
5.1304e-09
5.13049e-09
5.13099e-09
5.13126e-09
5.1321e-09
5.13272e-09
5.13414e-09
5.13537e-09
5.13779e-09
5.13985e-09
5.14342e-09
5.14498e-09
5.1462e-09
5.14155e-09
5.13361e-09
5.11496e-09
4.98567e-09
5.00331e-09
5.01017e-09
5.01435e-09
5.01276e-09
5.01106e-09
5.00747e-09
5.00537e-09
5.00297e-09
5.00173e-09
5.00033e-09
4.99971e-09
4.99888e-09
4.99861e-09
4.99812e-09
4.99803e-09
4.99775e-09
4.99774e-09
4.99756e-09
4.99759e-09
4.99748e-09
4.9975e-09
4.99744e-09
4.99745e-09
4.99743e-09
4.99743e-09
4.99745e-09
4.99744e-09
4.9975e-09
4.99748e-09
4.99759e-09
4.99757e-09
4.99775e-09
4.99775e-09
4.99804e-09
4.99813e-09
4.99861e-09
4.99889e-09
4.99971e-09
5.00034e-09
5.00173e-09
5.00297e-09
5.00537e-09
5.00747e-09
5.01105e-09
5.01276e-09
5.01435e-09
5.01016e-09
5.00331e-09
4.98566e-09
4.85899e-09
4.87565e-09
4.88145e-09
4.88518e-09
4.88324e-09
4.8814e-09
4.8778e-09
4.87566e-09
4.8732e-09
4.87185e-09
4.87038e-09
4.8697e-09
4.86883e-09
4.86853e-09
4.86802e-09
4.86792e-09
4.86762e-09
4.86761e-09
4.86742e-09
4.86744e-09
4.86732e-09
4.86734e-09
4.86728e-09
4.86729e-09
4.86727e-09
4.86727e-09
4.86729e-09
4.86728e-09
4.86734e-09
4.86733e-09
4.86744e-09
4.86742e-09
4.86761e-09
4.86762e-09
4.86793e-09
4.86803e-09
4.86854e-09
4.86884e-09
4.86971e-09
4.87038e-09
4.87186e-09
4.8732e-09
4.87566e-09
4.8778e-09
4.8814e-09
4.88324e-09
4.88518e-09
4.88145e-09
4.87565e-09
4.85899e-09
4.73132e-09
4.74698e-09
4.75176e-09
4.75488e-09
4.7525e-09
4.75043e-09
4.74676e-09
4.74453e-09
4.74205e-09
4.74067e-09
4.7392e-09
4.7385e-09
4.73763e-09
4.73732e-09
4.73681e-09
4.73671e-09
4.7364e-09
4.73639e-09
4.7362e-09
4.73621e-09
4.7361e-09
4.73612e-09
4.73605e-09
4.73607e-09
4.73605e-09
4.73605e-09
4.73607e-09
4.73606e-09
4.73612e-09
4.7361e-09
4.73622e-09
4.7362e-09
4.73639e-09
4.73641e-09
4.73671e-09
4.73682e-09
4.73733e-09
4.73764e-09
4.73851e-09
4.7392e-09
4.74067e-09
4.74205e-09
4.74453e-09
4.74675e-09
4.75043e-09
4.7525e-09
4.75488e-09
4.75175e-09
4.74698e-09
4.73132e-09
4.60542e-09
4.61995e-09
4.62381e-09
4.62642e-09
4.62376e-09
4.62155e-09
4.61789e-09
4.61563e-09
4.61318e-09
4.6118e-09
4.61035e-09
4.60965e-09
4.6088e-09
4.60848e-09
4.60798e-09
4.60787e-09
4.60758e-09
4.60756e-09
4.60737e-09
4.60738e-09
4.60727e-09
4.60729e-09
4.60723e-09
4.60724e-09
4.60722e-09
4.60722e-09
4.60724e-09
4.60723e-09
4.60729e-09
4.60727e-09
4.60738e-09
4.60738e-09
4.60756e-09
4.60758e-09
4.60788e-09
4.60799e-09
4.60849e-09
4.6088e-09
4.60965e-09
4.61035e-09
4.6118e-09
4.61318e-09
4.61563e-09
4.61788e-09
4.62154e-09
4.62375e-09
4.62642e-09
4.6238e-09
4.61995e-09
4.60542e-09
4.48567e-09
4.49923e-09
4.50215e-09
4.50432e-09
4.50138e-09
4.49905e-09
4.49539e-09
4.4931e-09
4.49068e-09
4.4893e-09
4.48786e-09
4.48716e-09
4.48632e-09
4.48601e-09
4.48552e-09
4.4854e-09
4.48511e-09
4.48509e-09
4.4849e-09
4.48491e-09
4.4848e-09
4.48482e-09
4.48476e-09
4.48477e-09
4.48475e-09
4.48475e-09
4.48477e-09
4.48476e-09
4.48482e-09
4.48481e-09
4.48491e-09
4.48491e-09
4.48509e-09
4.48511e-09
4.48541e-09
4.48552e-09
4.48601e-09
4.48633e-09
4.48717e-09
4.48787e-09
4.4893e-09
4.49068e-09
4.4931e-09
4.49538e-09
4.49904e-09
4.50137e-09
4.50432e-09
4.50215e-09
4.49922e-09
4.48567e-09
4.36767e-09
4.3806e-09
4.38253e-09
4.384e-09
4.3804e-09
4.37775e-09
4.37389e-09
4.37146e-09
4.36896e-09
4.36752e-09
4.36605e-09
4.36532e-09
4.36446e-09
4.36413e-09
4.36363e-09
4.3635e-09
4.36321e-09
4.36318e-09
4.36299e-09
4.36299e-09
4.36288e-09
4.36289e-09
4.36283e-09
4.36284e-09
4.36282e-09
4.36282e-09
4.36284e-09
4.36283e-09
4.36289e-09
4.36288e-09
4.36299e-09
4.36299e-09
4.36318e-09
4.36321e-09
4.36351e-09
4.36363e-09
4.36414e-09
4.36447e-09
4.36532e-09
4.36606e-09
4.36752e-09
4.36896e-09
4.37146e-09
4.37389e-09
4.37775e-09
4.38039e-09
4.384e-09
4.38252e-09
4.38061e-09
4.36767e-09
4.25224e-09
4.26425e-09
4.26533e-09
4.26636e-09
4.26248e-09
4.25972e-09
4.25586e-09
4.2534e-09
4.25092e-09
4.24947e-09
4.24802e-09
4.24729e-09
4.24644e-09
4.24611e-09
4.24562e-09
4.24549e-09
4.2452e-09
4.24517e-09
4.24498e-09
4.24498e-09
4.24487e-09
4.24488e-09
4.24482e-09
4.24483e-09
4.24481e-09
4.24481e-09
4.24483e-09
4.24482e-09
4.24488e-09
4.24487e-09
4.24498e-09
4.24498e-09
4.24517e-09
4.2452e-09
4.2455e-09
4.24562e-09
4.24612e-09
4.24645e-09
4.2473e-09
4.24803e-09
4.24947e-09
4.25092e-09
4.2534e-09
4.25585e-09
4.25972e-09
4.26248e-09
4.26636e-09
4.26533e-09
4.26425e-09
4.25225e-09
4.13889e-09
4.14999e-09
4.15026e-09
4.15086e-09
4.14672e-09
4.14385e-09
4.13998e-09
4.1375e-09
4.13505e-09
4.13359e-09
4.13216e-09
4.13143e-09
4.13059e-09
4.13026e-09
4.12977e-09
4.12965e-09
4.12936e-09
4.12932e-09
4.12913e-09
4.12913e-09
4.12902e-09
4.12903e-09
4.12898e-09
4.12898e-09
4.12897e-09
4.12897e-09
4.12899e-09
4.12898e-09
4.12904e-09
4.12903e-09
4.12914e-09
4.12914e-09
4.12933e-09
4.12936e-09
4.12965e-09
4.12978e-09
4.13027e-09
4.1306e-09
4.13144e-09
4.13217e-09
4.1336e-09
4.13505e-09
4.1375e-09
4.13998e-09
4.14385e-09
4.14672e-09
4.15086e-09
4.15027e-09
4.15e-09
4.1389e-09
4.01541e-09
4.01541e-09
4.0153e-09
4.01531e-09
4.01525e-09
4.01526e-09
4.01524e-09
4.01524e-09
4.01526e-09
4.01525e-09
4.01531e-09
4.0153e-09
4.01541e-09
4.01542e-09
4.01561e-09
4.01564e-09
4.01593e-09
4.01606e-09
4.01654e-09
4.01688e-09
4.0177e-09
4.01843e-09
4.01984e-09
4.02129e-09
4.02372e-09
4.02622e-09
4.03008e-09
4.03306e-09
4.03746e-09
4.03728e-09
4.03778e-09
4.02757e-09
3.90091e-09
3.9009e-09
3.90101e-09
3.90101e-09
3.90121e-09
3.90125e-09
3.90154e-09
3.90167e-09
3.90216e-09
3.9025e-09
3.90332e-09
3.90407e-09
3.90549e-09
3.90697e-09
3.90942e-09
3.91201e-09
3.91597e-09
3.91913e-09
3.92398e-09
3.92433e-09
3.92562e-09
3.91617e-09
3.79551e-09
3.797e-09
3.79943e-09
3.80203e-09
3.80599e-09
3.80924e-09
3.81434e-09
3.81509e-09
3.81708e-09
3.80847e-09
)
;

boundaryField
{
    fuel
    {
        type            fixedValue;
        value           nonuniform 0();
    }
    wall
    {
        type            zeroGradient;
    }
    outlet
    {
        type            zeroGradient;
    }
    frontAndBack
    {
        type            empty;
    }
    procBoundary0to1
    {
        type            processor;
        value           nonuniform List<scalar> 
50
(
1.10025e-08
1.10528e-08
1.11013e-08
1.11262e-08
1.11349e-08
1.11396e-08
1.11373e-08
1.11376e-08
1.11351e-08
1.1135e-08
1.11335e-08
1.11335e-08
1.11326e-08
1.11327e-08
1.11321e-08
1.11323e-08
1.11319e-08
1.1132e-08
1.11318e-08
1.11319e-08
1.11318e-08
1.11318e-08
1.11317e-08
1.11318e-08
1.11318e-08
1.11318e-08
1.11318e-08
1.11317e-08
1.11318e-08
1.11318e-08
1.11319e-08
1.11318e-08
1.11321e-08
1.11319e-08
1.11323e-08
1.11321e-08
1.11327e-08
1.11326e-08
1.11335e-08
1.11335e-08
1.1135e-08
1.11351e-08
1.11376e-08
1.11373e-08
1.11396e-08
1.11349e-08
1.11262e-08
1.11013e-08
1.10528e-08
1.10025e-08
)
;
    }
    procBoundary0to2
    {
        type            processor;
        value           nonuniform List<scalar> 
53
(
4.02756e-09
4.03776e-09
4.03727e-09
4.03745e-09
4.03305e-09
4.03008e-09
4.02621e-09
4.02371e-09
4.02128e-09
4.01983e-09
4.01842e-09
4.01768e-09
4.01686e-09
4.01653e-09
4.01604e-09
4.01592e-09
4.01563e-09
4.0156e-09
4.0156e-09
3.901e-09
3.901e-09
3.90089e-09
3.9009e-09
3.90084e-09
3.90085e-09
3.90083e-09
3.90083e-09
3.90085e-09
3.90084e-09
3.90084e-09
3.79096e-09
3.79096e-09
3.79107e-09
3.79108e-09
3.79127e-09
3.79132e-09
3.7916e-09
3.79173e-09
3.79221e-09
3.79256e-09
3.79337e-09
3.79412e-09
3.79412e-09
3.68734e-09
3.68882e-09
3.69122e-09
3.69385e-09
3.6978e-09
3.70116e-09
3.70646e-09
3.70761e-09
3.71026e-09
3.70249e-09
)
;
    }
}


// ************************************************************************* //
