/*--------------------------------*- C++ -*----------------------------------*\
| =========                 |                                                 |
| \\      /  F ield         | OpenFOAM: The Open Source CFD Toolbox           |
|  \\    /   O peration     | Version:  dev                                   |
|   \\  /    A nd           | Web:      www.OpenFOAM.org                      |
|    \\/     M anipulation  |                                                 |
\*---------------------------------------------------------------------------*/
FoamFile
{
    version     2.0;
    format      ascii;
    class       volScalarField;
    location    "0.05";
    object      c-C6H7;
}
// * * * * * * * * * * * * * * * * * * * * * * * * * * * * * * * * * * * * * //

dimensions      [0 0 0 0 0 0 0];

internalField   nonuniform List<scalar> 
25
(
2.72309e-10
7.66422e-11
1.95784e-11
4.85706e-12
1.17061e-12
2.86183e-13
6.93032e-14
1.7296e-14
4.3767e-15
1.15041e-15
3.08154e-16
8.55031e-17
2.46577e-17
7.3975e-18
2.31959e-18
7.75858e-19
2.9357e-19
1.40289e-19
9.3937e-20
8.3771e-20
8.92073e-20
1.0459e-19
1.30514e-19
1.68572e-19
2.26081e-19
)
;

boundaryField
{
    wall
    {
        type            zeroGradient;
    }
    fuel
    {
        type            fixedValue;
        value           uniform 0;
    }
    outlet
    {
        type            inletOutlet;
        inletValue      nonuniform 0();
        value           nonuniform 0();
    }
    procBoundary0to1
    {
        type            processor;
        value           uniform 3.12682e-19;
    }
}


// ************************************************************************* //
