/*--------------------------------*- C++ -*----------------------------------*\
| =========                 |                                                 |
| \\      /  F ield         | OpenFOAM: The Open Source CFD Toolbox           |
|  \\    /   O peration     | Version:  dev                                   |
|   \\  /    A nd           | Web:      www.OpenFOAM.org                      |
|    \\/     M anipulation  |                                                 |
\*---------------------------------------------------------------------------*/
FoamFile
{
    version     2.0;
    format      ascii;
    class       volScalarField;
    location    "0.05";
    object      C2H4;
}
// * * * * * * * * * * * * * * * * * * * * * * * * * * * * * * * * * * * * * //

dimensions      [0 0 0 0 0 0 0];

internalField   nonuniform List<scalar> 
250
(
1.26911e-05
1.26896e-05
1.26875e-05
1.26887e-05
1.26987e-05
1.27455e-05
1.2976e-05
1.38269e-05
1.75546e-05
4.19502e-05
1.2692e-05
1.26887e-05
1.26884e-05
1.26878e-05
1.26958e-05
1.27426e-05
1.29522e-05
1.37561e-05
1.70548e-05
3.31816e-05
2.64871e-05
1.66321e-05
1.37569e-05
1.29978e-05
1.28038e-05
1.27559e-05
1.27483e-05
1.27538e-05
1.27481e-05
1.27584e-05
1.27578e-05
1.27522e-05
1.27542e-05
1.27512e-05
1.27567e-05
1.28036e-05
1.29894e-05
1.37494e-05
1.6679e-05
2.7876e-05
2.3578e-05
1.63778e-05
1.38294e-05
1.31055e-05
1.29398e-05
1.28946e-05
1.28889e-05
1.29e-05
1.28892e-05
1.29046e-05
1.29036e-05
1.2895e-05
1.28999e-05
1.2894e-05
1.28961e-05
1.29434e-05
1.31014e-05
1.38215e-05
1.64285e-05
2.4623e-05
2.18213e-05
1.62393e-05
1.40012e-05
1.33066e-05
1.31751e-05
1.31327e-05
1.31295e-05
1.31478e-05
1.31302e-05
1.31526e-05
1.31511e-05
1.31386e-05
1.31471e-05
1.31374e-05
1.31352e-05
1.31834e-05
1.33083e-05
1.39934e-05
1.6299e-05
2.26223e-05
2.08087e-05
1.6267e-05
1.43036e-05
1.36304e-05
1.3541e-05
1.35016e-05
1.35015e-05
1.35296e-05
1.35027e-05
1.35348e-05
1.35324e-05
1.35146e-05
1.35281e-05
1.35133e-05
1.35054e-05
1.35552e-05
1.36395e-05
1.42962e-05
1.63362e-05
2.14367e-05
2.03373e-05
1.64897e-05
1.4784e-05
1.41213e-05
1.40859e-05
1.40496e-05
1.40535e-05
1.4095e-05
1.4055e-05
1.41009e-05
1.40972e-05
1.40719e-05
1.40924e-05
1.40706e-05
1.40548e-05
1.41078e-05
1.41398e-05
1.47772e-05
1.65733e-05
2.08438e-05
2.03335e-05
1.69555e-05
1.55183e-05
1.48507e-05
1.48865e-05
1.48528e-05
1.48619e-05
1.49229e-05
1.48637e-05
1.49297e-05
1.49241e-05
1.48878e-05
1.49183e-05
1.48865e-05
1.48598e-05
1.49185e-05
1.48793e-05
1.55121e-05
1.70588e-05
2.07568e-05
2.08221e-05
1.77696e-05
1.66329e-05
1.59636e-05
1.61555e-05
1.61397e-05
1.61588e-05
1.62497e-05
1.61601e-05
1.62599e-05
1.62505e-05
1.61968e-05
1.62417e-05
1.61948e-05
1.615e-05
1.62068e-05
1.60177e-05
1.66274e-05
1.79034e-05
2.11926e-05
2.19301e-05
1.91039e-05
1.83417e-05
1.76223e-05
1.79827e-05
1.7975e-05
1.80059e-05
1.81422e-05
1.80055e-05
1.8156e-05
1.81408e-05
1.80602e-05
1.81287e-05
1.80593e-05
1.79887e-05
1.80576e-05
1.7701e-05
1.83365e-05
1.92852e-05
2.22743e-05
2.39204e-05
2.12538e-05
2.10089e-05
2.01973e-05
2.08195e-05
2.08245e-05
2.08736e-05
2.10815e-05
2.08684e-05
2.1101e-05
2.10761e-05
2.09525e-05
2.10584e-05
2.09543e-05
2.08429e-05
2.09314e-05
2.0318e-05
2.10027e-05
2.15098e-05
2.42641e-05
2.72512e-05
2.47123e-05
2.52279e-05
2.42619e-05
2.52839e-05
2.53072e-05
2.53834e-05
2.57021e-05
2.5368e-05
2.57308e-05
2.569e-05
2.54984e-05
2.5663e-05
2.55064e-05
2.53318e-05
2.54523e-05
2.4447e-05
2.5218e-05
2.50836e-05
2.7622e-05
3.26449e-05
3.02491e-05
3.18912e-05
3.06886e-05
3.2295e-05
3.23426e-05
3.24569e-05
3.29385e-05
3.24218e-05
3.29811e-05
3.29153e-05
3.26221e-05
3.2874e-05
3.26424e-05
3.23744e-05
3.25449e-05
3.09659e-05
3.18726e-05
3.07914e-05
3.30726e-05
4.39499e-05
4.35169e-05
4.38881e-05
4.35586e-05
4.31634e-05
4.34063e-05
4.10504e-05
4.21483e-05
3.97229e-05
4.16313e-05
)
;

boundaryField
{
    fuel
    {
        type            fixedValue;
        value           nonuniform 0();
    }
    wall
    {
        type            zeroGradient;
    }
    outlet
    {
        type            inletOutlet;
        inletValue      uniform 0;
        value           nonuniform List<scalar> 
25
(
2.64871e-05
2.3578e-05
2.18213e-05
2.08087e-05
2.03373e-05
2.03335e-05
2.08221e-05
2.19301e-05
2.39204e-05
2.72512e-05
3.26449e-05
4.19502e-05
3.31816e-05
2.7876e-05
2.4623e-05
2.26223e-05
2.14367e-05
2.08438e-05
2.07568e-05
2.11926e-05
2.22743e-05
2.42641e-05
2.7622e-05
3.30726e-05
4.16313e-05
)
;
    }
    frontAndBack
    {
        type            empty;
    }
    procBoundary0to1
    {
        type            processor;
        value           nonuniform List<scalar> 
21
(
4.11371e-05
3.89755e-05
4.21794e-05
4.0658e-05
4.30542e-05
4.31266e-05
4.32929e-05
4.39893e-05
4.3223e-05
4.40515e-05
4.40515e-05
6.00553e-05
5.94493e-05
5.9967e-05
5.95254e-05
5.89776e-05
5.93133e-05
5.60272e-05
5.73399e-05
5.32063e-05
5.4543e-05
)
;
    }
    procBoundary0to2
    {
        type            processor;
        value           nonuniform List<scalar> 
12
(
1.26917e-05
3.15993e-05
1.70268e-05
1.37652e-05
1.29642e-05
1.2746e-05
1.26958e-05
1.26866e-05
1.26878e-05
1.26861e-05
1.26924e-05
1.26924e-05
)
;
    }
    procBoundary0to3
    {
        type            processor;
        value           nonuniform List<scalar> 10(1.27447e-05 1.27448e-05 1.27411e-05 1.27438e-05 1.27552e-05 1.28021e-05 1.30588e-05 1.39682e-05 1.81994e-05 5.71253e-05);
    }
}


// ************************************************************************* //
