/*--------------------------------*- C++ -*----------------------------------*\
| =========                 |                                                 |
| \\      /  F ield         | OpenFOAM: The Open Source CFD Toolbox           |
|  \\    /   O peration     | Version:  dev                                   |
|   \\  /    A nd           | Web:      www.OpenFOAM.org                      |
|    \\/     M anipulation  |                                                 |
\*---------------------------------------------------------------------------*/
FoamFile
{
    version     2.0;
    format      ascii;
    class       volScalarField;
    location    "0.05";
    object      CH2(S);
}
// * * * * * * * * * * * * * * * * * * * * * * * * * * * * * * * * * * * * * //

dimensions      [0 0 0 0 0 0 0];

internalField   nonuniform List<scalar> 
250
(
2.24425e-08
2.26981e-08
2.23747e-08
2.29317e-08
2.23863e-08
2.33552e-08
2.22545e-08
2.17112e-08
1.70295e-08
1.44115e-08
2.03444e-08
2.06121e-08
2.02739e-08
2.08499e-08
2.02917e-08
2.1285e-08
2.0228e-08
1.99115e-08
1.55449e-08
1.25966e-08
5.44595e-09
1.06621e-08
1.71413e-08
1.79462e-08
1.86029e-08
1.83055e-08
1.83888e-08
1.82567e-08
1.83113e-08
1.82793e-08
1.81809e-08
1.84586e-08
1.81073e-08
1.86977e-08
1.81277e-08
1.91387e-08
1.81301e-08
1.80195e-08
1.40645e-08
1.0977e-08
5.01955e-09
9.70653e-09
1.53656e-08
1.58339e-08
1.64187e-08
1.61051e-08
1.61899e-08
1.60539e-08
1.61119e-08
1.60784e-08
1.59766e-08
1.62611e-08
1.58999e-08
1.64976e-08
1.59201e-08
1.69369e-08
1.59835e-08
1.60791e-08
1.25247e-08
9.53679e-09
4.65289e-09
8.72169e-09
1.35225e-08
1.37047e-08
1.42167e-08
1.38951e-08
1.39801e-08
1.38426e-08
1.39035e-08
1.38693e-08
1.37651e-08
1.40525e-08
1.36858e-08
1.42819e-08
1.37043e-08
1.47099e-08
1.38207e-08
1.40955e-08
1.11404e-08
8.25e-09
4.25929e-09
7.66647e-09
1.16451e-08
1.15984e-08
1.20398e-08
1.17183e-08
1.18023e-08
1.16653e-08
1.17291e-08
1.16954e-08
1.15888e-08
1.18755e-08
1.15078e-08
1.2093e-08
1.15243e-08
1.24982e-08
1.16842e-08
1.21018e-08
9.68865e-09
7.0799e-09
3.80623e-09
6.56584e-09
9.77677e-09
9.56368e-09
9.94042e-09
9.6244e-09
9.70813e-09
9.57057e-09
9.64048e-09
9.60769e-09
9.49683e-09
9.78135e-09
9.41712e-09
9.98282e-09
9.43222e-09
1.03518e-08
9.62471e-09
1.01401e-08
8.11879e-09
5.99783e-09
3.39446e-09
5.45694e-09
7.96959e-09
7.65483e-09
7.9019e-09
7.59205e-09
7.68206e-09
7.53367e-09
7.61962e-09
7.57281e-09
7.46062e-09
7.73866e-09
7.39598e-09
7.92847e-09
7.40768e-09
8.32799e-09
7.6992e-09
8.26036e-09
6.72626e-09
4.98973e-09
2.94097e-09
4.38246e-09
6.28837e-09
5.80506e-09
6.0035e-09
5.78653e-09
5.83482e-09
5.75307e-09
5.78013e-09
5.75565e-09
5.69525e-09
5.88154e-09
5.64325e-09
6.0447e-09
5.65367e-09
6.35844e-09
5.8128e-09
6.52004e-09
5.38983e-09
4.0372e-09
2.46237e-09
3.34442e-09
4.73999e-09
4.29932e-09
4.44724e-09
4.25383e-09
4.30534e-09
4.22443e-09
4.26062e-09
4.23224e-09
4.17744e-09
4.34631e-09
4.13624e-09
4.48078e-09
4.14495e-09
4.73837e-09
4.29633e-09
4.87497e-09
4.1196e-09
3.18762e-09
1.97602e-09
2.46414e-09
3.44397e-09
3.04595e-09
3.1517e-09
2.99594e-09
3.03954e-09
2.97081e-09
3.00473e-09
2.9809e-09
2.93295e-09
3.07335e-09
2.89984e-09
3.17838e-09
2.90633e-09
3.37948e-09
3.03672e-09
3.54333e-09
3.03575e-09
2.41494e-09
1.50777e-09
1.72671e-09
2.37761e-09
2.05414e-09
2.12631e-09
2.00948e-09
2.04334e-09
1.99032e-09
2.01768e-09
1.9992e-09
1.96162e-09
2.06955e-09
1.93582e-09
2.14707e-09
1.94009e-09
2.29551e-09
2.04233e-09
2.45223e-09
2.12849e-09
1.76639e-09
1.08525e-09
1.14483e-09
1.55319e-09
1.31222e-09
1.35876e-09
1.27702e-09
1.30162e-09
1.2636e-09
1.28383e-09
1.27029e-09
1.24337e-09
1.32068e-09
1.22452e-09
1.37455e-09
1.22699e-09
1.47762e-09
1.3003e-09
1.60766e-09
1.41307e-09
1.22882e-09
7.42919e-10
7.94639e-10
7.30156e-10
8.29713e-10
7.31338e-10
8.96777e-10
7.7944e-10
9.93525e-10
8.82505e-10
8.07648e-10
)
;

boundaryField
{
    fuel
    {
        type            fixedValue;
        value           nonuniform 0();
    }
    wall
    {
        type            zeroGradient;
    }
    outlet
    {
        type            zeroGradient;
    }
    frontAndBack
    {
        type            empty;
    }
    procBoundary0to1
    {
        type            processor;
        value           nonuniform List<scalar> 
21
(
7.32102e-10
7.13727e-10
9.55587e-10
7.89743e-10
8.18439e-10
7.64972e-10
7.81745e-10
7.5622e-10
7.70173e-10
7.60802e-10
7.60802e-10
4.15999e-10
4.48296e-10
4.08008e-10
4.69534e-10
4.08489e-10
5.10032e-10
4.37571e-10
5.74814e-10
5.15585e-10
4.97392e-10
)
;
    }
    procBoundary0to2
    {
        type            processor;
        value           nonuniform List<scalar> 
12
(
2.25335e-08
5.98244e-09
1.15321e-08
1.8839e-08
2.00091e-08
2.07411e-08
2.0463e-08
2.05449e-08
2.04184e-08
2.04689e-08
2.0439e-08
2.0439e-08
)
;
    }
    procBoundary0to3
    {
        type            processor;
        value           nonuniform List<scalar> 10(2.446e-08 2.47031e-08 2.43946e-08 2.49298e-08 2.43973e-08 2.53353e-08 2.42043e-08 2.35337e-08 1.8346e-08 1.64431e-08);
    }
}


// ************************************************************************* //
