/*--------------------------------*- C++ -*----------------------------------*\
| =========                 |                                                 |
| \\      /  F ield         | OpenFOAM: The Open Source CFD Toolbox           |
|  \\    /   O peration     | Version:  dev                                   |
|   \\  /    A nd           | Web:      www.OpenFOAM.org                      |
|    \\/     M anipulation  |                                                 |
\*---------------------------------------------------------------------------*/
FoamFile
{
    version     2.0;
    format      ascii;
    class       volScalarField;
    location    "0.05";
    object      HCCO;
}
// * * * * * * * * * * * * * * * * * * * * * * * * * * * * * * * * * * * * * //

dimensions      [0 0 0 0 0 0 0];

internalField   nonuniform List<scalar> 
250
(
6.23808e-07
6.29666e-07
6.22101e-07
6.35229e-07
6.22657e-07
6.48378e-07
6.31067e-07
6.53614e-07
5.95286e-07
5.77055e-07
5.76771e-07
5.82747e-07
5.75059e-07
5.88264e-07
5.75748e-07
6.01081e-07
5.84182e-07
6.07358e-07
5.49001e-07
5.19902e-07
5.35442e-07
4.30208e-07
5.40904e-07
5.3265e-07
5.40412e-07
5.32116e-07
5.33708e-07
5.30831e-07
5.32034e-07
5.31521e-07
5.29347e-07
5.3545e-07
5.27609e-07
5.40898e-07
5.28337e-07
5.53337e-07
5.36816e-07
5.60252e-07
5.04434e-07
4.67802e-07
4.56554e-07
3.97083e-07
4.97066e-07
4.85637e-07
4.92804e-07
4.84431e-07
4.86065e-07
4.83103e-07
4.8438e-07
4.83812e-07
4.8158e-07
4.87804e-07
4.79797e-07
4.9315e-07
4.80495e-07
5.05149e-07
4.89018e-07
5.13056e-07
4.59462e-07
4.20582e-07
3.95883e-07
3.64849e-07
4.52236e-07
4.38339e-07
4.44922e-07
4.36549e-07
4.38218e-07
4.35193e-07
4.36542e-07
4.35931e-07
4.33629e-07
4.39966e-07
4.31786e-07
4.45167e-07
4.32421e-07
4.56641e-07
4.40963e-07
4.65432e-07
4.20135e-07
3.77667e-07
3.41104e-07
3.31493e-07
4.06684e-07
3.91027e-07
3.9708e-07
3.88764e-07
3.90467e-07
3.87383e-07
3.88826e-07
3.88186e-07
3.8578e-07
3.92238e-07
3.8387e-07
3.9725e-07
3.84436e-07
4.08076e-07
3.92977e-07
4.17615e-07
3.79449e-07
3.3804e-07
2.90556e-07
2.97167e-07
3.60826e-07
3.44142e-07
3.49773e-07
3.41497e-07
3.43282e-07
3.40064e-07
3.41703e-07
3.41037e-07
3.38435e-07
3.45091e-07
3.36484e-07
3.49881e-07
3.37004e-07
3.59884e-07
3.45548e-07
3.69972e-07
3.35245e-07
3.0081e-07
2.53471e-07
2.62343e-07
3.15241e-07
2.98288e-07
3.01788e-07
2.93402e-07
2.95475e-07
2.91787e-07
2.93928e-07
2.92847e-07
2.90039e-07
2.9694e-07
2.88361e-07
3.01695e-07
2.88792e-07
3.12674e-07
2.99341e-07
3.23036e-07
2.95446e-07
2.65411e-07
2.1988e-07
2.27612e-07
2.70889e-07
2.50869e-07
2.54133e-07
2.47775e-07
2.48931e-07
2.46743e-07
2.47463e-07
2.46858e-07
2.4525e-07
2.50219e-07
2.43807e-07
2.5462e-07
2.44207e-07
2.63839e-07
2.50997e-07
2.77602e-07
2.55921e-07
2.30883e-07
1.89231e-07
1.92157e-07
2.27287e-07
2.09047e-07
2.11801e-07
2.0568e-07
2.0708e-07
2.04685e-07
2.05755e-07
2.0496e-07
2.03335e-07
2.08306e-07
2.02085e-07
2.12284e-07
2.02445e-07
2.20478e-07
2.0887e-07
2.31631e-07
2.16183e-07
1.98778e-07
1.60643e-07
1.59714e-07
1.8747e-07
1.70497e-07
1.72776e-07
1.67292e-07
1.68636e-07
1.66341e-07
1.67472e-07
1.66712e-07
1.65101e-07
1.69766e-07
1.6397e-07
1.73257e-07
1.64273e-07
1.80361e-07
1.70101e-07
1.91074e-07
1.79543e-07
1.67719e-07
1.33825e-07
1.29611e-07
1.50863e-07
1.35872e-07
1.37718e-07
1.33003e-07
1.34217e-07
1.32169e-07
1.33222e-07
1.32535e-07
1.3107e-07
1.35223e-07
1.30049e-07
1.38198e-07
1.30284e-07
1.44191e-07
1.35334e-07
1.53971e-07
1.45595e-07
1.39403e-07
1.08878e-07
1.02533e-07
1.18339e-07
1.05645e-07
1.07093e-07
1.0319e-07
1.04245e-07
1.02494e-07
1.03422e-07
1.02817e-07
1.01564e-07
1.05113e-07
1.00674e-07
1.07574e-07
1.00843e-07
1.12485e-07
1.05022e-07
1.21013e-07
1.15121e-07
1.13239e-07
7.66964e-08
7.96258e-08
7.59529e-08
8.15999e-08
7.60635e-08
8.55048e-08
7.93661e-08
9.26521e-08
8.85649e-08
8.9707e-08
)
;

boundaryField
{
    fuel
    {
        type            fixedValue;
        value           nonuniform 0();
    }
    wall
    {
        type            zeroGradient;
    }
    outlet
    {
        type            zeroGradient;
    }
    frontAndBack
    {
        type            empty;
    }
    procBoundary0to1
    {
        type            processor;
        value           nonuniform List<scalar> 
21
(
8.62508e-08
7.89183e-08
9.03832e-08
8.00175e-08
8.11432e-08
7.80146e-08
7.89061e-08
7.74557e-08
7.82446e-08
7.7725e-08
7.7725e-08
5.63577e-08
5.87012e-08
5.57622e-08
6.02295e-08
5.58304e-08
6.32245e-08
5.83424e-08
6.89572e-08
6.62122e-08
6.90951e-08
)
;
    }
    procBoundary0to2
    {
        type            processor;
        value           nonuniform List<scalar> 
12
(
6.25888e-07
6.40894e-07
4.62502e-07
5.83896e-07
5.79176e-07
5.87672e-07
5.79434e-07
5.81003e-07
5.78219e-07
5.79345e-07
5.78892e-07
5.78892e-07
)
;
    }
    procBoundary0to3
    {
        type            processor;
        value           nonuniform List<scalar> 10(6.70522e-07 6.76283e-07 6.68797e-07 6.81868e-07 6.6915e-07 6.95251e-07 6.77724e-07 7.02252e-07 6.37189e-07 6.38507e-07);
    }
}


// ************************************************************************* //
