/*--------------------------------*- C++ -*----------------------------------*\
| =========                 |                                                 |
| \\      /  F ield         | OpenFOAM: The Open Source CFD Toolbox           |
|  \\    /   O peration     | Version:  dev                                   |
|   \\  /    A nd           | Web:      www.OpenFOAM.org                      |
|    \\/     M anipulation  |                                                 |
\*---------------------------------------------------------------------------*/
FoamFile
{
    version     2.0;
    format      ascii;
    class       volScalarField;
    location    "0.05";
    object      HCO;
}
// * * * * * * * * * * * * * * * * * * * * * * * * * * * * * * * * * * * * * //

dimensions      [0 0 0 0 0 0 0];

internalField   nonuniform List<scalar> 
25
(
4.04563e-05
2.17473e-05
1.03319e-05
5.06731e-06
2.71112e-06
1.64596e-06
1.10872e-06
8.21463e-07
6.49192e-07
5.39316e-07
4.62302e-07
4.06273e-07
3.63974e-07
3.31242e-07
3.05528e-07
2.85114e-07
2.68731e-07
2.55359e-07
2.445e-07
2.35206e-07
2.27045e-07
2.19702e-07
2.12741e-07
2.06368e-07
2.00276e-07
)
;

boundaryField
{
    wall
    {
        type            zeroGradient;
    }
    fuel
    {
        type            fixedValue;
        value           uniform 0;
    }
    outlet
    {
        type            inletOutlet;
        inletValue      nonuniform 0();
        value           nonuniform 0();
    }
    procBoundary0to1
    {
        type            processor;
        value           uniform 1.9443e-07;
    }
}


// ************************************************************************* //
