/*--------------------------------*- C++ -*----------------------------------*\
| =========                 |                                                 |
| \\      /  F ield         | OpenFOAM: The Open Source CFD Toolbox           |
|  \\    /   O peration     | Version:  dev                                   |
|   \\  /    A nd           | Web:      www.OpenFOAM.org                      |
|    \\/     M anipulation  |                                                 |
\*---------------------------------------------------------------------------*/
FoamFile
{
    version     2.0;
    format      ascii;
    class       volScalarField;
    location    "0.05";
    object      O;
}
// * * * * * * * * * * * * * * * * * * * * * * * * * * * * * * * * * * * * * //

dimensions      [0 0 0 0 0 0 0];

internalField   nonuniform List<scalar> 
25
(
0.0001637
0.000119074
7.78027e-05
5.40164e-05
4.15764e-05
3.5345e-05
3.1976e-05
2.99841e-05
2.85119e-05
2.72158e-05
2.59078e-05
2.45627e-05
2.3184e-05
2.17899e-05
2.04017e-05
1.90386e-05
1.77147e-05
1.64366e-05
1.52402e-05
1.40948e-05
1.30036e-05
1.19695e-05
1.09653e-05
1.00428e-05
9.17471e-06
)
;

boundaryField
{
    wall
    {
        type            zeroGradient;
    }
    fuel
    {
        type            fixedValue;
        value           uniform 0;
    }
    outlet
    {
        type            inletOutlet;
        inletValue      nonuniform 0();
        value           nonuniform 0();
    }
    procBoundary0to1
    {
        type            processor;
        value           uniform 8.36311e-06;
    }
}


// ************************************************************************* //
