/*--------------------------------*- C++ -*----------------------------------*\
| =========                 |                                                 |
| \\      /  F ield         | OpenFOAM: The Open Source CFD Toolbox           |
|  \\    /   O peration     | Version:  dev                                   |
|   \\  /    A nd           | Web:      www.OpenFOAM.org                      |
|    \\/     M anipulation  |                                                 |
\*---------------------------------------------------------------------------*/
FoamFile
{
    version     2.0;
    format      ascii;
    class       volScalarField;
    location    "0.05";
    object      P2;
}
// * * * * * * * * * * * * * * * * * * * * * * * * * * * * * * * * * * * * * //

dimensions      [0 0 0 0 0 0 0];

internalField   nonuniform List<scalar> 
25
(
2.70279e-10
5.71949e-11
1.22964e-11
2.67697e-12
5.74308e-13
1.25077e-13
2.66984e-14
5.77019e-15
1.24631e-15
2.83078e-16
7.1348e-17
2.36846e-17
1.17539e-17
8.03622e-18
6.48571e-18
5.70008e-18
5.336e-18
5.32663e-18
5.69358e-18
6.52051e-18
7.93966e-18
1.0133e-17
1.34511e-17
1.80711e-17
2.45515e-17
)
;

boundaryField
{
    wall
    {
        type            zeroGradient;
    }
    fuel
    {
        type            fixedValue;
        value           uniform 0;
    }
    outlet
    {
        type            inletOutlet;
        inletValue      nonuniform 0();
        value           nonuniform 0();
    }
    procBoundary0to1
    {
        type            processor;
        value           uniform 3.33003e-17;
    }
}


// ************************************************************************* //
