/*--------------------------------*- C++ -*----------------------------------*\
| =========                 |                                                 |
| \\      /  F ield         | OpenFOAM: The Open Source CFD Toolbox           |
|  \\    /   O peration     | Version:  dev                                   |
|   \\  /    A nd           | Web:      www.OpenFOAM.org                      |
|    \\/     M anipulation  |                                                 |
\*---------------------------------------------------------------------------*/
FoamFile
{
    version     2.0;
    format      ascii;
    class       surfaceScalarField;
    location    "0.05";
    object      phi;
}
// * * * * * * * * * * * * * * * * * * * * * * * * * * * * * * * * * * * * * //

dimensions      [1 0 -1 0 0 0 0];

internalField   nonuniform List<scalar> 
11
(
4.50609e-06
4.6004e-06
4.75089e-06
4.96464e-06
5.23897e-06
5.5618e-06
5.91697e-06
6.28951e-06
6.66584e-06
7.03978e-06
7.40757e-06
)
;

boundaryField
{
    wall
    {
        type            calculated;
        value           nonuniform List<scalar> 
48
(
2.7661e-20
5.77015e-20
8.11982e-20
1.01436e-19
1.16434e-19
1.29262e-19
1.40449e-19
1.54479e-19
1.68056e-19
1.82638e-19
1.96467e-19
2.13655e-19
-2.7661e-20
-5.77015e-20
-8.11982e-20
-1.01436e-19
-1.16434e-19
-1.29262e-19
-1.40449e-19
-1.54479e-19
-1.68056e-19
-1.82638e-19
-1.96467e-19
-2.13655e-19
2.7661e-20
5.77015e-20
8.11982e-20
1.01436e-19
1.16434e-19
1.29262e-19
1.40449e-19
1.54479e-19
1.68056e-19
1.82638e-19
1.96467e-19
2.13655e-19
-2.7661e-20
-5.77015e-20
-8.11982e-20
-1.01436e-19
-1.16434e-19
-1.29262e-19
-1.40449e-19
-1.54479e-19
-1.68056e-19
-1.82638e-19
-1.96467e-19
-2.13655e-19
)
;
    }
    fuel
    {
        type            calculated;
        value           uniform -4.44408e-06;
    }
    outlet
    {
        type            calculated;
        value           nonuniform 0();
    }
    procBoundary0to1
    {
        type            processor;
        value           uniform 7.76881e-06;
    }
}


// ************************************************************************* //
