/*--------------------------------*- C++ -*----------------------------------*\
| =========                 |                                                 |
| \\      /  F ield         | OpenFOAM: The Open Source CFD Toolbox           |
|  \\    /   O peration     | Version:  dev                                   |
|   \\  /    A nd           | Web:      www.OpenFOAM.org                      |
|    \\/     M anipulation  |                                                 |
\*---------------------------------------------------------------------------*/
FoamFile
{
    version     2.0;
    format      ascii;
    class       volScalarField;
    location    "0.055";
    object      C;
}
// * * * * * * * * * * * * * * * * * * * * * * * * * * * * * * * * * * * * * //

dimensions      [0 0 0 0 0 0 0];

internalField   nonuniform List<scalar> 
100
(
2.59805e-06
4.49011e-06
5.37858e-06
5.60828e-06
5.1978e-06
4.33845e-06
3.3229e-06
2.40201e-06
1.66845e-06
1.1306e-06
7.56303e-07
5.02818e-07
3.34043e-07
2.2335e-07
1.50667e-07
1.02803e-07
7.10555e-08
4.97712e-08
3.53122e-08
2.53456e-08
1.83726e-08
1.34244e-08
9.87106e-09
7.29277e-09
5.40686e-09
4.01881e-09
2.99186e-09
2.23078e-09
1.6656e-09
1.2453e-09
9.32378e-10
6.99138e-10
5.25086e-10
3.95032e-10
2.97714e-10
2.24664e-10
1.69931e-10
1.28752e-10
9.76617e-11
7.42223e-11
5.63679e-11
4.29642e-11
3.2798e-11
2.50284e-11
1.91537e-11
1.46796e-11
1.12535e-11
8.6516e-12
6.64578e-12
5.12625e-12
3.96024e-12
3.06098e-12
2.37018e-12
1.83443e-12
1.4198e-12
1.10112e-12
8.6055e-13
6.74581e-13
5.29137e-13
4.19268e-13
3.34161e-13
2.67994e-13
2.16156e-13
1.75097e-13
1.426e-13
1.16699e-13
9.57476e-14
7.89507e-14
6.53085e-14
5.39864e-14
4.48322e-14
3.72744e-14
3.10155e-14
2.58206e-14
2.15041e-14
1.78965e-14
1.48598e-14
1.23232e-14
1.01974e-14
8.37579e-15
6.928e-15
5.72142e-15
4.72138e-15
3.87886e-15
3.19932e-15
2.63771e-15
2.17506e-15
1.79333e-15
1.47665e-15
1.21563e-15
9.96771e-16
8.14054e-16
6.61041e-16
5.30353e-16
4.27754e-16
3.34059e-16
2.52942e-16
1.73372e-16
1.02685e-16
4.75511e-17
)
;

boundaryField
{
    wall
    {
        type            zeroGradient;
    }
    fuel
    {
        type            fixedValue;
        value           uniform 0;
    }
    outlet
    {
        type            inletOutlet;
        inletValue      uniform 0;
        value           uniform 4.75511e-17;
    }
}


// ************************************************************************* //
