/*--------------------------------*- C++ -*----------------------------------*\
| =========                 |                                                 |
| \\      /  F ield         | OpenFOAM: The Open Source CFD Toolbox           |
|  \\    /   O peration     | Version:  dev                                   |
|   \\  /    A nd           | Web:      www.OpenFOAM.org                      |
|    \\/     M anipulation  |                                                 |
\*---------------------------------------------------------------------------*/
FoamFile
{
    version     2.0;
    format      ascii;
    class       volScalarField;
    location    "0.055";
    object      moment.1.populationBalance;
}
// * * * * * * * * * * * * * * * * * * * * * * * * * * * * * * * * * * * * * //

dimensions      [0 -2 0 0 0 0 0];

internalField   nonuniform List<scalar> 
100
(
0.00299377
0.0024322
0.00223167
0.00211324
0.00199272
0.00188135
0.00176926
0.00167294
0.00158434
0.00150897
0.00144141
0.00137771
0.00131876
0.00126129
0.0012036
0.00114682
0.00108855
0.00102984
0.000971379
0.000913943
0.000858633
0.000805762
0.000756204
0.000711446
0.000670614
0.000635451
0.000605839
0.000581837
0.000564564
0.000553314
0.000548591
0.000550346
0.000558804
0.000573874
0.000595789
0.000624039
0.00065882
0.000700135
0.000747562
0.000801775
0.000862358
0.00092918
0.00100219
0.00108117
0.00116604
0.00125686
0.00135338
0.0014567
0.00156431
0.00167993
0.00180072
0.00192575
0.00205738
0.00219055
0.00232879
0.00247142
0.00261754
0.00276598
0.00291779
0.00307433
0.00323344
0.00339712
0.0035635
0.00373207
0.0039043
0.00407698
0.00425055
0.00442356
0.00459669
0.00477025
0.00494365
0.00511579
0.00528571
0.00545365
0.00561958
0.00578348
0.00594034
0.0060847
0.00621539
0.00634427
0.00647347
0.00659041
0.00669287
0.00678555
0.00687207
0.00695184
0.00701862
0.00707705
0.0071299
0.00717817
0.0072151
0.00722073
0.00718978
0.00717038
0.00717246
0.00717953
0.00718234
0.00711327
0.00683223
0.00614827
)
;

boundaryField
{
    wall
    {
        type            zeroGradient;
    }
    fuel
    {
        type            zeroGradient;
    }
    outlet
    {
        type            zeroGradient;
    }
}


// ************************************************************************* //
