/*--------------------------------*- C++ -*----------------------------------*\
| =========                 |                                                 |
| \\      /  F ield         | OpenFOAM: The Open Source CFD Toolbox           |
|  \\    /   O peration     | Version:  dev                                   |
|   \\  /    A nd           | Web:      www.OpenFOAM.org                      |
|    \\/     M anipulation  |                                                 |
\*---------------------------------------------------------------------------*/
FoamFile
{
    version     2.0;
    format      ascii;
    class       volScalarField;
    location    "0.06";
    object      A2C2HA;
}
// * * * * * * * * * * * * * * * * * * * * * * * * * * * * * * * * * * * * * //

dimensions      [0 0 0 0 0 0 0];

internalField   nonuniform List<scalar> 
25
(
9.53594e-15
8.81953e-15
8.13826e-15
7.49179e-15
6.88625e-15
6.32886e-15
5.83067e-15
5.37981e-15
4.97152e-15
4.61868e-15
4.30987e-15
4.04206e-15
3.81188e-15
3.61579e-15
3.45015e-15
3.31136e-15
3.19498e-15
3.09932e-15
3.02019e-15
2.95332e-15
2.89781e-15
2.84986e-15
2.80703e-15
2.76712e-15
2.72815e-15
)
;

boundaryField
{
    wall
    {
        type            zeroGradient;
    }
    fuel
    {
        type            fixedValue;
        value           nonuniform 0();
    }
    outlet
    {
        type            inletOutlet;
        inletValue      nonuniform 0();
        value           nonuniform 0();
    }
    procBoundary2to1
    {
        type            processor;
        value           uniform 1.02804e-14;
    }
    procBoundary2to3
    {
        type            processor;
        value           uniform 2.68834e-15;
    }
}


// ************************************************************************* //
