/*--------------------------------*- C++ -*----------------------------------*\
| =========                 |                                                 |
| \\      /  F ield         | OpenFOAM: The Open Source CFD Toolbox           |
|  \\    /   O peration     | Version:  dev                                   |
|   \\  /    A nd           | Web:      www.OpenFOAM.org                      |
|    \\/     M anipulation  |                                                 |
\*---------------------------------------------------------------------------*/
FoamFile
{
    version     2.0;
    format      ascii;
    class       volScalarField;
    location    "0.06";
    object      CH2;
}
// * * * * * * * * * * * * * * * * * * * * * * * * * * * * * * * * * * * * * //

dimensions      [0 0 0 0 0 0 0];

internalField   nonuniform List<scalar> 
25
(
1.41871e-10
1.36116e-10
1.3182e-10
1.28575e-10
1.26262e-10
1.24706e-10
1.23613e-10
1.22808e-10
1.22129e-10
1.2143e-10
1.20582e-10
1.19478e-10
1.18026e-10
1.16154e-10
1.13804e-10
1.10936e-10
1.07526e-10
1.03561e-10
9.9029e-11
9.393e-11
8.82975e-11
8.23155e-11
7.59708e-11
6.93236e-11
6.24582e-11
)
;

boundaryField
{
    wall
    {
        type            zeroGradient;
    }
    fuel
    {
        type            fixedValue;
        value           nonuniform 0();
    }
    outlet
    {
        type            inletOutlet;
        inletValue      nonuniform 0();
        value           nonuniform 0();
    }
    procBoundary2to1
    {
        type            processor;
        value           uniform 1.49375e-10;
    }
    procBoundary2to3
    {
        type            processor;
        value           uniform 5.53565e-11;
    }
}


// ************************************************************************* //
