/*--------------------------------*- C++ -*----------------------------------*\
| =========                 |                                                 |
| \\      /  F ield         | OpenFOAM: The Open Source CFD Toolbox           |
|  \\    /   O peration     | Version:  dev                                   |
|   \\  /    A nd           | Web:      www.OpenFOAM.org                      |
|    \\/     M anipulation  |                                                 |
\*---------------------------------------------------------------------------*/
FoamFile
{
    version     2.0;
    format      ascii;
    class       volScalarField;
    location    "0.06";
    object      CH2OH;
}
// * * * * * * * * * * * * * * * * * * * * * * * * * * * * * * * * * * * * * //

dimensions      [0 0 0 0 0 0 0];

internalField   nonuniform List<scalar> 
25
(
4.63242e-11
4.12652e-11
3.69575e-11
3.32685e-11
3.01355e-11
2.75164e-11
2.5394e-11
2.36558e-11
2.2243e-11
2.11712e-11
2.03699e-11
1.98067e-11
1.94573e-11
1.93007e-11
1.932e-11
1.95035e-11
1.98467e-11
2.03402e-11
2.0976e-11
2.17491e-11
2.26089e-11
2.35215e-11
2.44249e-11
2.52468e-11
2.59132e-11
)
;

boundaryField
{
    wall
    {
        type            zeroGradient;
    }
    fuel
    {
        type            fixedValue;
        value           nonuniform 0();
    }
    outlet
    {
        type            inletOutlet;
        inletValue      nonuniform 0();
        value           nonuniform 0();
    }
    procBoundary2to1
    {
        type            processor;
        value           uniform 5.22311e-11;
    }
    procBoundary2to3
    {
        type            processor;
        value           uniform 2.6364e-11;
    }
}


// ************************************************************************* //
