/*--------------------------------*- C++ -*----------------------------------*\
| =========                 |                                                 |
| \\      /  F ield         | OpenFOAM: The Open Source CFD Toolbox           |
|  \\    /   O peration     | Version:  dev                                   |
|   \\  /    A nd           | Web:      www.OpenFOAM.org                      |
|    \\/     M anipulation  |                                                 |
\*---------------------------------------------------------------------------*/
FoamFile
{
    version     2.0;
    format      ascii;
    class       volScalarField;
    location    "0.06";
    object      i-C6H7;
}
// * * * * * * * * * * * * * * * * * * * * * * * * * * * * * * * * * * * * * //

dimensions      [0 0 0 0 0 0 0];

internalField   nonuniform List<scalar> 
25
(
3.00362e-20
3.76368e-20
4.60858e-20
5.54407e-20
6.50862e-20
7.42315e-20
8.30072e-20
9.10235e-20
9.79355e-20
1.03458e-19
1.07382e-19
1.09585e-19
1.1004e-19
1.08801e-19
1.06e-19
1.01826e-19
9.65051e-20
9.0276e-20
8.33714e-20
7.6032e-20
6.84751e-20
6.10624e-20
5.38442e-20
4.69292e-20
4.04079e-20
)
;

boundaryField
{
    wall
    {
        type            zeroGradient;
    }
    fuel
    {
        type            fixedValue;
        value           nonuniform 0();
    }
    outlet
    {
        type            inletOutlet;
        inletValue      nonuniform 0();
        value           nonuniform 0();
    }
    procBoundary2to1
    {
        type            processor;
        value           uniform 2.33822e-20;
    }
    procBoundary2to3
    {
        type            processor;
        value           uniform 3.4241e-20;
    }
}


// ************************************************************************* //
