/*--------------------------------*- C++ -*----------------------------------*\
| =========                 |                                                 |
| \\      /  F ield         | OpenFOAM: The Open Source CFD Toolbox           |
|  \\    /   O peration     | Version:  dev                                   |
|   \\  /    A nd           | Web:      www.OpenFOAM.org                      |
|    \\/     M anipulation  |                                                 |
\*---------------------------------------------------------------------------*/
FoamFile
{
    version     2.0;
    format      ascii;
    class       volScalarField;
    location    "0.06";
    object      A1C2H3*;
}
// * * * * * * * * * * * * * * * * * * * * * * * * * * * * * * * * * * * * * //

dimensions      [0 0 0 0 0 0 0];

internalField   nonuniform List<scalar> 
25
(
2.71234e-16
3.1268e-16
3.58572e-16
4.09265e-16
4.65319e-16
5.27519e-16
5.96879e-16
6.7465e-16
7.62321e-16
8.61642e-16
9.74805e-16
1.10378e-15
1.25145e-15
1.42082e-15
1.61548e-15
1.84123e-15
2.0985e-15
2.39292e-15
2.72928e-15
3.10455e-15
3.51926e-15
3.97062e-15
4.44599e-15
4.93997e-15
5.42731e-15
)
;

boundaryField
{
    wall
    {
        type            zeroGradient;
    }
    fuel
    {
        type            fixedValue;
        value           nonuniform 0();
    }
    outlet
    {
        type            inletOutlet;
        inletValue      nonuniform 0();
        value           nonuniform 0();
    }
    procBoundary1to0
    {
        type            processor;
        value           uniform 2.34074e-16;
    }
    procBoundary1to2
    {
        type            processor;
        value           uniform 5.89399e-15;
    }
}


// ************************************************************************* //
