/*--------------------------------*- C++ -*----------------------------------*\
| =========                 |                                                 |
| \\      /  F ield         | OpenFOAM: The Open Source CFD Toolbox           |
|  \\    /   O peration     | Version:  dev                                   |
|   \\  /    A nd           | Web:      www.OpenFOAM.org                      |
|    \\/     M anipulation  |                                                 |
\*---------------------------------------------------------------------------*/
FoamFile
{
    version     2.0;
    format      ascii;
    class       volScalarField;
    location    "0.06";
    object      A2C2H2;
}
// * * * * * * * * * * * * * * * * * * * * * * * * * * * * * * * * * * * * * //

dimensions      [0 0 0 0 0 0 0];

internalField   nonuniform List<scalar> 
25
(
1.32562e-18
1.37787e-18
1.42949e-18
1.47975e-18
1.52798e-18
1.57352e-18
1.61578e-18
1.65423e-18
1.68846e-18
1.71813e-18
1.74304e-18
1.76299e-18
1.77797e-18
1.78804e-18
1.79326e-18
1.79371e-18
1.78968e-18
1.78137e-18
1.76885e-18
1.7527e-18
1.73312e-18
1.71029e-18
1.68487e-18
1.65669e-18
1.62673e-18
)
;

boundaryField
{
    wall
    {
        type            zeroGradient;
    }
    fuel
    {
        type            fixedValue;
        value           nonuniform 0();
    }
    outlet
    {
        type            inletOutlet;
        inletValue      nonuniform 0();
        value           nonuniform 0();
    }
    procBoundary1to0
    {
        type            processor;
        value           uniform 1.27351e-18;
    }
    procBoundary1to2
    {
        type            processor;
        value           uniform 1.59485e-18;
    }
}


// ************************************************************************* //
