/*--------------------------------*- C++ -*----------------------------------*\
| =========                 |                                                 |
| \\      /  F ield         | OpenFOAM: The Open Source CFD Toolbox           |
|  \\    /   O peration     | Version:  dev                                   |
|   \\  /    A nd           | Web:      www.OpenFOAM.org                      |
|    \\/     M anipulation  |                                                 |
\*---------------------------------------------------------------------------*/
FoamFile
{
    version     2.0;
    format      ascii;
    class       volScalarField;
    location    "0.06";
    object      A3C2H;
}
// * * * * * * * * * * * * * * * * * * * * * * * * * * * * * * * * * * * * * //

dimensions      [0 0 0 0 0 0 0];

internalField   nonuniform List<scalar> 
25
(
5.8593e-20
4.44148e-20
3.40318e-20
2.6565e-20
2.13311e-20
1.78027e-20
1.56515e-20
1.44964e-20
1.41433e-20
1.44538e-20
1.53318e-20
1.67128e-20
1.85559e-20
2.08344e-20
2.35196e-20
2.66432e-20
3.01627e-20
3.40262e-20
3.80564e-20
4.23603e-20
4.69169e-20
5.1687e-20
5.62858e-20
6.08517e-20
6.54067e-20
)
;

boundaryField
{
    wall
    {
        type            zeroGradient;
    }
    fuel
    {
        type            fixedValue;
        value           nonuniform 0();
    }
    outlet
    {
        type            inletOutlet;
        inletValue      nonuniform 0();
        value           nonuniform 0();
    }
    procBoundary1to0
    {
        type            processor;
        value           uniform 7.79457e-20;
    }
    procBoundary1to2
    {
        type            processor;
        value           uniform 6.96313e-20;
    }
}


// ************************************************************************* //
