/*--------------------------------*- C++ -*----------------------------------*\
| =========                 |                                                 |
| \\      /  F ield         | OpenFOAM: The Open Source CFD Toolbox           |
|  \\    /   O peration     | Version:  dev                                   |
|   \\  /    A nd           | Web:      www.OpenFOAM.org                      |
|    \\/     M anipulation  |                                                 |
\*---------------------------------------------------------------------------*/
FoamFile
{
    version     2.0;
    format      ascii;
    class       volScalarField;
    location    "0.06";
    object      C4H;
}
// * * * * * * * * * * * * * * * * * * * * * * * * * * * * * * * * * * * * * //

dimensions      [0 0 0 0 0 0 0];

internalField   nonuniform List<scalar> 
25
(
5.01297e-15
2.88365e-15
1.74336e-15
1.10574e-15
7.31447e-16
5.00006e-16
3.53892e-16
2.547e-16
1.85349e-16
1.35872e-16
1.00152e-16
7.4246e-17
5.54946e-17
4.20477e-17
3.26247e-17
2.62205e-17
2.23706e-17
2.07418e-17
2.10621e-17
2.31224e-17
2.68523e-17
3.22096e-17
3.86319e-17
4.60796e-17
5.43778e-17
)
;

boundaryField
{
    wall
    {
        type            zeroGradient;
    }
    fuel
    {
        type            fixedValue;
        value           nonuniform 0();
    }
    outlet
    {
        type            inletOutlet;
        inletValue      nonuniform 0();
        value           nonuniform 0();
    }
    procBoundary1to0
    {
        type            processor;
        value           uniform 9.12886e-15;
    }
    procBoundary1to2
    {
        type            processor;
        value           uniform 6.27183e-17;
    }
}


// ************************************************************************* //
