/*--------------------------------*- C++ -*----------------------------------*\
| =========                 |                                                 |
| \\      /  F ield         | OpenFOAM: The Open Source CFD Toolbox           |
|  \\    /   O peration     | Version:  dev                                   |
|   \\  /    A nd           | Web:      www.OpenFOAM.org                      |
|    \\/     M anipulation  |                                                 |
\*---------------------------------------------------------------------------*/
FoamFile
{
    version     2.0;
    format      ascii;
    class       volScalarField;
    location    "0.06";
    object      C5H4OH;
}
// * * * * * * * * * * * * * * * * * * * * * * * * * * * * * * * * * * * * * //

dimensions      [0 0 0 0 0 0 0];

internalField   nonuniform List<scalar> 
25
(
1.50667e-14
1.62234e-14
1.75513e-14
1.90787e-14
2.08486e-14
2.29211e-14
2.53762e-14
2.83162e-14
3.18639e-14
3.61536e-14
4.13167e-14
4.74134e-14
5.44313e-14
6.22235e-14
7.04863e-14
7.88747e-14
8.67933e-14
9.38472e-14
9.9677e-14
1.03949e-13
1.06538e-13
1.07403e-13
1.06603e-13
1.04222e-13
1.00493e-13
)
;

boundaryField
{
    wall
    {
        type            zeroGradient;
    }
    fuel
    {
        type            fixedValue;
        value           nonuniform 0();
    }
    outlet
    {
        type            inletOutlet;
        inletValue      nonuniform 0();
        value           nonuniform 0();
    }
    procBoundary1to0
    {
        type            processor;
        value           uniform 1.40659e-14;
    }
    procBoundary1to2
    {
        type            processor;
        value           uniform 9.55767e-14;
    }
}


// ************************************************************************* //
