/*--------------------------------*- C++ -*----------------------------------*\
| =========                 |                                                 |
| \\      /  F ield         | OpenFOAM: The Open Source CFD Toolbox           |
|  \\    /   O peration     | Version:  dev                                   |
|   \\  /    A nd           | Web:      www.OpenFOAM.org                      |
|    \\/     M anipulation  |                                                 |
\*---------------------------------------------------------------------------*/
FoamFile
{
    version     2.0;
    format      ascii;
    class       volScalarField;
    location    "0.06";
    object      CH2(S);
}
// * * * * * * * * * * * * * * * * * * * * * * * * * * * * * * * * * * * * * //

dimensions      [0 0 0 0 0 0 0];

internalField   nonuniform List<scalar> 
25
(
5.12463e-09
4.01868e-09
3.14776e-09
2.46231e-09
1.92338e-09
1.50015e-09
1.16824e-09
9.08297e-10
7.05011e-10
5.46272e-10
4.22316e-10
3.2601e-10
2.51128e-10
1.92911e-10
1.4788e-10
1.12825e-10
8.60215e-11
6.54008e-11
4.94844e-11
3.73759e-11
2.81372e-11
2.10814e-11
1.5759e-11
1.17035e-11
8.67966e-12
)
;

boundaryField
{
    wall
    {
        type            zeroGradient;
    }
    fuel
    {
        type            fixedValue;
        value           nonuniform 0();
    }
    outlet
    {
        type            inletOutlet;
        inletValue      nonuniform 0();
        value           nonuniform 0();
    }
    procBoundary1to0
    {
        type            processor;
        value           uniform 6.52715e-09;
    }
    procBoundary1to2
    {
        type            processor;
        value           uniform 6.40912e-12;
    }
}


// ************************************************************************* //
