/*--------------------------------*- C++ -*----------------------------------*\
| =========                 |                                                 |
| \\      /  F ield         | OpenFOAM: The Open Source CFD Toolbox           |
|  \\    /   O peration     | Version:  dev                                   |
|   \\  /    A nd           | Web:      www.OpenFOAM.org                      |
|    \\/     M anipulation  |                                                 |
\*---------------------------------------------------------------------------*/
FoamFile
{
    version     2.0;
    format      ascii;
    class       volScalarField;
    location    "0.06";
    object      n-C4H3;
}
// * * * * * * * * * * * * * * * * * * * * * * * * * * * * * * * * * * * * * //

dimensions      [0 0 0 0 0 0 0];

internalField   nonuniform List<scalar> 
25
(
4.55825e-16
2.8158e-16
1.83133e-16
1.25133e-16
8.92879e-17
6.59438e-17
5.04183e-17
3.92944e-17
3.10871e-17
2.49439e-17
2.03784e-17
1.71381e-17
1.51406e-17
1.44509e-17
1.52799e-17
1.80611e-17
2.34401e-17
3.22136e-17
4.48394e-17
6.25129e-17
8.62962e-17
1.17273e-16
1.53684e-16
1.96705e-16
2.4679e-16
)
;

boundaryField
{
    wall
    {
        type            zeroGradient;
    }
    fuel
    {
        type            fixedValue;
        value           nonuniform 0();
    }
    outlet
    {
        type            inletOutlet;
        inletValue      nonuniform 0();
        value           nonuniform 0();
    }
    procBoundary1to0
    {
        type            processor;
        value           uniform 7.7456e-16;
    }
    procBoundary1to2
    {
        type            processor;
        value           uniform 3.00266e-16;
    }
}


// ************************************************************************* //
