/*--------------------------------*- C++ -*----------------------------------*\
| =========                 |                                                 |
| \\      /  F ield         | OpenFOAM: The Open Source CFD Toolbox           |
|  \\    /   O peration     | Version:  dev                                   |
|   \\  /    A nd           | Web:      www.OpenFOAM.org                      |
|    \\/     M anipulation  |                                                 |
\*---------------------------------------------------------------------------*/
FoamFile
{
    version     2.0;
    format      ascii;
    class       volScalarField;
    location    "0.07";
    object      c-C6H4;
}
// * * * * * * * * * * * * * * * * * * * * * * * * * * * * * * * * * * * * * //

dimensions      [0 0 0 0 0 0 0];

internalField   nonuniform List<scalar> 
25
(
3.15225e-12
3.03387e-12
2.92629e-12
2.82216e-12
2.71803e-12
2.61301e-12
2.50895e-12
2.40417e-12
2.29858e-12
2.1972e-12
2.09879e-12
2.00427e-12
1.91394e-12
1.82808e-12
1.74726e-12
1.67142e-12
1.59982e-12
1.53328e-12
1.47093e-12
1.41133e-12
1.35584e-12
1.30297e-12
1.25226e-12
1.20328e-12
1.15566e-12
)
;

boundaryField
{
    wall
    {
        type            zeroGradient;
    }
    fuel
    {
        type            fixedValue;
        value           nonuniform 0();
    }
    outlet
    {
        type            inletOutlet;
        inletValue      nonuniform 0();
        value           nonuniform 0();
    }
    procBoundary2to1
    {
        type            processor;
        value           uniform 3.29076e-12;
    }
    procBoundary2to3
    {
        type            processor;
        value           uniform 1.10881e-12;
    }
}


// ************************************************************************* //
