/*--------------------------------*- C++ -*----------------------------------*\
| =========                 |                                                 |
| \\      /  F ield         | OpenFOAM: The Open Source CFD Toolbox           |
|  \\    /   O peration     | Version:  dev                                   |
|   \\  /    A nd           | Web:      www.OpenFOAM.org                      |
|    \\/     M anipulation  |                                                 |
\*---------------------------------------------------------------------------*/
FoamFile
{
    version     2.0;
    format      ascii;
    class       volScalarField;
    location    "0.07";
    object      C2H;
}
// * * * * * * * * * * * * * * * * * * * * * * * * * * * * * * * * * * * * * //

dimensions      [0 0 0 0 0 0 0];

internalField   nonuniform List<scalar> 
25
(
1.98844e-11
1.75126e-11
1.54524e-11
1.35964e-11
1.19723e-11
1.06027e-11
9.38503e-12
8.30139e-12
7.33457e-12
6.46958e-12
5.69405e-12
4.99771e-12
4.37208e-12
3.81004e-12
3.30556e-12
2.85347e-12
2.44908e-12
2.08776e-12
1.76493e-12
1.47776e-12
1.2247e-12
1.00768e-12
8.20051e-13
6.58891e-13
5.21829e-13
)
;

boundaryField
{
    wall
    {
        type            zeroGradient;
    }
    fuel
    {
        type            fixedValue;
        value           nonuniform 0();
    }
    outlet
    {
        type            inletOutlet;
        inletValue      nonuniform 0();
        value           nonuniform 0();
    }
    procBoundary2to1
    {
        type            processor;
        value           uniform 2.26276e-11;
    }
    procBoundary2to3
    {
        type            processor;
        value           uniform 4.04744e-13;
    }
}


// ************************************************************************* //
