/*--------------------------------*- C++ -*----------------------------------*\
| =========                 |                                                 |
| \\      /  F ield         | OpenFOAM: The Open Source CFD Toolbox           |
|  \\    /   O peration     | Version:  dev                                   |
|   \\  /    A nd           | Web:      www.OpenFOAM.org                      |
|    \\/     M anipulation  |                                                 |
\*---------------------------------------------------------------------------*/
FoamFile
{
    version     2.0;
    format      ascii;
    class       volScalarField;
    location    "0.07";
    object      C2H5;
}
// * * * * * * * * * * * * * * * * * * * * * * * * * * * * * * * * * * * * * //

dimensions      [0 0 0 0 0 0 0];

internalField   nonuniform List<scalar> 
25
(
1.20421e-08
1.42617e-08
1.68076e-08
1.97321e-08
2.30656e-08
2.68168e-08
3.09309e-08
3.54944e-08
4.05649e-08
4.59617e-08
5.17507e-08
5.78761e-08
6.42626e-08
7.08167e-08
7.74086e-08
8.38935e-08
9.01585e-08
9.59615e-08
1.01193e-07
1.0579e-07
1.09517e-07
1.12366e-07
1.14287e-07
1.15262e-07
1.15303e-07
)
;

boundaryField
{
    wall
    {
        type            zeroGradient;
    }
    fuel
    {
        type            fixedValue;
        value           nonuniform 0();
    }
    outlet
    {
        type            inletOutlet;
        inletValue      nonuniform 0();
        value           nonuniform 0();
    }
    procBoundary2to1
    {
        type            processor;
        value           uniform 1.01207e-08;
    }
    procBoundary2to3
    {
        type            processor;
        value           uniform 1.14441e-07;
    }
}


// ************************************************************************* //
