/*--------------------------------*- C++ -*----------------------------------*\
| =========                 |                                                 |
| \\      /  F ield         | OpenFOAM: The Open Source CFD Toolbox           |
|  \\    /   O peration     | Version:  dev                                   |
|   \\  /    A nd           | Web:      www.OpenFOAM.org                      |
|    \\/     M anipulation  |                                                 |
\*---------------------------------------------------------------------------*/
FoamFile
{
    version     2.0;
    format      ascii;
    class       volScalarField;
    location    "0.07";
    object      HCCOH;
}
// * * * * * * * * * * * * * * * * * * * * * * * * * * * * * * * * * * * * * //

dimensions      [0 0 0 0 0 0 0];

internalField   nonuniform List<scalar> 
25
(
2.62926e-09
2.13711e-09
1.73189e-09
1.39719e-09
1.12281e-09
9.00591e-10
7.24759e-10
5.83104e-10
4.68288e-10
3.78909e-10
3.08038e-10
2.52036e-10
2.07759e-10
1.72605e-10
1.44905e-10
1.23041e-10
1.056e-10
9.18385e-11
8.08452e-11
7.18567e-11
6.46672e-11
5.8756e-11
5.38355e-11
4.96814e-11
4.61208e-11
)
;

boundaryField
{
    wall
    {
        type            zeroGradient;
    }
    fuel
    {
        type            fixedValue;
        value           nonuniform 0();
    }
    outlet
    {
        type            inletOutlet;
        inletValue      nonuniform 0();
        value           nonuniform 0();
    }
    procBoundary2to1
    {
        type            processor;
        value           uniform 3.22043e-09;
    }
    procBoundary2to3
    {
        type            processor;
        value           uniform 4.30028e-11;
    }
}


// ************************************************************************* //
