/*--------------------------------*- C++ -*----------------------------------*\
| =========                 |                                                 |
| \\      /  F ield         | OpenFOAM: The Open Source CFD Toolbox           |
|  \\    /   O peration     | Version:  dev                                   |
|   \\  /    A nd           | Web:      www.OpenFOAM.org                      |
|    \\/     M anipulation  |                                                 |
\*---------------------------------------------------------------------------*/
FoamFile
{
    version     2.0;
    format      ascii;
    class       volScalarField;
    location    "0.07";
    object      i-C4H5;
}
// * * * * * * * * * * * * * * * * * * * * * * * * * * * * * * * * * * * * * //

dimensions      [0 0 0 0 0 0 0];

internalField   nonuniform List<scalar> 
25
(
9.34723e-18
1.0469e-17
1.15808e-17
1.2682e-17
1.37037e-17
1.45854e-17
1.53643e-17
1.60272e-17
1.65683e-17
1.69883e-17
1.72942e-17
1.74978e-17
1.76145e-17
1.7662e-17
1.76586e-17
1.76234e-17
1.75751e-17
1.75319e-17
1.75089e-17
1.75169e-17
1.7583e-17
1.7729e-17
1.79777e-17
1.83566e-17
1.88958e-17
)
;

boundaryField
{
    wall
    {
        type            zeroGradient;
    }
    fuel
    {
        type            fixedValue;
        value           nonuniform 0();
    }
    outlet
    {
        type            inletOutlet;
        inletValue      nonuniform 0();
        value           nonuniform 0();
    }
    procBoundary2to1
    {
        type            processor;
        value           uniform 8.23164e-18;
    }
    procBoundary2to3
    {
        type            processor;
        value           uniform 1.96413e-17;
    }
}


// ************************************************************************* //
