/*--------------------------------*- C++ -*----------------------------------*\
| =========                 |                                                 |
| \\      /  F ield         | OpenFOAM: The Open Source CFD Toolbox           |
|  \\    /   O peration     | Version:  dev                                   |
|   \\  /    A nd           | Web:      www.OpenFOAM.org                      |
|    \\/     M anipulation  |                                                 |
\*---------------------------------------------------------------------------*/
FoamFile
{
    version     2.0;
    format      ascii;
    class       volScalarField;
    location    "0.005";
    object      A1C2H22;
}
// * * * * * * * * * * * * * * * * * * * * * * * * * * * * * * * * * * * * * //

dimensions      [0 0 0 0 0 0 0];

internalField   nonuniform List<scalar> 
250
(
7.61478e-14
7.50658e-14
7.94011e-14
7.82397e-14
8.87583e-14
9.14399e-14
1.08311e-13
5.29877e-14
1.72814e-14
3.98497e-15
6.29731e-16
1.61151e-12
1.58248e-12
1.68567e-12
1.67788e-12
1.93125e-12
2.04561e-12
2.47262e-12
1.01924e-12
2.18908e-13
3.62987e-14
5.58296e-15
2.87139e-11
2.81331e-11
3.01487e-11
3.00908e-11
3.52654e-11
3.7892e-11
4.75197e-11
1.74206e-11
2.79571e-12
2.84283e-13
3.52895e-14
3.63724e-10
3.54895e-10
3.86776e-10
3.83542e-10
4.66533e-10
5.05736e-10
6.51782e-10
2.07214e-10
2.8431e-11
2.05678e-12
2.19308e-13
3.27472e-09
3.17464e-09
3.55249e-09
3.48234e-09
4.42974e-09
4.82284e-09
6.36501e-09
1.53639e-09
1.73848e-10
1.68818e-11
1.45868e-12
3.04316e-08
2.9906e-08
3.15517e-08
3.17379e-08
3.55913e-08
3.81402e-08
4.27141e-08
1.83099e-08
8.79111e-10
7.96692e-11
6.86497e-12
6.30519e-08
6.25216e-08
6.37213e-08
6.45014e-08
6.70103e-08
6.98785e-08
7.13223e-08
4.77563e-08
4.43737e-09
2.99277e-10
2.47694e-11
7.65459e-08
7.60961e-08
7.67193e-08
7.77482e-08
7.8858e-08
8.13882e-08
8.07032e-08
6.18696e-08
1.01113e-08
5.45834e-10
5.10692e-11
7.97151e-08
7.9309e-08
7.95288e-08
8.08403e-08
8.09184e-08
8.33444e-08
8.07323e-08
6.40621e-08
1.38925e-08
6.48625e-10
6.84114e-11
7.59291e-08
7.56216e-08
7.55915e-08
7.71739e-08
7.65348e-08
7.89598e-08
7.461e-08
5.87307e-08
1.44221e-08
7.21652e-10
7.93008e-11
6.63764e-08
6.62184e-08
6.79019e-08
6.68844e-08
6.91605e-08
6.38234e-08
4.90182e-08
1.28149e-08
7.58913e-10
8.51968e-11
5.39718e-08
5.37602e-08
5.53285e-08
5.4213e-08
5.61171e-08
5.07404e-08
3.7938e-08
1.05205e-08
7.44912e-10
8.60381e-11
4.1136e-08
4.09136e-08
4.22263e-08
4.11846e-08
4.2603e-08
3.78895e-08
2.77118e-08
7.87581e-09
6.78556e-10
8.26035e-11
2.97755e-08
2.95702e-08
3.05776e-08
2.97011e-08
3.06774e-08
2.69213e-08
1.92807e-08
5.8223e-09
5.942e-10
7.66547e-11
2.08332e-08
2.0666e-08
2.14023e-08
2.0709e-08
2.13334e-08
1.85584e-08
1.3192e-08
4.21457e-09
5.08735e-10
6.97741e-11
1.43538e-08
1.42264e-08
1.47355e-08
1.42222e-08
1.45914e-08
1.26492e-08
9.00735e-09
3.02969e-09
4.3094e-10
6.28359e-11
9.88438e-09
9.7916e-09
1.01284e-08
9.7681e-09
9.97149e-09
8.65417e-09
6.21346e-09
2.2405e-09
3.69335e-10
5.61703e-11
6.87984e-09
6.8153e-09
7.03418e-09
6.78905e-09
6.89259e-09
6.01319e-09
4.38007e-09
1.71263e-09
3.19851e-10
4.97404e-11
4.89767e-09
4.85226e-09
4.99938e-09
4.82638e-09
4.87468e-09
4.22431e-09
2.93641e-09
1.3499e-09
2.76858e-10
4.31998e-11
3.27211e-09
3.23807e-09
3.35898e-09
3.21506e-09
3.23519e-09
2.84386e-09
2.21026e-09
1.06756e-09
2.3634e-10
3.65151e-11
2.46565e-09
2.44214e-09
2.47502e-09
2.42399e-09
2.42377e-09
2.17242e-09
1.68809e-09
8.47669e-10
1.9736e-10
2.98101e-11
1.87517e-09
1.86119e-09
1.89292e-09
1.84022e-09
1.83459e-09
1.65454e-09
1.30351e-09
6.60561e-10
1.59721e-10
2.31664e-11
1.44629e-09
1.43681e-09
1.45786e-09
1.41517e-09
1.40828e-09
1.25326e-09
9.73111e-10
4.89101e-10
1.22397e-10
1.72864e-11
1.07314e-09
1.06429e-09
1.0813e-09
1.0526e-09
1.03489e-09
9.40631e-10
7.23119e-10
3.55306e-10
8.99176e-11
1.22428e-11
)
;

boundaryField
{
    fuel
    {
        type            fixedValue;
        value           uniform 0;
    }
    wall
    {
        type            zeroGradient;
    }
    outlet
    {
        type            zeroGradient;
    }
    frontAndBack
    {
        type            empty;
    }
    procBoundary3to0
    {
        type            processor;
        value           nonuniform List<scalar> 10(8.02628e-10 7.94564e-10 8.08432e-10 7.80337e-10 7.63882e-10 6.65481e-10 4.92106e-10 2.53479e-10 6.44882e-11 8.55537e-12);
    }
    procBoundary3to2
    {
        type            processor;
        value           nonuniform List<scalar> 
25
(
7.95875e-14
1.69164e-12
3.0269e-11
3.88462e-10
3.57043e-09
3.16747e-08
6.39436e-08
7.69635e-08
7.97598e-08
7.58015e-08
6.66425e-08
6.66425e-08
5.42862e-08
4.14199e-08
2.99753e-08
2.09706e-08
1.44413e-08
9.93582e-09
6.90949e-09
4.91561e-09
3.28211e-09
2.47209e-09
1.88017e-09
1.45313e-09
1.0717e-09
)
;
    }
}


// ************************************************************************* //
