/*--------------------------------*- C++ -*----------------------------------*\
| =========                 |                                                 |
| \\      /  F ield         | OpenFOAM: The Open Source CFD Toolbox           |
|  \\    /   O peration     | Version:  dev                                   |
|   \\  /    A nd           | Web:      www.OpenFOAM.org                      |
|    \\/     M anipulation  |                                                 |
\*---------------------------------------------------------------------------*/
FoamFile
{
    version     2.0;
    format      ascii;
    class       volScalarField;
    location    "0.005";
    object      A1C2H;
}
// * * * * * * * * * * * * * * * * * * * * * * * * * * * * * * * * * * * * * //

dimensions      [0 0 0 0 0 0 0];

internalField   nonuniform List<scalar> 
250
(
2.13361e-10
2.15755e-10
2.11e-10
2.09595e-10
2.11742e-10
2.13794e-10
2.30513e-10
2.35008e-10
2.1174e-10
1.03602e-10
3.67182e-11
2.14868e-09
2.19292e-09
2.10762e-09
2.0823e-09
2.11585e-09
2.15928e-09
2.4351e-09
2.53751e-09
2.04057e-09
7.92373e-10
2.65721e-10
2.39973e-08
2.46906e-08
2.33703e-08
2.29909e-08
2.34449e-08
2.41742e-08
2.81532e-08
2.98382e-08
2.15633e-08
5.58322e-09
1.41845e-09
2.4196e-07
2.48783e-07
2.35663e-07
2.31987e-07
2.36012e-07
2.43486e-07
2.80037e-07
2.96352e-07
2.1134e-07
4.12919e-08
7.21592e-09
1.50457e-06
1.53504e-06
1.47604e-06
1.46008e-06
1.47521e-06
1.50964e-06
1.66791e-06
1.74772e-06
1.31901e-06
2.37564e-07
3.61648e-08
5.4639e-06
5.55869e-06
5.37405e-06
5.32556e-06
5.36684e-06
5.47624e-06
5.94744e-06
6.16801e-06
4.7953e-06
9.20975e-07
1.31104e-07
8.89425e-06
8.96398e-06
8.82466e-06
8.78962e-06
8.81366e-06
8.90401e-06
9.21956e-06
9.37163e-06
8.19377e-06
2.31373e-06
3.39419e-07
1.0583e-05
1.06291e-05
1.05274e-05
1.05028e-05
1.0514e-05
1.05819e-05
1.07853e-05
1.08842e-05
9.88328e-06
4.0203e-06
6.50566e-07
1.1499e-05
1.1534e-05
1.14468e-05
1.14266e-05
1.14268e-05
1.14869e-05
1.16172e-05
1.16664e-05
1.06267e-05
5.11859e-06
9.38393e-07
1.18314e-05
1.18709e-05
1.17834e-05
1.17636e-05
1.17539e-05
1.18171e-05
1.18935e-05
1.18858e-05
1.06796e-05
5.49503e-06
1.14649e-06
1.15948e-05
1.15029e-05
1.14819e-05
1.14641e-05
1.15319e-05
1.15655e-05
1.14969e-05
1.01251e-05
5.34393e-06
1.25535e-06
1.07622e-05
1.06702e-05
1.06486e-05
1.06245e-05
1.0691e-05
1.06876e-05
1.05627e-05
9.11572e-06
4.90134e-06
1.27241e-06
9.54003e-06
9.4549e-06
9.43463e-06
9.40519e-06
9.46271e-06
9.42852e-06
9.26085e-06
7.85515e-06
4.20044e-06
1.21727e-06
8.12499e-06
8.04824e-06
8.02969e-06
7.99897e-06
8.04227e-06
7.98868e-06
7.79501e-06
6.50711e-06
3.51791e-06
1.11671e-06
6.70901e-06
6.64517e-06
6.62979e-06
6.59825e-06
6.62716e-06
6.56337e-06
6.36312e-06
5.26069e-06
2.90792e-06
9.93147e-07
5.4219e-06
5.37169e-06
5.3591e-06
5.32933e-06
5.34592e-06
5.28043e-06
5.08851e-06
4.1822e-06
2.35889e-06
8.6515e-07
4.32282e-06
4.28445e-06
4.2743e-06
4.24853e-06
4.25594e-06
4.19478e-06
4.02027e-06
3.30242e-06
1.86735e-06
7.42417e-07
3.42262e-06
3.39393e-06
3.38567e-06
3.36478e-06
3.36603e-06
3.31285e-06
3.15816e-06
2.60574e-06
1.4837e-06
6.41165e-07
2.71041e-06
2.68837e-06
2.68124e-06
2.6635e-06
2.66052e-06
2.60875e-06
2.45943e-06
1.94731e-06
1.22013e-06
5.46971e-07
2.00508e-06
1.98998e-06
1.98408e-06
1.96923e-06
1.96355e-06
1.91982e-06
1.81795e-06
1.53653e-06
9.9256e-07
4.58354e-07
1.60583e-06
1.5969e-06
1.59246e-06
1.5822e-06
1.57446e-06
1.54206e-06
1.45804e-06
1.22524e-06
7.97991e-07
3.71609e-07
1.27237e-06
1.26532e-06
1.26137e-06
1.25183e-06
1.24539e-06
1.21499e-06
1.14906e-06
9.69694e-07
6.30937e-07
2.90073e-07
1.00819e-06
1.00059e-06
9.97264e-07
9.89683e-07
9.82865e-07
9.54526e-07
8.88455e-07
7.37748e-07
4.75075e-07
2.20152e-07
7.60861e-07
7.59888e-07
7.57112e-07
7.50617e-07
7.43218e-07
7.24665e-07
6.77676e-07
5.57851e-07
3.41522e-07
1.62939e-07
)
;

boundaryField
{
    fuel
    {
        type            fixedValue;
        value           uniform 0;
    }
    wall
    {
        type            zeroGradient;
    }
    outlet
    {
        type            zeroGradient;
    }
    frontAndBack
    {
        type            empty;
    }
    procBoundary3to0
    {
        type            processor;
        value           nonuniform List<scalar> 10(5.75218e-07 5.73198e-07 5.70751e-07 5.64667e-07 5.56764e-07 5.35796e-07 4.87457e-07 3.87002e-07 2.41633e-07 1.16085e-07);
    }
    procBoundary3to2
    {
        type            processor;
        value           nonuniform List<scalar> 
25
(
2.09148e-10
2.07309e-09
2.28287e-08
2.30271e-07
1.45206e-06
5.30099e-06
8.77086e-06
1.04892e-05
1.14083e-05
1.17331e-05
1.15498e-05
1.15498e-05
1.07264e-05
9.50528e-06
8.0843e-06
6.6662e-06
5.38137e-06
4.28819e-06
3.39551e-06
2.68874e-06
1.98908e-06
1.5976e-06
1.26572e-06
1.00387e-06
7.56661e-07
)
;
    }
}


// ************************************************************************* //
