/*--------------------------------*- C++ -*----------------------------------*\
| =========                 |                                                 |
| \\      /  F ield         | OpenFOAM: The Open Source CFD Toolbox           |
|  \\    /   O peration     | Version:  dev                                   |
|   \\  /    A nd           | Web:      www.OpenFOAM.org                      |
|    \\/     M anipulation  |                                                 |
\*---------------------------------------------------------------------------*/
FoamFile
{
    version     2.0;
    format      ascii;
    class       volScalarField;
    location    "0.005";
    object      A2C2HA*;
}
// * * * * * * * * * * * * * * * * * * * * * * * * * * * * * * * * * * * * * //

dimensions      [0 0 0 0 0 0 0];

internalField   nonuniform List<scalar> 
1989
(
5.65031e-15
6.47546e-15
7.12051e-15
7.69576e-15
8.15222e-15
8.57991e-15
8.87206e-15
9.13098e-15
9.32233e-15
9.50007e-15
9.61493e-15
9.69985e-15
9.73659e-15
9.78072e-15
9.79377e-15
9.777e-15
9.73686e-15
9.65573e-15
9.5306e-15
9.34665e-15
9.15789e-15
8.87308e-15
8.56696e-15
8.15947e-15
7.68369e-15
7.09268e-15
6.4424e-15
5.64992e-15
4.78546e-15
3.9117e-15
2.97081e-15
2.3109e-15
1.62858e-15
1.16984e-15
7.85489e-16
5.79675e-16
4.47893e-16
4.42974e-16
5.53418e-16
3.75477e-16
2.97908e-16
2.99479e-16
3.91145e-16
5.25348e-16
7.88534e-16
1.10571e-15
1.58598e-15
2.04748e-15
2.7399e-15
3.33291e-15
3.96658e-15
4.60602e-15
5.10336e-15
5.52481e-15
5.87085e-15
6.18234e-15
6.40422e-15
6.59409e-15
6.73535e-15
6.83175e-15
6.89155e-15
6.95389e-15
6.98032e-15
6.99557e-15
7.00552e-15
6.99306e-15
6.9815e-15
6.92143e-15
6.85428e-15
6.75354e-15
6.61291e-15
6.40466e-15
6.1741e-15
5.87546e-15
5.51702e-15
5.08235e-15
4.57814e-15
3.96463e-15
3.3143e-15
2.71035e-15
2.02781e-15
1.56683e-15
1.09146e-15
7.77838e-16
5.18504e-16
3.86316e-16
2.95722e-16
2.94373e-16
3.71662e-16
2.47322e-16
1.9405e-16
1.93297e-16
2.53173e-16
3.4651e-16
5.11278e-16
7.24972e-16
1.05035e-15
1.36426e-15
1.84754e-15
2.25746e-15
2.70678e-15
3.16704e-15
3.52247e-15
3.83627e-15
4.0989e-15
4.33357e-15
4.5096e-15
4.6588e-15
4.76987e-15
4.85886e-15
4.91073e-15
4.95923e-15
4.9793e-15
4.9944e-15
5.00215e-15
4.99247e-15
4.98085e-15
4.93316e-15
4.87599e-15
4.78405e-15
4.6716e-15
4.5092e-15
4.3285e-15
4.10133e-15
3.83073e-15
3.50671e-15
3.14564e-15
2.70859e-15
2.24686e-15
1.82464e-15
1.35108e-15
1.03801e-15
7.15854e-16
5.04506e-16
3.42035e-16
2.50046e-16
1.90945e-16
1.91797e-16
2.44815e-16
1.59557e-16
1.2382e-16
1.22702e-16
1.60365e-16
2.19743e-16
3.3083e-16
4.63328e-16
6.79202e-16
8.88944e-16
1.21274e-15
1.49443e-15
1.80001e-15
2.12436e-15
2.36105e-15
2.58776e-15
2.76805e-15
2.93361e-15
3.05605e-15
3.16393e-15
3.2415e-15
3.30852e-15
3.34729e-15
3.3833e-15
3.39769e-15
3.41095e-15
3.41679e-15
3.40956e-15
3.39946e-15
3.3635e-15
3.32085e-15
3.2515e-15
3.17231e-15
3.05613e-15
2.93088e-15
2.76903e-15
2.58419e-15
2.35055e-15
2.1088e-15
1.80241e-15
1.48621e-15
1.19644e-15
8.79831e-16
6.70823e-16
4.57439e-16
3.26275e-16
2.16708e-16
1.58302e-16
1.21158e-16
1.2232e-16
1.57923e-16
1.00654e-16
7.74894e-17
7.67329e-17
9.95834e-17
1.34905e-16
2.06365e-16
2.93346e-16
4.29512e-16
5.64121e-16
7.74561e-16
9.64225e-16
1.1658e-15
1.38633e-15
1.54339e-15
1.69908e-15
1.81982e-15
1.93661e-15
2.01862e-15
2.09378e-15
2.14597e-15
2.19282e-15
2.21909e-15
2.24424e-15
2.25387e-15
2.26359e-15
2.26773e-15
2.2627e-15
2.25561e-15
2.23029e-15
2.20131e-15
2.15277e-15
2.09921e-15
2.0189e-15
1.93516e-15
1.82008e-15
1.69681e-15
1.53631e-15
1.37602e-15
1.16781e-15
9.58105e-16
7.63188e-16
5.58031e-16
4.23863e-16
2.89829e-16
2.03191e-16
1.32981e-16
9.82921e-17
7.57619e-17
7.65846e-17
9.95933e-17
6.23003e-17
4.75679e-17
4.71826e-17
6.01238e-17
8.08139e-17
1.25697e-16
1.80606e-16
2.62388e-16
3.53224e-16
4.8081e-16
6.05302e-16
7.34073e-16
8.80397e-16
9.81973e-16
1.08432e-15
1.16435e-15
1.24281e-15
1.29695e-15
1.34789e-15
1.38226e-15
1.41413e-15
1.43135e-15
1.44853e-15
1.4548e-15
1.46148e-15
1.46432e-15
1.46092e-15
1.45631e-15
1.43895e-15
1.41986e-15
1.38679e-15
1.35139e-15
1.29728e-15
1.24208e-15
1.16438e-15
1.08283e-15
9.77212e-16
8.7384e-16
7.35883e-16
5.99927e-16
4.73794e-16
3.49393e-16
2.59282e-16
1.77938e-16
1.2379e-16
7.96157e-17
5.93294e-17
4.65679e-17
4.70006e-17
6.16594e-17
3.81609e-17
2.86222e-17
2.82121e-17
3.51385e-17
4.85638e-17
7.4223e-17
1.07378e-16
1.55312e-16
2.15124e-16
2.88225e-16
3.72673e-16
4.49321e-16
5.42073e-16
6.07952e-16
6.7167e-16
7.24998e-16
7.75215e-16
8.1084e-16
8.44657e-16
8.66769e-16
8.88e-16
8.98942e-16
9.10441e-16
9.14407e-16
9.18842e-16
9.20739e-16
9.18474e-16
9.1565e-16
9.03987e-16
8.9174e-16
8.69667e-16
8.46773e-16
8.11103e-16
7.74872e-16
7.24906e-16
6.70544e-16
6.04882e-16
5.38207e-16
4.4994e-16
3.68375e-16
2.84767e-16
2.12989e-16
1.53548e-16
1.05694e-16
7.31749e-17
4.78103e-17
3.46654e-17
2.78368e-17
2.82702e-17
3.77636e-17
2.2493e-17
1.68343e-17
1.64368e-17
2.00847e-17
2.80088e-17
4.35777e-17
6.29831e-17
8.95528e-17
1.25294e-16
1.69042e-16
2.21098e-16
2.67863e-16
3.23142e-16
3.65636e-16
4.03823e-16
4.37708e-16
4.6877e-16
4.91069e-16
5.12573e-16
5.26308e-16
5.3988e-16
5.46631e-16
5.54058e-16
5.56485e-16
5.59319e-16
5.60559e-16
5.591e-16
5.57413e-16
5.49864e-16
5.42265e-16
5.28135e-16
5.13886e-16
4.91285e-16
4.6863e-16
4.37662e-16
4.02981e-16
3.63739e-16
3.2075e-16
2.68176e-16
2.18648e-16
1.66826e-16
1.24008e-16
8.86312e-17
6.20201e-17
4.29452e-17
2.75609e-17
1.98056e-17
1.62158e-17
1.66242e-17
2.22542e-17
1.30672e-17
9.50743e-18
9.24528e-18
1.11951e-17
1.57759e-17
2.43266e-17
3.59787e-17
5.09066e-17
7.25785e-17
9.67859e-17
1.25998e-16
1.54939e-16
1.86446e-16
2.12621e-16
2.35296e-16
2.56126e-16
2.74625e-16
2.88066e-16
3.01275e-16
3.09511e-16
3.17933e-16
3.21957e-16
3.2658e-16
3.28011e-16
3.29764e-16
3.30613e-16
3.29639e-16
3.28667e-16
3.23958e-16
3.19404e-16
3.10627e-16
3.02071e-16
2.88218e-16
2.74579e-16
2.56153e-16
2.34685e-16
2.11468e-16
1.85294e-16
1.54714e-16
1.24759e-16
9.54808e-17
7.1864e-17
5.0328e-17
3.54258e-17
2.39729e-17
1.55168e-17
1.1037e-17
9.1211e-18
9.39214e-18
1.29151e-17
7.34498e-18
5.32039e-18
5.11139e-18
6.08914e-18
8.59761e-18
1.3185e-17
1.98293e-17
2.80858e-17
4.07475e-17
5.47538e-17
7.18572e-17
8.82741e-17
1.04577e-16
1.19421e-16
1.32333e-16
1.44064e-16
1.54779e-16
1.62867e-16
1.70904e-16
1.75623e-16
1.80871e-16
1.83183e-16
1.85917e-16
1.86727e-16
1.87775e-16
1.88511e-16
1.87707e-16
1.87169e-16
1.84379e-16
1.81746e-16
1.76281e-16
1.71372e-16
1.62973e-16
1.54768e-16
1.44079e-16
1.31964e-16
1.18777e-16
1.0396e-16
8.79665e-17
7.1116e-17
5.41225e-17
4.03566e-17
2.77529e-17
1.95172e-17
1.29883e-17
8.45872e-18
6.00265e-18
5.04322e-18
5.25702e-18
7.2797e-18
4.05595e-18
2.87178e-18
2.72349e-18
3.25448e-18
4.57706e-18
6.98508e-18
1.05263e-17
1.47894e-17
2.18425e-17
3.01611e-17
3.96585e-17
4.96421e-17
5.86765e-17
6.72687e-17
7.47002e-17
8.14607e-17
8.77321e-17
9.17907e-17
9.58906e-17
9.85833e-17
1.01169e-16
1.02478e-16
1.04071e-16
1.04522e-16
1.05139e-16
1.05178e-16
1.05098e-16
1.04807e-16
1.03183e-16
1.01677e-16
9.8968e-17
9.61564e-17
9.18561e-17
8.77236e-17
8.1482e-17
7.44761e-17
6.68967e-17
5.83338e-17
4.93936e-17
3.92487e-17
2.98238e-17
2.16539e-17
1.46114e-17
1.03861e-17
6.874e-18
4.50615e-18
3.20609e-18
2.68973e-18
2.8372e-18
4.01441e-18
2.13717e-18
1.49764e-18
1.41586e-18
1.66726e-18
2.37549e-18
3.55892e-18
5.46192e-18
7.66472e-18
1.14583e-17
1.58101e-17
2.06074e-17
2.60273e-17
3.12741e-17
3.67326e-17
4.10333e-17
4.48418e-17
4.85236e-17
5.10436e-17
5.36189e-17
5.51449e-17
5.67557e-17
5.75034e-17
5.84439e-17
5.86931e-17
5.90518e-17
5.91233e-17
5.90257e-17
5.88674e-17
5.7915e-17
5.70521e-17
5.53677e-17
5.37596e-17
5.1078e-17
4.85247e-17
4.48484e-17
4.09022e-17
3.6524e-17
3.1071e-17
2.58475e-17
2.0412e-17
1.56422e-17
1.1362e-17
7.5706e-18
5.39266e-18
3.49479e-18
2.33741e-18
1.64338e-18
1.39778e-18
1.47987e-18
2.11514e-18
1.09828e-18
7.62934e-19
7.17397e-19
8.31489e-19
1.17491e-18
1.75813e-18
2.71619e-18
3.82107e-18
5.76488e-18
8.18605e-18
1.06249e-17
1.35629e-17
1.62862e-17
1.89531e-17
2.10944e-17
2.30259e-17
2.48744e-17
2.61797e-17
2.75353e-17
2.83442e-17
2.92471e-17
2.96415e-17
3.01351e-17
3.02697e-17
3.04796e-17
3.05501e-17
3.0463e-17
3.03792e-17
2.98649e-17
2.94076e-17
2.84664e-17
2.75971e-17
2.61962e-17
2.48754e-17
2.30308e-17
2.10221e-17
1.88423e-17
1.61774e-17
1.34578e-17
1.05239e-17
8.10397e-18
5.71622e-18
3.77323e-18
2.67937e-18
1.73e-18
1.15623e-18
8.19851e-19
7.08396e-19
7.54115e-19
1.08751e-18
5.52241e-19
3.79796e-19
3.53172e-19
4.07413e-19
5.67362e-19
8.46458e-19
1.29507e-18
1.83566e-18
2.7473e-18
3.97399e-18
5.14357e-18
6.74583e-18
8.10726e-18
9.59124e-18
1.0781e-17
1.18064e-17
1.2816e-17
1.34994e-17
1.42345e-17
1.46629e-17
1.51525e-17
1.53585e-17
1.56126e-17
1.5679e-17
1.57896e-17
1.5833e-17
1.57802e-17
1.57398e-17
1.54783e-17
1.52383e-17
1.4727e-17
1.42639e-17
1.35065e-17
1.28166e-17
1.18077e-17
1.07419e-17
9.53159e-18
8.04714e-18
6.68552e-18
5.09418e-18
3.93939e-18
2.72372e-18
1.81254e-18
1.27745e-18
8.33555e-19
5.58585e-19
4.01875e-19
3.48921e-19
3.7556e-19
5.47137e-19
2.71682e-19
1.84999e-19
1.7047e-19
1.95288e-19
2.67868e-19
3.97311e-19
5.99613e-19
8.62259e-19
1.26901e-18
1.84221e-18
2.38227e-18
3.14063e-18
3.75401e-18
4.48898e-18
5.05564e-18
5.58401e-18
6.08651e-18
6.44112e-18
6.81826e-18
7.03916e-18
7.2908e-18
7.394e-18
7.5305e-18
7.56137e-18
7.61955e-18
7.64318e-18
7.61446e-18
7.59675e-18
7.45677e-18
7.33435e-18
7.07028e-18
6.8319e-18
6.44388e-18
6.08589e-18
5.58521e-18
5.03676e-18
4.45941e-18
3.72579e-18
3.11112e-18
2.36007e-18
1.82806e-18
1.25836e-18
8.51538e-19
5.91545e-19
3.91443e-19
2.6388e-19
1.92737e-19
1.68526e-19
1.83035e-19
2.69317e-19
1.30776e-19
8.83157e-20
8.0767e-20
9.17333e-20
1.23881e-19
1.82228e-19
2.70874e-19
3.94905e-19
5.69659e-19
8.2835e-19
1.07008e-18
1.41059e-18
1.68495e-18
2.01677e-18
2.267e-18
2.50889e-18
2.73518e-18
2.89739e-18
3.06924e-18
3.16978e-18
3.28375e-18
3.33049e-18
3.395e-18
3.4082e-18
3.4352e-18
3.44624e-18
3.43295e-18
3.42572e-18
3.35957e-18
3.30416e-18
3.18395e-18
3.07627e-18
2.89884e-18
2.73508e-18
2.50986e-18
2.25912e-18
2.00334e-18
1.67232e-18
1.39738e-18
1.06031e-18
8.22655e-19
5.65124e-19
3.90146e-19
2.673e-19
1.7963e-19
1.2212e-19
9.05935e-20
7.99017e-20
8.74324e-20
1.29708e-19
6.16273e-20
4.13696e-20
3.75979e-20
4.22926e-20
5.62275e-20
8.18665e-20
1.1975e-19
1.76395e-19
2.49096e-19
3.62259e-19
4.67443e-19
6.14299e-19
7.34577e-19
8.78193e-19
9.86227e-19
1.09199e-18
1.19067e-18
1.26136e-18
1.33655e-18
1.38024e-18
1.43001e-18
1.4502e-18
1.47917e-18
1.48459e-18
1.49661e-18
1.50154e-18
1.49567e-18
1.49286e-18
1.46319e-18
1.43919e-18
1.38652e-18
1.34007e-18
1.26211e-18
1.19069e-18
1.09263e-18
9.83105e-19
8.72293e-19
7.29085e-19
6.08727e-19
4.63298e-19
3.59983e-19
2.47242e-19
1.74379e-19
1.18217e-19
8.0748e-20
5.54685e-20
4.17975e-20
3.72222e-20
4.0983e-20
6.11576e-20
2.84546e-20
1.90323e-20
1.72097e-20
1.91651e-20
2.50898e-20
3.61083e-20
5.19675e-20
7.693e-20
1.0639e-19
1.54477e-19
1.98981e-19
2.60175e-19
3.11598e-19
3.71437e-19
4.16971e-19
4.61392e-19
5.03213e-19
5.32815e-19
5.64678e-19
5.82946e-19
6.04025e-19
6.12407e-19
6.24879e-19
6.27016e-19
6.32186e-19
6.34309e-19
6.31811e-19
6.30772e-19
6.18019e-19
6.08016e-19
5.85643e-19
5.66331e-19
5.33182e-19
5.03238e-19
4.61756e-19
4.15785e-19
3.68933e-19
3.09273e-19
2.57929e-19
1.97294e-19
1.53579e-19
1.05652e-19
7.61131e-20
5.13297e-20
3.56392e-20
2.47704e-20
1.89554e-20
1.70503e-20
1.88673e-20
2.82537e-20
1.28839e-20
8.60492e-21
7.75003e-21
8.54603e-21
1.10219e-20
1.56669e-20
2.21931e-20
3.28273e-20
4.4516e-20
6.44068e-20
8.27294e-20
1.07444e-19
1.28862e-19
1.52935e-19
1.71631e-19
1.89599e-19
2.06815e-19
2.1877e-19
2.31883e-19
2.39251e-19
2.47925e-19
2.51279e-19
2.56461e-19
2.5727e-19
2.59423e-19
2.60312e-19
2.59281e-19
2.58921e-19
2.53628e-19
2.49606e-19
2.40373e-19
2.32608e-19
2.18933e-19
2.06829e-19
1.89786e-19
1.71198e-19
1.51909e-19
1.27892e-19
1.06586e-19
8.20702e-20
6.40596e-20
4.42291e-20
3.25082e-20
2.19354e-20
1.54749e-20
1.08904e-20
8.45917e-21
7.68378e-21
8.53594e-21
1.28002e-20
5.72527e-21
3.82485e-21
3.43482e-21
3.75284e-21
4.77163e-21
6.69751e-21
9.34034e-21
1.37467e-20
1.83028e-20
2.63318e-20
3.36858e-20
4.33903e-20
5.20788e-20
6.14576e-20
6.89354e-20
7.59548e-20
8.28383e-20
8.75026e-20
9.27484e-20
9.56179e-20
9.90876e-20
1.00381e-19
1.02468e-19
1.02761e-19
1.03631e-19
1.03992e-19
1.0358e-19
1.03465e-19
1.01335e-19
9.97729e-20
9.60696e-20
9.30484e-20
8.757e-20
8.28443e-20
7.6044e-20
6.87826e-20
6.10516e-20
5.16867e-20
4.30738e-20
3.34385e-20
2.62014e-20
1.81937e-20
1.36257e-20
9.2391e-21
6.62062e-21
4.71864e-21
3.71758e-21
3.40778e-21
3.79658e-21
5.69129e-21
2.49851e-21
1.6718e-21
1.49846e-21
1.62363e-21
2.03713e-21
2.8241e-21
3.87918e-21
5.66452e-21
7.41449e-21
1.05867e-20
1.34721e-20
1.71887e-20
2.06279e-20
2.41773e-20
2.70947e-20
2.97526e-20
3.24296e-20
3.41923e-20
3.62344e-20
3.73161e-20
3.86662e-20
3.9148e-20
3.99645e-20
4.00654e-20
4.04067e-20
4.05502e-20
4.03897e-20
4.03572e-20
3.95246e-20
3.89375e-20
3.74923e-20
3.63531e-20
3.42186e-20
3.24321e-20
2.97928e-20
2.70431e-20
2.40218e-20
2.04741e-20
1.70756e-20
1.33829e-20
1.05395e-20
7.37406e-21
5.61977e-21
3.84034e-21
2.79392e-21
2.01615e-21
1.60958e-21
1.4876e-21
1.6604e-21
2.48504e-21
1.07132e-21
7.18614e-22
6.43496e-22
6.92204e-22
8.57959e-22
1.17539e-21
1.59151e-21
2.30174e-21
2.96597e-21
4.19662e-21
5.3068e-21
6.70043e-21
8.03166e-21
9.34141e-21
1.04545e-20
1.14337e-20
1.24493e-20
1.30966e-20
1.3872e-20
1.42679e-20
1.47802e-20
1.49539e-20
1.52651e-20
1.52982e-20
1.54286e-20
1.54841e-20
1.54234e-20
1.5416e-20
1.50987e-20
1.48847e-20
1.43347e-20
1.39174e-20
1.31065e-20
1.24504e-20
1.14511e-20
1.04379e-20
9.28349e-21
7.97306e-21
6.66104e-21
5.2758e-21
4.18018e-21
2.9514e-21
2.28558e-21
1.5769e-21
1.16375e-21
8.49792e-22
6.86688e-22
6.39197e-22
7.14087e-22
1.06609e-21
4.51514e-22
3.03792e-22
2.72029e-22
2.90821e-22
3.5651e-22
4.83012e-22
6.45434e-22
9.23684e-22
1.17339e-21
1.64355e-21
2.06374e-21
2.57745e-21
3.0825e-21
3.55576e-21
3.97229e-21
4.32472e-21
4.70192e-21
4.93383e-21
5.22201e-21
5.36314e-21
5.55337e-21
5.6142e-21
5.73005e-21
5.74033e-21
5.789e-21
5.81006e-21
5.7876e-21
5.78681e-21
5.66865e-21
5.59271e-21
5.38788e-21
5.23889e-21
4.93745e-21
4.70252e-21
4.33203e-21
3.96728e-21
3.53475e-21
3.06077e-21
2.56402e-21
2.05336e-21
1.6381e-21
1.1683e-21
9.17971e-22
6.40029e-22
4.7859e-22
3.53378e-22
2.88686e-22
2.70351e-22
3.02019e-22
4.49527e-22
1.87102e-22
1.26315e-22
1.13206e-22
1.20411e-22
1.46165e-22
1.95993e-22
2.58811e-22
3.66381e-22
4.59507e-22
6.36813e-22
7.93678e-22
9.80508e-22
1.16872e-21
1.33692e-21
1.49023e-21
1.61465e-21
1.75229e-21
1.83368e-21
1.93884e-21
1.98808e-21
2.05742e-21
2.07819e-21
2.1205e-21
2.12348e-21
2.1413e-21
2.14915e-21
2.14101e-21
2.14147e-21
2.09829e-21
2.07196e-21
1.99706e-21
1.945e-21
1.83499e-21
1.75262e-21
1.61766e-21
1.48885e-21
1.32946e-21
1.16086e-21
9.75993e-22
7.90329e-22
6.35096e-22
4.57779e-22
3.64403e-22
2.56839e-22
1.94336e-22
1.44979e-22
1.19596e-22
1.1256e-22
1.25629e-22
1.86361e-22
7.62537e-23
5.16634e-23
4.63823e-23
4.91314e-23
5.91238e-23
7.85229e-23
1.02608e-22
1.43692e-22
1.78173e-22
2.4428e-22
3.02161e-22
3.69389e-22
4.38425e-22
4.97466e-22
5.53069e-22
5.96328e-22
6.45827e-22
6.73913e-22
7.11716e-22
7.28594e-22
7.53489e-22
7.60429e-22
7.75633e-22
7.76425e-22
7.8284e-22
7.85723e-22
7.82824e-22
7.83267e-22
7.67738e-22
7.58775e-22
7.31805e-22
7.13924e-22
6.74388e-22
6.46001e-22
5.97541e-22
5.5275e-22
4.94858e-22
4.35641e-22
3.67886e-22
3.01122e-22
2.43774e-22
1.77605e-22
1.43021e-22
1.01897e-22
7.791e-23
5.86812e-23
4.88242e-23
4.61363e-23
5.14022e-23
7.5983e-23
3.05723e-23
2.079e-23
1.87121e-23
1.97574e-23
2.35947e-23
3.10571e-23
4.02118e-23
5.57201e-23
6.83968e-23
9.27844e-23
1.13921e-22
1.37895e-22
1.62863e-22
1.83395e-22
2.03293e-22
2.18154e-22
2.35738e-22
2.453e-22
2.58718e-22
2.64422e-22
2.73247e-22
2.75525e-22
2.80917e-22
2.81098e-22
2.83377e-22
2.84424e-22
2.83406e-22
2.83664e-22
2.7815e-22
2.75147e-22
2.65557e-22
2.59502e-22
2.45474e-22
2.35827e-22
2.18636e-22
2.03245e-22
1.82498e-22
1.61893e-22
1.374e-22
1.13612e-22
9.26484e-23
6.82166e-23
5.54979e-23
3.99583e-23
3.0833e-23
2.34314e-23
1.9643e-23
1.86199e-23
2.06919e-23
3.04753e-23
1.20611e-23
8.23363e-24
7.43487e-24
7.83095e-24
9.28947e-24
1.21246e-23
1.55726e-23
2.13586e-23
2.59841e-23
3.4887e-23
4.2529e-23
5.10067e-23
5.99233e-23
6.70084e-23
7.40417e-23
7.90975e-23
8.5276e-23
8.84961e-23
9.32058e-23
9.51112e-23
9.8206e-23
9.89424e-23
1.00833e-22
1.00862e-22
1.01662e-22
1.02038e-22
1.01685e-22
1.01812e-22
9.98756e-23
9.88823e-23
9.55093e-23
9.34824e-23
8.85605e-23
8.53194e-23
7.92869e-23
7.40489e-23
6.67049e-23
5.95888e-23
5.08466e-23
4.24419e-23
3.48557e-23
2.59292e-23
2.12868e-23
1.54832e-23
1.20437e-23
9.22998e-24
7.78893e-24
7.40075e-24
8.1973e-24
1.20271e-23
4.68317e-24
3.21022e-24
2.91007e-24
3.05963e-24
3.60826e-24
4.67158e-24
5.95754e-24
8.09046e-24
9.76426e-24
1.29793e-23
1.57147e-23
1.86869e-23
2.18331e-23
2.4261e-23
2.6717e-23
2.84226e-23
3.05709e-23
3.1645e-23
3.3281e-23
3.39113e-23
3.49855e-23
3.52204e-23
3.58762e-23
3.58746e-23
3.61526e-23
3.62866e-23
3.61659e-23
3.62223e-23
3.55492e-23
3.52241e-23
3.405e-23
3.33779e-23
3.16693e-23
3.0591e-23
2.8496e-23
2.67278e-23
2.41599e-23
2.17186e-23
1.86363e-23
1.56919e-23
1.29744e-23
9.7483e-24
8.06797e-24
5.92634e-24
4.64272e-24
3.58686e-24
3.0444e-24
2.89764e-24
3.19698e-24
4.67148e-24
1.79011e-24
1.23267e-24
1.12234e-24
1.17858e-24
1.38278e-24
1.7763e-24
2.25088e-24
3.0274e-24
3.62746e-24
4.77514e-24
5.74394e-24
6.77648e-24
7.8732e-24
8.69938e-24
9.54617e-24
1.01172e-23
1.0856e-23
1.12112e-23
1.17736e-23
1.19802e-23
1.23492e-23
1.24233e-23
1.26484e-23
1.2644e-23
1.27396e-23
1.27869e-23
1.27461e-23
1.27698e-23
1.25381e-23
1.24328e-23
1.20282e-23
1.18074e-23
1.12205e-23
1.0865e-23
1.01452e-23
9.55275e-24
8.66621e-24
7.83424e-24
6.7609e-24
5.73874e-24
4.77563e-24
3.62314e-24
3.02063e-24
2.24011e-24
1.76614e-24
1.37519e-24
1.17313e-24
1.11788e-24
1.22792e-24
1.78619e-24
6.73737e-25
4.66322e-25
4.26622e-25
4.4766e-25
5.22867e-25
6.66511e-25
8.39694e-25
1.11874e-24
1.33165e-24
1.73632e-24
2.07555e-24
2.43064e-24
2.80808e-24
3.08714e-24
3.3751e-24
3.56487e-24
3.81583e-24
3.93236e-24
4.12351e-24
4.19064e-24
4.31607e-24
4.33911e-24
4.41561e-24
4.41283e-24
4.44533e-24
4.46186e-24
4.4483e-24
4.45777e-24
4.37887e-24
4.34506e-24
4.20719e-24
4.13525e-24
3.93591e-24
3.81979e-24
3.57531e-24
3.37828e-24
3.07645e-24
2.79493e-24
2.42601e-24
2.07469e-24
1.73726e-24
1.33062e-24
1.11682e-24
8.36023e-25
6.62984e-25
5.20212e-25
4.45744e-25
4.25051e-25
4.64652e-25
6.72458e-25
2.49715e-25
1.73869e-25
1.59871e-25
1.67687e-25
1.95094e-25
2.46795e-25
3.09245e-25
4.08168e-25
4.82869e-25
6.23683e-25
7.41006e-25
8.61783e-25
9.89886e-25
1.08339e-24
1.17982e-24
1.24246e-24
1.32647e-24
1.36441e-24
1.42859e-24
1.45019e-24
1.49233e-24
1.49941e-24
1.52509e-24
1.52374e-24
1.53467e-24
1.54039e-24
1.53594e-24
1.5396e-24
1.51304e-24
1.5023e-24
1.45586e-24
1.43265e-24
1.36577e-24
1.3282e-24
1.24623e-24
1.1812e-24
1.08001e-24
9.8548e-25
8.6047e-25
7.4103e-25
6.2427e-25
4.82677e-25
4.07675e-25
3.08008e-25
2.45589e-25
1.9418e-25
1.67023e-25
1.59327e-25
1.73292e-25
2.49311e-25
9.11589e-26
6.39164e-26
5.90759e-26
6.19529e-26
7.18382e-26
9.01811e-26
1.12422e-25
1.46997e-25
1.72892e-25
2.2121e-25
2.61249e-25
3.01841e-25
3.44658e-25
3.75725e-25
4.07455e-25
4.27987e-25
4.55651e-25
4.67915e-25
4.89172e-25
4.96051e-25
5.10026e-25
5.12165e-25
5.2068e-25
5.20098e-25
5.23723e-25
5.25685e-25
5.24252e-25
5.25626e-25
5.16794e-25
5.13416e-25
4.9798e-25
4.90569e-25
4.68424e-25
4.56394e-25
4.29309e-25
4.08011e-25
3.74682e-25
3.43193e-25
3.01496e-25
2.61367e-25
2.215e-25
1.72885e-25
1.46894e-25
1.1201e-25
8.97746e-26
7.15281e-26
6.17269e-26
5.88908e-26
6.37208e-26
9.10358e-26
3.27786e-26
2.31745e-26
2.15315e-26
2.25762e-26
2.61072e-26
3.25208e-26
4.03402e-26
5.22473e-26
6.11107e-26
7.74467e-26
9.09174e-26
1.0439e-25
1.18455e-25
1.28691e-25
1.38925e-25
1.45606e-25
1.54551e-25
1.58485e-25
1.65416e-25
1.67585e-25
1.72155e-25
1.7279e-25
1.75574e-25
1.7534e-25
1.76527e-25
1.77191e-25
1.76739e-25
1.7724e-25
1.74344e-25
1.73295e-25
1.68236e-25
1.65897e-25
1.58671e-25
1.54856e-25
1.46062e-25
1.39138e-25
1.28376e-25
1.17971e-25
1.04312e-25
9.09942e-26
7.75759e-26
6.11286e-26
5.22378e-26
4.02041e-26
3.23861e-26
2.60038e-26
2.25007e-26
2.14698e-26
2.31096e-26
3.27429e-26
1.16105e-26
8.29e-27
7.74384e-27
8.1129e-27
9.36477e-27
1.15744e-26
1.42874e-26
1.83248e-26
2.13193e-26
2.67578e-26
3.12206e-26
3.56361e-26
4.01645e-26
4.3512e-26
4.67369e-26
4.88932e-26
5.17295e-26
5.29817e-26
5.52006e-26
5.58784e-26
5.7351e-26
5.75355e-26
5.84318e-26
5.83426e-26
5.87253e-26
5.89476e-26
5.88077e-26
5.89865e-26
5.80509e-26
5.77289e-26
5.60966e-26
5.53671e-26
5.30478e-26
5.18479e-26
4.90493e-26
4.6815e-26
4.34193e-26
4.00049e-26
3.56252e-26
3.12589e-26
2.68116e-26
2.13324e-26
1.83317e-26
1.42426e-26
1.15305e-26
9.33081e-27
8.08817e-27
7.72376e-27
8.26897e-27
1.16008e-26
4.0519e-27
2.9259e-27
2.74873e-27
2.87535e-27
3.31568e-27
4.06589e-27
4.99461e-27
6.34125e-27
7.33986e-27
9.12155e-27
1.05757e-26
1.20056e-26
1.34285e-26
1.45168e-26
1.55081e-26
1.61936e-26
1.70783e-26
1.74702e-26
1.81687e-26
1.83775e-26
1.88451e-26
1.88971e-26
1.91811e-26
1.91484e-26
1.92698e-26
1.93432e-26
1.93011e-26
1.93634e-26
1.90659e-26
1.89684e-26
1.84508e-26
1.82253e-26
1.74938e-26
1.7122e-26
1.62475e-26
1.55349e-26
1.44901e-26
1.3376e-26
1.20083e-26
1.05924e-26
9.14302e-27
7.34662e-27
6.34766e-27
4.97977e-27
4.05188e-27
3.30467e-27
2.86743e-27
2.74238e-27
2.91928e-27
4.04955e-27
1.39344e-27
1.01889e-27
9.62868e-28
1.00559e-27
1.15868e-27
1.40991e-27
1.72353e-27
2.16476e-27
2.49367e-27
3.06776e-27
3.53295e-27
3.99124e-27
4.42512e-27
4.77629e-27
5.0749e-27
5.28665e-27
5.5598e-27
5.67914e-27
5.89586e-27
5.95872e-27
6.10492e-27
6.11914e-27
6.20757e-27
6.19594e-27
6.23382e-27
6.25771e-27
6.24537e-27
6.26664e-27
6.17358e-27
6.14453e-27
5.98317e-27
5.91462e-27
5.68784e-27
5.57511e-27
5.30516e-27
5.08369e-27
4.76875e-27
4.4079e-27
3.99485e-27
3.53957e-27
3.07611e-27
2.49676e-27
2.1686e-27
1.71848e-27
1.40552e-27
1.15512e-27
1.00313e-27
9.60934e-28
1.01687e-27
1.39298e-27
4.72388e-28
3.50166e-28
3.3288e-28
3.47392e-28
3.99665e-28
4.82819e-28
5.87311e-28
7.29052e-28
8.36278e-28
1.01809e-27
1.16384e-27
1.30931e-27
1.43754e-27
1.54855e-27
1.63786e-27
1.7009e-27
1.78449e-27
1.81972e-27
1.88595e-27
1.9044e-27
1.94932e-27
1.95305e-27
1.98008e-27
1.97607e-27
1.98766e-27
1.99533e-27
1.99184e-27
1.99896e-27
1.97036e-27
1.96187e-27
1.9124e-27
1.89205e-27
1.82297e-27
1.78967e-27
1.70714e-27
1.64074e-27
1.54615e-27
1.43247e-27
1.31144e-27
1.16606e-27
1.02129e-27
8.3767e-28
7.31057e-28
5.85497e-28
4.81465e-28
3.98488e-28
3.46643e-28
3.32352e-28
3.49581e-28
4.72346e-28
1.58253e-28
1.19096e-28
1.1391e-28
1.18961e-28
1.3635e-28
1.63732e-28
1.9814e-28
2.42759e-28
2.77585e-28
3.34172e-28
3.7874e-28
4.24181e-28
4.61402e-28
4.95429e-28
5.22191e-28
5.4033e-28
5.65612e-28
5.7567e-28
5.95593e-28
6.00862e-28
6.1441e-28
6.15342e-28
6.23452e-28
6.22104e-28
6.25576e-28
6.28016e-28
6.27067e-28
6.29405e-28
6.2077e-28
6.18341e-28
6.03434e-28
5.97531e-28
5.76867e-28
5.67323e-28
5.42393e-28
5.23167e-28
4.94622e-28
4.60212e-28
4.25134e-28
3.79265e-28
3.35316e-28
2.78246e-28
2.4372e-28
1.97466e-28
1.63327e-28
1.35925e-28
1.18792e-28
1.13761e-28
1.18934e-28
1.58278e-28
5.3599e-29
4.10915e-29
3.9525e-29
4.1404e-29
4.71764e-29
5.63241e-29
6.77439e-29
8.17911e-29
9.32393e-29
1.10829e-28
1.24445e-28
1.38475e-28
1.4954e-28
1.59717e-28
1.67824e-28
1.73009e-28
1.80598e-28
1.83451e-28
1.89409e-28
1.90907e-28
1.94979e-28
1.95194e-28
1.97622e-28
1.97168e-28
1.98206e-28
1.98988e-28
1.98741e-28
1.99512e-28
1.96911e-28
1.96222e-28
1.91736e-28
1.90035e-28
1.83884e-28
1.81173e-28
1.73686e-28
1.6818e-28
1.59473e-28
1.49297e-28
1.38868e-28
1.24553e-28
1.11172e-28
9.35643e-29
8.21999e-29
6.75237e-29
5.62116e-29
4.70221e-29
4.13739e-29
3.94841e-29
4.1053e-29
5.36171e-29
2.22046e-29
1.74068e-29
1.6825e-29
1.76923e-29
2.00518e-29
2.37855e-29
2.83572e-29
3.37757e-29
3.83131e-29
4.49171e-29
4.99799e-29
5.50749e-29
5.91798e-29
6.27654e-29
6.56975e-29
6.74979e-29
7.01905e-29
7.11676e-29
7.33064e-29
7.3805e-29
7.52781e-29
7.53293e-29
7.62017e-29
7.60166e-29
7.63897e-29
7.6694e-29
7.66226e-29
7.69319e-29
7.59906e-29
7.57582e-29
7.41339e-29
7.3548e-29
7.13593e-29
7.04323e-29
6.77704e-29
6.58314e-29
6.27258e-29
5.90998e-29
5.52597e-29
5.00282e-29
4.50381e-29
3.84869e-29
3.39485e-29
2.82917e-29
2.37601e-29
1.99816e-29
1.76892e-29
1.68123e-29
1.7391e-29
2.22227e-29
)
;

boundaryField
{
    fuel
    {
        type            fixedValue;
        value           nonuniform 0();
    }
    wall
    {
        type            zeroGradient;
    }
    outlet
    {
        type            zeroGradient;
    }
    frontAndBack
    {
        type            empty;
    }
    procBoundary3to2
    {
        type            processor;
        value           nonuniform List<scalar> 
51
(
7.81515e-15
8.91096e-15
9.89637e-15
1.06776e-14
1.12558e-14
1.18174e-14
1.21857e-14
1.25163e-14
1.27617e-14
1.29624e-14
1.30945e-14
1.32e-14
1.32476e-14
1.32919e-14
1.33071e-14
1.32868e-14
1.32446e-14
1.31446e-14
1.30003e-14
1.27924e-14
1.25527e-14
1.21871e-14
1.17957e-14
1.12672e-14
1.0658e-14
9.85474e-15
8.86841e-15
7.81153e-15
6.6602e-15
5.5341e-15
4.22359e-15
3.31367e-15
2.37e-15
1.71709e-15
1.16087e-15
8.62668e-16
6.58546e-16
6.52212e-16
8.06819e-16
5.57835e-16
4.47071e-16
4.52191e-16
5.85033e-16
7.93092e-16
1.18195e-15
1.64422e-15
2.33242e-15
2.99076e-15
3.93612e-15
4.80756e-15
4.80756e-15
)
;
    }
}


// ************************************************************************* //
