/*--------------------------------*- C++ -*----------------------------------*\
| =========                 |                                                 |
| \\      /  F ield         | OpenFOAM: The Open Source CFD Toolbox           |
|  \\    /   O peration     | Version:  dev                                   |
|   \\  /    A nd           | Web:      www.OpenFOAM.org                      |
|    \\/     M anipulation  |                                                 |
\*---------------------------------------------------------------------------*/
FoamFile
{
    version     2.0;
    format      ascii;
    class       volScalarField;
    location    "0.005";
    object      c-C6H7;
}
// * * * * * * * * * * * * * * * * * * * * * * * * * * * * * * * * * * * * * //

dimensions      [0 0 0 0 0 0 0];

internalField   nonuniform List<scalar> 
25
(
7.36792e-28
2.42919e-28
7.41832e-29
2.4201e-29
7.38788e-30
2.3174e-30
7.69319e-31
2.47785e-31
7.19993e-32
2.38861e-32
7.66755e-33
1.96825e-33
5.49553e-34
1.58535e-34
4.56326e-35
1.29613e-35
3.62802e-36
1.00295e-36
2.74782e-37
7.10964e-38
2.29706e-38
5.89123e-39
1.45149e-39
3.72683e-40
9.04438e-41
)
;

boundaryField
{
    wall
    {
        type            zeroGradient;
    }
    fuel
    {
        type            fixedValue;
        value           nonuniform 0();
    }
    outlet
    {
        type            inletOutlet;
        inletValue      uniform 0;
        value           uniform 9.04438e-41;
    }
    procBoundary3to2
    {
        type            processor;
        value           uniform 2.38102e-27;
    }
}


// ************************************************************************* //
