/*--------------------------------*- C++ -*----------------------------------*\
| =========                 |                                                 |
| \\      /  F ield         | OpenFOAM: The Open Source CFD Toolbox           |
|  \\    /   O peration     | Version:  dev                                   |
|   \\  /    A nd           | Web:      www.OpenFOAM.org                      |
|    \\/     M anipulation  |                                                 |
\*---------------------------------------------------------------------------*/
FoamFile
{
    version     2.0;
    format      ascii;
    class       volScalarField;
    location    "0.005";
    object      C5H4O;
}
// * * * * * * * * * * * * * * * * * * * * * * * * * * * * * * * * * * * * * //

dimensions      [0 0 0 0 0 0 0];

internalField   nonuniform List<scalar> 
250
(
3.42271e-12
3.48421e-12
3.36704e-12
3.33409e-12
3.37925e-12
3.44068e-12
3.81833e-12
3.9434e-12
3.22147e-12
1.29087e-12
4.24299e-13
4.98195e-11
5.11898e-11
4.86218e-11
4.78982e-11
4.87776e-11
5.02028e-11
5.80694e-11
6.12723e-11
4.46005e-11
1.26728e-11
3.42663e-12
7.1812e-10
7.41645e-10
6.97802e-10
6.85722e-10
6.99452e-10
7.24157e-10
8.59909e-10
9.22525e-10
6.22723e-10
1.27048e-10
2.35714e-11
7.94187e-09
8.24887e-09
7.66675e-09
7.50775e-09
7.68646e-09
8.00389e-09
9.87132e-09
1.07687e-08
6.7715e-09
1.15663e-09
1.57893e-10
5.90865e-08
6.19172e-08
5.63773e-08
5.47909e-08
5.66207e-08
5.95332e-08
7.62101e-08
8.34333e-08
4.92791e-08
7.35519e-09
9.57039e-10
1.94028e-07
1.93311e-07
1.94952e-07
1.95598e-07
1.94436e-07
1.93959e-07
1.86889e-07
1.84883e-07
1.84645e-07
3.42455e-08
3.90189e-09
1.80249e-07
1.78821e-07
1.81508e-07
1.82322e-07
1.81495e-07
1.80081e-07
1.72337e-07
1.69797e-07
1.85138e-07
1.00128e-07
1.03831e-08
1.53794e-07
1.5278e-07
1.54272e-07
1.54661e-07
1.54538e-07
1.53694e-07
1.50112e-07
1.49058e-07
1.62207e-07
1.30973e-07
1.69786e-08
1.34773e-07
1.33842e-07
1.34606e-07
1.34775e-07
1.34947e-07
1.34492e-07
1.33401e-07
1.33399e-07
1.4311e-07
1.32812e-07
2.61106e-08
1.23669e-07
1.22185e-07
1.22682e-07
1.22789e-07
1.23005e-07
1.22684e-07
1.22506e-07
1.22949e-07
1.30282e-07
1.24083e-07
3.24393e-08
1.15935e-07
1.16326e-07
1.16426e-07
1.16584e-07
1.16326e-07
1.1629e-07
1.1677e-07
1.21739e-07
1.11879e-07
3.45203e-08
1.12269e-07
1.12538e-07
1.12621e-07
1.12694e-07
1.12539e-07
1.12395e-07
1.12635e-07
1.14379e-07
9.9122e-08
3.35974e-08
1.08239e-07
1.0833e-07
1.08374e-07
1.08348e-07
1.08335e-07
1.0802e-07
1.07795e-07
1.05702e-07
8.39256e-08
3.10778e-08
1.01679e-07
1.01553e-07
1.01543e-07
1.01423e-07
1.01524e-07
1.01035e-07
1.00197e-07
9.44878e-08
7.06173e-08
2.79094e-08
9.21552e-08
9.18752e-08
9.18259e-08
9.16113e-08
9.17521e-08
9.11081e-08
8.97018e-08
8.19385e-08
5.92082e-08
2.47292e-08
8.07929e-08
8.04522e-08
8.03811e-08
8.01073e-08
8.02179e-08
7.94776e-08
7.77009e-08
6.94218e-08
4.91157e-08
2.19035e-08
6.91354e-08
6.88043e-08
6.87262e-08
6.84434e-08
6.8492e-08
6.77284e-08
6.5808e-08
5.81239e-08
4.03409e-08
1.94624e-08
5.8324e-08
5.80397e-08
5.79625e-08
5.77059e-08
5.76933e-08
5.69695e-08
5.5054e-08
4.8504e-08
3.35861e-08
1.75396e-08
4.8968e-08
4.87284e-08
4.86514e-08
4.84146e-08
4.83478e-08
4.7592e-08
4.55567e-08
3.87796e-08
2.88997e-08
1.57296e-08
3.88804e-08
3.87061e-08
3.86337e-08
3.84184e-08
3.8308e-08
3.76204e-08
3.61194e-08
3.23165e-08
2.46664e-08
1.39325e-08
3.27364e-08
3.26373e-08
3.258e-08
3.24229e-08
3.22741e-08
3.17252e-08
3.03877e-08
2.70307e-08
2.08303e-08
1.20214e-08
2.71719e-08
2.70873e-08
2.70317e-08
2.68734e-08
2.6742e-08
2.61931e-08
2.50747e-08
2.23783e-08
1.73098e-08
1.00429e-08
2.2433e-08
2.23228e-08
2.22731e-08
2.2139e-08
2.19952e-08
2.14502e-08
2.02496e-08
1.78451e-08
1.37822e-08
8.18199e-09
1.76803e-08
1.76877e-08
1.76438e-08
1.75212e-08
1.73614e-08
1.69829e-08
1.60972e-08
1.4099e-08
1.05386e-08
6.5138e-09
)
;

boundaryField
{
    fuel
    {
        type            fixedValue;
        value           uniform 0;
    }
    wall
    {
        type            zeroGradient;
    }
    outlet
    {
        type            zeroGradient;
    }
    frontAndBack
    {
        type            empty;
    }
    procBoundary3to0
    {
        type            processor;
        value           nonuniform List<scalar> 10(1.38991e-08 1.38778e-08 1.38365e-08 1.37147e-08 1.35397e-08 1.30933e-08 1.21269e-08 1.03316e-08 7.94389e-09 5.01099e-09);
    }
    procBoundary3to2
    {
        type            processor;
        value           nonuniform List<scalar> 
25
(
3.31823e-12
4.75411e-11
6.79696e-10
7.4394e-09
5.42708e-08
1.95292e-07
1.8263e-07
1.55016e-07
1.35102e-07
1.23106e-07
1.18048e-07
1.18048e-07
1.13705e-07
1.08866e-07
1.01724e-07
9.18912e-08
8.04069e-08
6.87412e-08
5.79819e-08
4.86733e-08
3.86483e-08
3.26126e-08
2.70658e-08
2.23637e-08
1.76098e-08
)
;
    }
}


// ************************************************************************* //
