/*--------------------------------*- C++ -*----------------------------------*\
| =========                 |                                                 |
| \\      /  F ield         | OpenFOAM: The Open Source CFD Toolbox           |
|  \\    /   O peration     | Version:  dev                                   |
|   \\  /    A nd           | Web:      www.OpenFOAM.org                      |
|    \\/     M anipulation  |                                                 |
\*---------------------------------------------------------------------------*/
FoamFile
{
    version     2.0;
    format      ascii;
    class       volScalarField;
    location    "0.005";
    object      CH3OH;
}
// * * * * * * * * * * * * * * * * * * * * * * * * * * * * * * * * * * * * * //

dimensions      [0 0 0 0 0 0 0];

internalField   nonuniform List<scalar> 
13
(
1.49389e-11
3.7265e-12
1.12342e-12
4.01654e-13
1.45471e-13
5.26679e-14
1.97467e-14
7.55382e-15
2.94262e-15
1.16722e-15
4.73093e-16
1.95961e-16
8.27772e-17
)
;

boundaryField
{
    wall
    {
        type            zeroGradient;
    }
    fuel
    {
        type            fixedValue;
        value           nonuniform 0();
    }
    outlet
    {
        type            inletOutlet;
        inletValue      nonuniform 0();
        value           nonuniform 0();
    }
    procBoundary3to2
    {
        type            processor;
        value           uniform 6.04485e-11;
    }
    procBoundary3to4
    {
        type            processor;
        value           uniform 3.44452e-17;
    }
}


// ************************************************************************* //
