/*--------------------------------*- C++ -*----------------------------------*\
| =========                 |                                                 |
| \\      /  F ield         | OpenFOAM: The Open Source CFD Toolbox           |
|  \\    /   O peration     | Version:  dev                                   |
|   \\  /    A nd           | Web:      www.OpenFOAM.org                      |
|    \\/     M anipulation  |                                                 |
\*---------------------------------------------------------------------------*/
FoamFile
{
    version     2.0;
    format      ascii;
    class       volScalarField;
    location    "0.005";
    object      CH3OH;
}
// * * * * * * * * * * * * * * * * * * * * * * * * * * * * * * * * * * * * * //

dimensions      [0 0 0 0 0 0 0];

internalField   nonuniform List<scalar> 
250
(
5.06562e-07
5.05331e-07
5.17676e-07
5.02751e-07
5.33592e-07
5.13201e-07
5.70415e-07
4.81244e-07
3.68204e-07
1.32947e-07
2.68995e-08
2.79791e-06
2.78753e-06
2.86737e-06
2.78628e-06
2.98368e-06
2.89616e-06
3.25788e-06
2.62541e-06
1.84683e-06
6.96024e-07
1.67101e-07
1.27901e-05
1.27176e-05
1.31439e-05
1.28169e-05
1.38518e-05
1.3658e-05
1.54771e-05
1.15368e-05
6.7499e-06
2.26e-06
5.95176e-07
5.78734e-05
5.76135e-05
5.88959e-05
5.81565e-05
6.12105e-05
6.12295e-05
6.6852e-05
5.21111e-05
2.42033e-05
6.00918e-06
1.68535e-06
6.89347e-05
7.09889e-05
6.2557e-05
6.5929e-05
5.0017e-05
4.79706e-05
3.51121e-05
0.00012087
7.20802e-05
1.76833e-05
4.31411e-06
1.55609e-05
1.5886e-05
1.45568e-05
1.5026e-05
1.2368e-05
1.18973e-05
9.41237e-06
2.29924e-05
8.90351e-05
3.7216e-05
9.18805e-06
5.09015e-06
5.14238e-06
4.93837e-06
4.98176e-06
4.54084e-06
4.4029e-06
3.90886e-06
6.30872e-06
2.63679e-05
5.23951e-05
1.4959e-05
2.65313e-06
2.66374e-06
2.63014e-06
2.61581e-06
2.5381e-06
2.47295e-06
2.37846e-06
3.06245e-06
9.85878e-06
6.97863e-05
2.1497e-05
1.87638e-06
1.87832e-06
1.87282e-06
1.85123e-06
1.84125e-06
1.7965e-06
1.80196e-06
2.16074e-06
5.47338e-06
7.08221e-05
2.70505e-05
1.57664e-06
1.5712e-06
1.57006e-06
1.54813e-06
1.55127e-06
1.51349e-06
1.54831e-06
1.82582e-06
3.91762e-06
5.26093e-05
2.83984e-05
1.44725e-06
1.44629e-06
1.42521e-06
1.42989e-06
1.3956e-06
1.43759e-06
1.67971e-06
3.16666e-06
3.4656e-05
2.60412e-05
1.40176e-06
1.40058e-06
1.38109e-06
1.3849e-06
1.35383e-06
1.39351e-06
1.60295e-06
2.72427e-06
2.24614e-05
2.18036e-05
1.38345e-06
1.38219e-06
1.36506e-06
1.36747e-06
1.34011e-06
1.37223e-06
1.54375e-06
2.35389e-06
1.48134e-05
1.7101e-05
1.36337e-06
1.36204e-06
1.3479e-06
1.34852e-06
1.32517e-06
1.34644e-06
1.47403e-06
2.07114e-06
9.9957e-06
1.28006e-05
1.32623e-06
1.32471e-06
1.31391e-06
1.31229e-06
1.29275e-06
1.30169e-06
1.38852e-06
1.79885e-06
6.88376e-06
9.28417e-06
1.26609e-06
1.26424e-06
1.25664e-06
1.25258e-06
1.23615e-06
1.23292e-06
1.28495e-06
1.5264e-06
4.74727e-06
6.60178e-06
1.18276e-06
1.18054e-06
1.17575e-06
1.1694e-06
1.15529e-06
1.14129e-06
1.16408e-06
1.28001e-06
3.35135e-06
4.65008e-06
1.08005e-06
1.07756e-06
1.07522e-06
1.067e-06
1.05444e-06
1.03209e-06
1.03147e-06
1.07601e-06
2.38869e-06
3.26959e-06
9.66178e-07
9.63407e-07
9.63388e-07
9.53291e-07
9.41858e-07
9.08477e-07
8.6315e-07
9.05388e-07
1.71859e-06
2.30814e-06
8.13034e-07
8.09482e-07
8.14757e-07
8.00098e-07
7.90773e-07
7.59244e-07
7.42415e-07
7.44822e-07
1.24122e-06
1.64328e-06
7.04209e-07
7.00879e-07
6.99216e-07
6.92436e-07
6.83129e-07
6.54704e-07
6.25731e-07
6.07437e-07
9.011e-07
1.18296e-06
5.95768e-07
5.93374e-07
5.94131e-07
5.84667e-07
5.76891e-07
5.50142e-07
5.21954e-07
4.85923e-07
6.6218e-07
8.42787e-07
4.9954e-07
4.97513e-07
4.98253e-07
4.8892e-07
4.82681e-07
4.53152e-07
4.20325e-07
3.74669e-07
4.76231e-07
6.13471e-07
4.02863e-07
4.00544e-07
4.02183e-07
3.95038e-07
3.87267e-07
3.68143e-07
3.36428e-07
2.88404e-07
3.42455e-07
4.4315e-07
)
;

boundaryField
{
    fuel
    {
        type            fixedValue;
        value           uniform 0;
    }
    wall
    {
        type            zeroGradient;
    }
    outlet
    {
        type            zeroGradient;
    }
    frontAndBack
    {
        type            empty;
    }
    procBoundary3to0
    {
        type            processor;
        value           nonuniform List<scalar> 10(3.25571e-07 3.23164e-07 3.25223e-07 3.17272e-07 3.10609e-07 2.86044e-07 2.53366e-07 2.22491e-07 2.50104e-07 3.22268e-07);
    }
    procBoundary3to2
    {
        type            processor;
        value           nonuniform List<scalar> 
25
(
5.17335e-07
2.86674e-06
1.31489e-05
5.89336e-05
6.24191e-05
1.45383e-05
4.93742e-06
2.63099e-06
1.87334e-06
1.57006e-06
1.45986e-06
1.45986e-06
1.41054e-06
1.3871e-06
1.36374e-06
1.32541e-06
1.26514e-06
1.18203e-06
1.07958e-06
9.65947e-07
8.12982e-07
7.04241e-07
5.96056e-07
5.00736e-07
4.02293e-07
)
;
    }
}


// ************************************************************************* //
