/*--------------------------------*- C++ -*----------------------------------*\
| =========                 |                                                 |
| \\      /  F ield         | OpenFOAM: The Open Source CFD Toolbox           |
|  \\    /   O peration     | Version:  dev                                   |
|   \\  /    A nd           | Web:      www.OpenFOAM.org                      |
|    \\/     M anipulation  |                                                 |
\*---------------------------------------------------------------------------*/
FoamFile
{
    version     2.0;
    format      ascii;
    class       volScalarField;
    location    "0.005";
    object      H;
}
// * * * * * * * * * * * * * * * * * * * * * * * * * * * * * * * * * * * * * //

dimensions      [0 0 0 0 0 0 0];

internalField   nonuniform List<scalar> 
1989
(
1.39285e-08
1.46554e-08
1.51855e-08
1.56719e-08
1.6045e-08
1.6402e-08
1.66335e-08
1.6855e-08
1.69993e-08
1.7156e-08
1.72431e-08
1.73162e-08
1.73413e-08
1.73825e-08
1.73986e-08
1.73877e-08
1.73603e-08
1.72888e-08
1.71915e-08
1.70266e-08
1.68798e-08
1.66396e-08
1.64019e-08
1.60605e-08
1.56723e-08
1.51794e-08
1.46417e-08
1.39438e-08
1.31485e-08
1.22908e-08
1.12527e-08
1.04786e-08
9.50954e-09
8.79272e-09
8.02708e-09
7.59913e-09
7.42381e-09
7.68124e-09
8.37346e-09
7.1763e-09
6.56627e-09
6.33885e-09
6.50665e-09
6.86713e-09
7.52902e-09
8.14472e-09
8.96395e-09
9.60594e-09
1.04802e-08
1.11379e-08
1.18026e-08
1.24234e-08
1.28725e-08
1.32542e-08
1.35523e-08
1.38275e-08
1.40107e-08
1.41818e-08
1.42912e-08
1.43754e-08
1.44151e-08
1.44715e-08
1.44897e-08
1.45034e-08
1.45165e-08
1.45083e-08
1.4507e-08
1.44514e-08
1.44042e-08
1.43136e-08
1.42013e-08
1.40165e-08
1.38302e-08
1.3565e-08
1.32566e-08
1.28687e-08
1.24098e-08
1.18142e-08
1.11415e-08
1.04714e-08
9.60823e-09
8.95962e-09
8.13939e-09
7.5233e-09
6.86194e-09
6.50382e-09
6.33761e-09
6.56646e-09
7.17983e-09
6.08946e-09
5.54682e-09
5.34498e-09
5.49395e-09
5.83034e-09
6.37981e-09
6.92181e-09
7.6224e-09
8.17226e-09
8.9016e-09
9.43989e-09
9.98145e-09
1.04855e-08
1.08489e-08
1.11699e-08
1.14213e-08
1.16529e-08
1.18135e-08
1.19626e-08
1.20573e-08
1.21455e-08
1.21857e-08
1.22336e-08
1.22483e-08
1.2264e-08
1.22751e-08
1.22682e-08
1.2264e-08
1.22158e-08
1.21698e-08
1.20767e-08
1.19781e-08
1.18184e-08
1.16568e-08
1.14313e-08
1.11727e-08
1.08456e-08
1.04741e-08
9.99512e-09
9.44394e-09
8.88834e-09
8.17231e-09
7.61773e-09
6.91605e-09
6.37339e-09
5.82419e-09
5.48984e-09
5.34274e-09
5.5456e-09
6.09067e-09
5.09752e-09
4.61656e-09
4.44175e-09
4.57208e-09
4.86011e-09
5.36699e-09
5.81684e-09
6.42392e-09
6.90595e-09
7.5156e-09
7.97576e-09
8.42053e-09
8.83968e-09
9.12442e-09
9.39536e-09
9.59197e-09
9.78054e-09
9.90608e-09
1.00291e-08
1.0103e-08
1.01788e-08
1.02128e-08
1.02535e-08
1.0265e-08
1.02807e-08
1.02902e-08
1.02843e-08
1.02792e-08
1.02378e-08
1.0199e-08
1.01189e-08
1.00412e-08
9.91102e-09
9.78502e-09
9.59974e-09
9.39845e-09
9.12252e-09
8.83059e-09
8.43302e-09
7.97741e-09
7.50334e-09
6.90521e-09
6.41909e-09
5.81149e-09
5.36009e-09
4.85344e-09
4.56743e-09
4.4388e-09
4.61421e-09
5.0979e-09
4.19847e-09
3.78058e-09
3.63121e-09
3.7432e-09
3.97888e-09
4.43096e-09
4.8405e-09
5.3512e-09
5.77199e-09
6.28785e-09
6.68986e-09
7.06174e-09
7.41356e-09
7.64964e-09
7.87648e-09
8.03482e-09
8.19581e-09
8.29495e-09
8.3974e-09
8.4555e-09
8.51854e-09
8.545e-09
8.57877e-09
8.58725e-09
8.60084e-09
8.60878e-09
8.60394e-09
8.60011e-09
8.5656e-09
8.53503e-09
8.46831e-09
8.40708e-09
8.2995e-09
8.20017e-09
8.041e-09
7.87947e-09
7.64799e-09
7.40714e-09
7.07222e-09
6.6895e-09
6.27725e-09
5.77124e-09
5.3464e-09
4.8365e-09
4.42307e-09
3.97271e-09
3.73918e-09
3.62859e-09
3.77919e-09
4.19803e-09
3.39996e-09
3.04011e-09
2.91535e-09
3.00274e-09
3.20075e-09
3.59353e-09
3.95459e-09
4.37953e-09
4.773e-09
5.19337e-09
5.54766e-09
5.86289e-09
6.16409e-09
6.36424e-09
6.5544e-09
6.6878e-09
6.82428e-09
6.90573e-09
6.99288e-09
7.04001e-09
7.0936e-09
7.11455e-09
7.14339e-09
7.14976e-09
7.16134e-09
7.16803e-09
7.16391e-09
7.16129e-09
7.13176e-09
7.10722e-09
7.05046e-09
7.00071e-09
6.90969e-09
6.8282e-09
6.69295e-09
6.55689e-09
6.36243e-09
6.1594e-09
5.87213e-09
5.54309e-09
5.18629e-09
4.77289e-09
4.37746e-09
3.94794e-09
3.58726e-09
3.19505e-09
2.99908e-09
2.91254e-09
3.03826e-09
3.39974e-09
2.71094e-09
2.39526e-09
2.28682e-09
2.35449e-09
2.53999e-09
2.84923e-09
3.16189e-09
3.51538e-09
3.87407e-09
4.21508e-09
4.54204e-09
4.80076e-09
5.05575e-09
5.23284e-09
5.39096e-09
5.50942e-09
5.62477e-09
5.69495e-09
5.77089e-09
5.81013e-09
5.85672e-09
5.87354e-09
5.89879e-09
5.9036e-09
5.9136e-09
5.91929e-09
5.91559e-09
5.91395e-09
5.88803e-09
5.86793e-09
5.81852e-09
5.77695e-09
5.69812e-09
5.62813e-09
5.51359e-09
5.39251e-09
5.23097e-09
5.05271e-09
4.80592e-09
4.53489e-09
4.21275e-09
3.87507e-09
3.51339e-09
3.15574e-09
2.84492e-09
2.53461e-09
2.35101e-09
2.28396e-09
2.39296e-09
2.71026e-09
2.09593e-09
1.84595e-09
1.75382e-09
1.80467e-09
1.95991e-09
2.22276e-09
2.48626e-09
2.76296e-09
3.06313e-09
3.36323e-09
3.63805e-09
3.86439e-09
4.0742e-09
4.23334e-09
4.36508e-09
4.4682e-09
4.56595e-09
4.62527e-09
4.69086e-09
4.72373e-09
4.76399e-09
4.77773e-09
4.79985e-09
4.80353e-09
4.81217e-09
4.81713e-09
4.8137e-09
4.81265e-09
4.78989e-09
4.77325e-09
4.73054e-09
4.69578e-09
4.6278e-09
4.56872e-09
4.47184e-09
4.36588e-09
4.23152e-09
4.07178e-09
3.86786e-09
3.63348e-09
3.3604e-09
3.06321e-09
2.76146e-09
2.48152e-09
2.21874e-09
1.95526e-09
1.80143e-09
1.75119e-09
1.84368e-09
2.09481e-09
1.59091e-09
1.37657e-09
1.30567e-09
1.34546e-09
1.4728e-09
1.67923e-09
1.90937e-09
2.13309e-09
2.39047e-09
2.62594e-09
2.83957e-09
3.04316e-09
3.21489e-09
3.35277e-09
3.4645e-09
3.55302e-09
3.63501e-09
3.68477e-09
3.74111e-09
3.76843e-09
3.80343e-09
3.81466e-09
3.83378e-09
3.83656e-09
3.84402e-09
3.84886e-09
3.84516e-09
3.84453e-09
3.8248e-09
3.81102e-09
3.77391e-09
3.74511e-09
3.68668e-09
3.63722e-09
3.55628e-09
3.46474e-09
3.35097e-09
3.21423e-09
3.04366e-09
2.83726e-09
2.62351e-09
2.39068e-09
2.13072e-09
1.90535e-09
1.6759e-09
1.46885e-09
1.34282e-09
1.30344e-09
1.37485e-09
1.58876e-09
1.17233e-09
1.00893e-09
9.51185e-10
9.79473e-10
1.07697e-09
1.23409e-09
1.42019e-09
1.60399e-09
1.81557e-09
2.01497e-09
2.19178e-09
2.35592e-09
2.48089e-09
2.58991e-09
2.68035e-09
2.75077e-09
2.81902e-09
2.86325e-09
2.91305e-09
2.93515e-09
2.96702e-09
2.97611e-09
2.99212e-09
2.99421e-09
3.00058e-09
3.00651e-09
3.0014e-09
3.00106e-09
2.98449e-09
2.97315e-09
2.93951e-09
2.91628e-09
2.86468e-09
2.82073e-09
2.7534e-09
2.68055e-09
2.58843e-09
2.48013e-09
2.35541e-09
2.18943e-09
2.01404e-09
1.8157e-09
1.6017e-09
1.41655e-09
1.23113e-09
1.07401e-09
9.77328e-10
9.49341e-10
1.00747e-09
1.17221e-09
8.43885e-10
7.14696e-10
6.70155e-10
6.92922e-10
7.66536e-10
8.84973e-10
1.02549e-09
1.16369e-09
1.32679e-09
1.50409e-09
1.64464e-09
1.78877e-09
1.88858e-09
1.97819e-09
2.05269e-09
2.11058e-09
2.16825e-09
2.19815e-09
2.23383e-09
2.2519e-09
2.27353e-09
2.2809e-09
2.29451e-09
2.29607e-09
2.30145e-09
2.30209e-09
2.30198e-09
2.30182e-09
2.28776e-09
2.27841e-09
2.25535e-09
2.23625e-09
2.19911e-09
2.16948e-09
2.11279e-09
2.05278e-09
1.97681e-09
1.88774e-09
1.78786e-09
1.64266e-09
1.50333e-09
1.3272e-09
1.16184e-09
1.02394e-09
8.82267e-10
7.64349e-10
6.91098e-10
6.68773e-10
7.13374e-10
8.4301e-10
5.83424e-10
4.89436e-10
4.57868e-10
4.72601e-10
5.28844e-10
6.12746e-10
7.2068e-10
8.25684e-10
9.47579e-10
1.08116e-09
1.18031e-09
1.29167e-09
1.37979e-09
1.46588e-09
1.5291e-09
1.5759e-09
1.62447e-09
1.65205e-09
1.68463e-09
1.69923e-09
1.71874e-09
1.72467e-09
1.73613e-09
1.73725e-09
1.7416e-09
1.74304e-09
1.74192e-09
1.74189e-09
1.73015e-09
1.72259e-09
1.7019e-09
1.68618e-09
1.65263e-09
1.62541e-09
1.57753e-09
1.5291e-09
1.46463e-09
1.37849e-09
1.29038e-09
1.17909e-09
1.08079e-09
9.47768e-10
8.24194e-10
7.19573e-10
6.10347e-10
5.27054e-10
4.71291e-10
4.56787e-10
4.88425e-10
5.82662e-10
3.91824e-10
3.25594e-10
3.03538e-10
3.12828e-10
3.51278e-10
4.11578e-10
4.86973e-10
5.64665e-10
6.52003e-10
7.59457e-10
8.33e-10
9.18905e-10
9.83716e-10
1.0411e-09
1.08521e-09
1.11864e-09
1.15326e-09
1.17333e-09
1.19773e-09
1.20907e-09
1.22487e-09
1.22938e-09
1.23782e-09
1.23872e-09
1.24241e-09
1.24402e-09
1.24257e-09
1.24254e-09
1.2336e-09
1.22778e-09
1.21109e-09
1.1986e-09
1.17363e-09
1.15391e-09
1.1199e-09
1.08518e-09
1.04007e-09
9.82616e-10
9.17924e-10
8.32031e-10
7.59235e-10
6.52008e-10
5.63524e-10
4.85885e-10
4.10175e-10
3.50016e-10
3.11904e-10
3.02764e-10
3.2486e-10
3.91287e-10
2.55553e-10
2.10075e-10
1.94929e-10
2.01227e-10
2.26509e-10
2.67913e-10
3.1688e-10
3.73643e-10
4.29635e-10
5.07456e-10
5.60012e-10
6.27126e-10
6.74327e-10
7.2108e-10
7.5636e-10
7.82302e-10
8.09546e-10
8.24678e-10
8.43626e-10
8.52162e-10
8.64294e-10
8.67605e-10
8.73898e-10
8.74442e-10
8.77175e-10
8.78461e-10
8.77268e-10
8.77336e-10
8.70766e-10
8.66431e-10
8.53594e-10
8.44234e-10
8.24836e-10
8.09993e-10
7.83212e-10
7.5634e-10
7.20174e-10
6.73281e-10
6.26235e-10
5.5928e-10
5.07508e-10
4.29553e-10
3.72869e-10
3.16084e-10
2.6698e-10
2.25657e-10
2.00598e-10
1.94403e-10
2.09562e-10
2.55182e-10
1.61601e-10
1.31355e-10
1.21412e-10
1.25488e-10
1.41606e-10
1.68799e-10
1.99559e-10
2.3985e-10
2.74362e-10
3.26452e-10
3.62627e-10
4.071e-10
4.38525e-10
4.7161e-10
4.95847e-10
5.15442e-10
5.35226e-10
5.46764e-10
5.60958e-10
5.67376e-10
5.76449e-10
5.78872e-10
5.83845e-10
5.84168e-10
5.86241e-10
5.87219e-10
5.86288e-10
5.86409e-10
5.81239e-10
5.77997e-10
5.68353e-10
5.61392e-10
5.46828e-10
5.35493e-10
5.16117e-10
4.95886e-10
4.70915e-10
4.3781e-10
4.06542e-10
3.62194e-10
3.26558e-10
2.74285e-10
2.39361e-10
1.99013e-10
1.6818e-10
1.4105e-10
1.25076e-10
1.21069e-10
1.31014e-10
1.61347e-10
9.89708e-11
7.95751e-11
7.331e-11
7.58393e-11
8.57728e-11
1.02908e-10
1.21715e-10
1.48861e-10
1.69624e-10
2.03345e-10
2.27359e-10
2.55526e-10
2.76693e-10
2.97682e-10
3.13456e-10
3.26147e-10
3.39192e-10
3.46677e-10
3.56104e-10
3.60254e-10
3.66238e-10
3.67804e-10
3.71189e-10
3.71362e-10
3.72747e-10
3.73408e-10
3.72788e-10
3.72905e-10
3.69386e-10
3.67281e-10
3.60896e-10
3.56449e-10
3.46729e-10
3.39387e-10
3.26634e-10
3.13561e-10
2.97229e-10
2.7622e-10
2.55213e-10
2.27111e-10
2.03431e-10
1.69569e-10
1.48568e-10
1.21358e-10
1.02511e-10
8.54232e-11
7.55796e-11
7.30934e-11
7.93576e-11
9.88033e-11
5.86798e-11
4.67035e-11
4.29061e-11
4.44161e-11
5.03273e-11
6.07075e-11
7.19009e-11
8.92226e-11
1.01445e-10
1.22505e-10
1.37818e-10
1.5505e-10
1.68989e-10
1.81753e-10
1.91939e-10
1.99779e-10
2.082e-10
2.12838e-10
2.18924e-10
2.21504e-10
2.2535e-10
2.26321e-10
2.28527e-10
2.28614e-10
2.29511e-10
2.29942e-10
2.29543e-10
2.2964e-10
2.27347e-10
2.26029e-10
2.21916e-10
2.19174e-10
2.12878e-10
2.08334e-10
2.00113e-10
1.92046e-10
1.81466e-10
1.6868e-10
1.54882e-10
1.37688e-10
1.22563e-10
1.01408e-10
8.9056e-11
7.16782e-11
6.04633e-11
5.01156e-11
4.42587e-11
4.27743e-11
4.65699e-11
5.85735e-11
3.36829e-11
2.65617e-11
2.4345e-11
2.52147e-11
2.86106e-11
3.46658e-11
4.11542e-11
5.16259e-11
5.86714e-11
7.13347e-11
8.06909e-11
9.0887e-11
9.97157e-11
1.07184e-10
1.13582e-10
1.1823e-10
1.235e-10
1.26266e-10
1.30073e-10
1.31621e-10
1.34019e-10
1.346e-10
1.35983e-10
1.36023e-10
1.36585e-10
1.36857e-10
1.36608e-10
1.36681e-10
1.35243e-10
1.34446e-10
1.31876e-10
1.30238e-10
1.26294e-10
1.23588e-10
1.18448e-10
1.13666e-10
1.07009e-10
9.95202e-11
9.07988e-11
8.06293e-11
7.13714e-11
5.86477e-11
5.15352e-11
4.10213e-11
3.45216e-11
2.84873e-11
2.51229e-11
2.42677e-11
2.64828e-11
3.36185e-11
1.87263e-11
1.46457e-11
1.33982e-11
1.38827e-11
1.57673e-11
1.9173e-11
2.28314e-11
2.88542e-11
3.28207e-11
4.01461e-11
4.56227e-11
5.14534e-11
5.67979e-11
6.10116e-11
6.48783e-11
6.75281e-11
7.07012e-11
7.22895e-11
7.45822e-11
7.54774e-11
7.69201e-11
7.72546e-11
7.80889e-11
7.81042e-11
7.84429e-11
7.86081e-11
7.84586e-11
7.851e-11
7.76423e-11
7.71785e-11
7.56291e-11
7.46855e-11
7.2308e-11
7.07565e-11
6.76634e-11
6.49363e-11
6.09093e-11
5.66762e-11
5.14113e-11
4.55969e-11
4.01693e-11
3.2807e-11
2.88063e-11
2.27557e-11
1.90914e-11
1.56982e-11
1.38311e-11
1.33545e-11
1.46008e-11
1.86888e-11
1.00906e-11
7.83493e-12
7.15749e-12
7.41906e-12
8.43045e-12
1.02796e-11
1.22798e-11
1.55983e-11
1.77681e-11
2.1846e-11
2.49206e-11
2.81415e-11
3.12279e-11
3.35238e-11
3.57629e-11
3.72173e-11
3.90494e-11
3.99274e-11
4.12529e-11
4.17511e-11
4.25851e-11
4.27699e-11
4.32532e-11
4.32572e-11
4.34534e-11
4.355e-11
4.34637e-11
4.34978e-11
4.29948e-11
4.27355e-11
4.18379e-11
4.1314e-11
3.99393e-11
3.90829e-11
3.72978e-11
3.57998e-11
3.34665e-11
3.11566e-11
2.81215e-11
2.49116e-11
2.18605e-11
1.7761e-11
1.55737e-11
1.22386e-11
1.02352e-11
8.39317e-12
7.39112e-12
7.13363e-12
7.81026e-12
1.00698e-11
5.27494e-12
4.07038e-12
3.7151e-12
3.85229e-12
4.37796e-12
5.3484e-12
6.40785e-12
8.16724e-12
9.31741e-12
1.1504e-11
1.31625e-11
1.48801e-11
1.65835e-11
1.77923e-11
1.90336e-11
1.98029e-11
2.08167e-11
2.12841e-11
2.2019e-11
2.22857e-11
2.27485e-11
2.28466e-11
2.31152e-11
2.31148e-11
2.32239e-11
2.32781e-11
2.32304e-11
2.32517e-11
2.29718e-11
2.28326e-11
2.23335e-11
2.20535e-11
2.12915e-11
2.08363e-11
1.98488e-11
1.90556e-11
1.77614e-11
1.65439e-11
1.48709e-11
1.31604e-11
1.15129e-11
9.3141e-12
8.15508e-12
6.38639e-12
5.32516e-12
4.35856e-12
3.83768e-12
3.70253e-12
4.05731e-12
5.2638e-12
2.67813e-12
2.05584e-12
1.8757e-12
1.94575e-12
2.2108e-12
2.70376e-12
3.2477e-12
4.14786e-12
4.73822e-12
5.86907e-12
6.73028e-12
7.61483e-12
8.51518e-12
9.13058e-12
9.78996e-12
1.01826e-11
1.07206e-11
1.09604e-11
1.13514e-11
1.14889e-11
1.17355e-11
1.17855e-11
1.19289e-11
1.19273e-11
1.19856e-11
1.20148e-11
1.19895e-11
1.20022e-11
1.18525e-11
1.17807e-11
1.15142e-11
1.13701e-11
1.09649e-11
1.07317e-11
1.02078e-11
9.80246e-12
9.11467e-12
8.49425e-12
7.61064e-12
6.73061e-12
5.87435e-12
4.73688e-12
4.14211e-12
3.23691e-12
2.69203e-12
2.20105e-12
1.93837e-12
1.8693e-12
2.04914e-12
2.6724e-12
1.32217e-12
1.01069e-12
9.22302e-13
9.57196e-13
1.08706e-12
1.32982e-12
1.60079e-12
2.04629e-12
2.3398e-12
2.90473e-12
3.33617e-12
3.77639e-12
4.23321e-12
4.53656e-12
4.87273e-12
5.06624e-12
5.3406e-12
5.45923e-12
5.65915e-12
5.72748e-12
5.85374e-12
5.87825e-12
5.95188e-12
5.95037e-12
5.98025e-12
5.99545e-12
5.98258e-12
5.98972e-12
5.91284e-12
5.87716e-12
5.74041e-12
5.66891e-12
5.46184e-12
5.34664e-12
5.07955e-12
4.8795e-12
4.52868e-12
4.22263e-12
3.77457e-12
3.33698e-12
2.90774e-12
2.33936e-12
2.04369e-12
1.59555e-12
1.3241e-12
1.08232e-12
9.5359e-13
9.19149e-13
1.00737e-12
1.31934e-12
6.35549e-13
4.84247e-13
4.42229e-13
4.5922e-13
5.21165e-13
6.37232e-13
7.68382e-13
9.82092e-13
1.12358e-12
1.39663e-12
1.60557e-12
1.81755e-12
2.04054e-12
2.18552e-12
2.35034e-12
2.44258e-12
2.57721e-12
2.63392e-12
2.7323e-12
2.76507e-12
2.82734e-12
2.8389e-12
2.87529e-12
2.87421e-12
2.88897e-12
2.89659e-12
2.89029e-12
2.89415e-12
2.85611e-12
2.83902e-12
2.77145e-12
2.73721e-12
2.63537e-12
2.58039e-12
2.44937e-12
2.35386e-12
2.18176e-12
2.03542e-12
1.81679e-12
1.60627e-12
1.39829e-12
1.1235e-12
9.80979e-13
7.6592e-13
6.34534e-13
5.18928e-13
4.57513e-13
4.40725e-13
4.82654e-13
6.34193e-13
2.97832e-13
2.26401e-13
2.07031e-13
2.15131e-13
2.43945e-13
2.97911e-13
3.59664e-13
4.59223e-13
5.25443e-13
6.53337e-13
7.51343e-13
8.50242e-13
9.55206e-13
1.02249e-12
1.10031e-12
1.14292e-12
1.20662e-12
1.23284e-12
1.27953e-12
1.29472e-12
1.32434e-12
1.32961e-12
1.34696e-12
1.34628e-12
1.35331e-12
1.357e-12
1.35404e-12
1.35603e-12
1.33787e-12
1.32998e-12
1.29778e-12
1.28192e-12
1.23363e-12
1.20825e-12
1.14627e-12
1.10209e-12
1.02074e-12
9.52823e-13
8.49931e-13
7.51809e-13
6.5421e-13
5.25471e-13
4.58774e-13
3.58544e-13
2.96676e-13
2.42922e-13
2.14347e-13
2.06336e-13
2.2566e-13
2.97207e-13
1.36238e-13
1.03416e-13
9.47479e-14
9.85329e-14
1.11625e-13
1.36061e-13
1.64388e-13
2.09507e-13
2.39639e-13
2.97784e-13
3.42388e-13
3.8715e-13
4.34915e-13
4.65263e-13
5.00718e-13
5.19826e-13
5.48945e-13
5.6069e-13
5.82094e-13
5.88914e-13
6.02533e-13
6.04846e-13
6.12837e-13
6.12453e-13
6.15691e-13
6.17417e-13
6.16074e-13
6.17067e-13
6.08692e-13
6.0516e-13
5.90331e-13
5.83224e-13
5.61095e-13
5.49748e-13
5.21423e-13
5.01592e-13
4.64486e-13
4.33843e-13
3.87034e-13
3.42664e-13
2.98228e-13
2.39685e-13
2.09339e-13
1.63894e-13
1.35512e-13
1.11171e-13
9.81836e-14
9.44361e-14
1.03082e-13
1.3596e-13
6.09027e-14
4.62071e-14
4.24372e-14
4.41729e-14
4.99926e-14
6.07824e-14
7.34584e-14
9.338e-14
1.06729e-13
1.32426e-13
1.52154e-13
1.71832e-13
1.92896e-13
2.06209e-13
2.2183e-13
2.30156e-13
2.43038e-13
2.48141e-13
2.5764e-13
2.60608e-13
2.66669e-13
2.67653e-13
2.71216e-13
2.71012e-13
2.72455e-13
2.73239e-13
2.72651e-13
2.73127e-13
2.69388e-13
2.67858e-13
2.61247e-13
2.58158e-13
2.48344e-13
2.43423e-13
2.30896e-13
2.22242e-13
2.05876e-13
1.92426e-13
1.71797e-13
1.52305e-13
1.32645e-13
1.06765e-13
9.33231e-14
7.32464e-14
6.05458e-14
4.97964e-14
4.40216e-14
4.23015e-14
4.60611e-14
6.0783e-14
2.66351e-14
2.02173e-14
1.8622e-14
1.94037e-14
2.1938e-14
2.65902e-14
3.21298e-14
4.07118e-14
4.64773e-14
5.75322e-14
6.6024e-14
7.44378e-14
8.3455e-14
8.91404e-14
9.58077e-14
9.93376e-14
1.04862e-13
1.07016e-13
1.11103e-13
1.12357e-13
1.14973e-13
1.15378e-13
1.16918e-13
1.16815e-13
1.17438e-13
1.17784e-13
1.17536e-13
1.17757e-13
1.16138e-13
1.15495e-13
1.12637e-13
1.11334e-13
1.07114e-13
1.05042e-13
9.96707e-14
9.59962e-14
8.90034e-14
8.32546e-14
7.4431e-14
6.61018e-14
5.76365e-14
4.65002e-14
4.06957e-14
3.20415e-14
2.64909e-14
2.18557e-14
1.934e-14
1.85646e-14
2.01554e-14
2.65853e-14
1.14069e-14
8.67108e-15
8.01355e-15
8.35946e-15
9.44208e-15
1.14027e-14
1.37697e-14
1.73809e-14
1.98115e-14
2.44466e-14
2.80082e-14
3.15117e-14
3.52643e-14
3.76306e-14
4.03909e-14
4.18489e-14
4.41484e-14
4.50323e-14
4.67398e-14
4.72548e-14
4.83512e-14
4.8513e-14
4.91592e-14
4.91099e-14
4.93715e-14
4.95199e-14
4.94183e-14
4.95177e-14
4.88371e-14
4.85743e-14
4.73749e-14
4.68402e-14
4.50784e-14
4.42301e-14
4.19946e-14
4.04744e-14
3.75764e-14
3.51808e-14
3.15132e-14
2.80466e-14
2.44949e-14
1.98245e-14
1.73781e-14
1.37339e-14
1.13622e-14
9.40844e-15
8.33335e-15
7.99e-15
8.64557e-15
1.1387e-14
4.78795e-15
3.6489e-15
3.38467e-15
3.53504e-15
3.98928e-15
4.79779e-15
5.78751e-15
7.27324e-15
8.27456e-15
1.01707e-14
1.16277e-14
1.30501e-14
1.45697e-14
1.55308e-14
1.66401e-14
1.7228e-14
1.81573e-14
1.85109e-14
1.92045e-14
1.94102e-14
1.98571e-14
1.99198e-14
2.01834e-14
2.01607e-14
2.02673e-14
2.03294e-14
2.02893e-14
2.03326e-14
2.00544e-14
1.995e-14
1.94605e-14
1.92471e-14
1.85319e-14
1.8194e-14
1.72897e-14
1.66761e-14
1.55102e-14
1.45357e-14
1.30528e-14
1.16459e-14
1.01924e-14
8.28133e-15
7.274e-15
5.77335e-15
4.78169e-15
3.97591e-15
3.52464e-15
3.37527e-15
3.63869e-15
4.78023e-15
1.97115e-15
1.50784e-15
1.40421e-15
1.46837e-15
1.65581e-15
1.98229e-15
2.38763e-15
2.98576e-15
3.38921e-15
4.14665e-15
4.72848e-15
5.29222e-15
5.89128e-15
6.27276e-15
6.70577e-15
6.93759e-15
7.3022e-15
7.44041e-15
7.71456e-15
7.79463e-15
7.97193e-15
7.99549e-15
8.10013e-15
8.09005e-15
8.13237e-15
8.15769e-15
8.14235e-15
8.16075e-15
8.05007e-15
8.00967e-15
7.81519e-15
7.73222e-15
7.44971e-15
7.3186e-15
6.96276e-15
6.72081e-15
6.26532e-15
5.87781e-15
5.2943e-15
4.73686e-15
4.15623e-15
3.39256e-15
2.98693e-15
2.38217e-15
1.97606e-15
1.65064e-15
1.46434e-15
1.40056e-15
1.50386e-15
1.96827e-15
7.96438e-16
6.12312e-16
5.7263e-16
5.99452e-16
6.75629e-16
8.04809e-16
9.67521e-16
1.20327e-15
1.36241e-15
1.6581e-15
1.88502e-15
2.10337e-15
2.33329e-15
2.48152e-15
2.6456e-15
2.73514e-15
2.87408e-15
2.92693e-15
3.03244e-15
3.06282e-15
3.13136e-15
3.13996e-15
3.18042e-15
3.17609e-15
3.19244e-15
3.20253e-15
3.19686e-15
3.20446e-15
3.16157e-15
3.14634e-15
3.07106e-15
3.03963e-15
2.93092e-15
2.88128e-15
2.74509e-15
2.65172e-15
2.47896e-15
2.32805e-15
2.10464e-15
1.88877e-15
1.66221e-15
1.36399e-15
1.20413e-15
9.65454e-16
8.02466e-16
6.73675e-16
5.97936e-16
5.71253e-16
6.10808e-16
7.95409e-16
3.15994e-16
2.44517e-16
2.29679e-16
2.40625e-16
2.71162e-16
3.2128e-16
3.85338e-16
4.76335e-16
5.37836e-16
6.50708e-16
7.37178e-16
8.1993e-16
9.05767e-16
9.62273e-16
1.02258e-15
1.05649e-15
1.10792e-15
1.12773e-15
1.16725e-15
1.17852e-15
1.20436e-15
1.2074e-15
1.22265e-15
1.22084e-15
1.227e-15
1.23093e-15
1.22891e-15
1.23197e-15
1.21577e-15
1.21016e-15
1.18176e-15
1.17014e-15
1.12938e-15
1.11099e-15
1.06034e-15
1.02501e-15
9.61441e-16
9.03763e-16
8.20629e-16
7.38807e-16
6.52441e-16
5.38554e-16
4.76853e-16
3.84567e-16
3.20421e-16
2.70442e-16
2.40069e-16
2.29174e-16
2.43963e-16
3.15641e-16
1.23168e-16
9.60764e-17
9.06822e-17
9.49808e-17
1.07097e-16
1.26175e-16
1.5092e-16
1.85319e-16
2.08627e-16
2.50777e-16
2.82964e-16
3.13698e-16
3.44816e-16
3.66003e-16
3.8747e-16
4.00066e-16
4.18564e-16
4.25845e-16
4.40246e-16
4.44342e-16
4.53847e-16
4.54886e-16
4.60491e-16
4.59759e-16
4.62021e-16
4.63521e-16
4.62826e-16
4.6403e-16
4.58057e-16
4.56045e-16
4.45597e-16
4.41396e-16
4.26505e-16
4.19827e-16
4.01533e-16
3.88407e-16
3.65748e-16
3.44059e-16
3.14064e-16
2.83653e-16
2.51492e-16
2.08942e-16
1.85601e-16
1.50634e-16
1.25868e-16
1.06837e-16
9.47822e-17
9.05033e-17
9.58787e-17
1.23054e-16
4.71876e-17
3.71566e-17
3.52574e-17
3.68867e-17
4.16384e-17
4.87718e-17
5.81555e-17
7.08855e-17
7.9557e-17
9.49616e-17
1.06657e-16
1.17868e-16
1.28784e-16
1.36617e-16
1.44018e-16
1.48572e-16
1.55074e-16
1.57673e-16
1.62792e-16
1.64243e-16
1.67661e-16
1.68004e-16
1.70013e-16
1.69725e-16
1.70535e-16
1.71095e-16
1.70866e-16
1.71328e-16
1.6918e-16
1.68473e-16
1.64727e-16
1.63236e-16
1.57935e-16
1.5557e-16
1.49131e-16
1.44365e-16
1.36543e-16
1.28501e-16
1.18052e-16
1.06939e-16
9.52516e-17
7.96916e-17
7.10301e-17
5.80471e-17
4.86653e-17
4.15456e-17
3.68176e-17
3.51966e-17
3.70883e-17
4.71524e-17
1.77772e-17
1.41478e-17
1.35008e-17
1.41073e-17
1.59394e-17
1.85648e-17
2.20592e-17
2.66661e-17
2.98392e-17
3.53499e-17
3.94929e-17
4.35186e-17
4.72074e-17
5.00565e-17
5.2546e-17
5.4127e-17
5.63748e-17
5.72676e-17
5.90492e-17
5.95456e-17
6.07481e-17
6.08568e-17
6.15598e-17
6.14488e-17
6.17318e-17
6.19366e-17
6.18646e-17
6.20384e-17
6.12834e-17
6.10421e-17
5.97301e-17
5.92147e-17
5.73734e-17
5.65621e-17
5.4337e-17
5.26708e-17
5.00357e-17
4.71044e-17
4.36097e-17
3.96027e-17
3.54661e-17
2.98958e-17
2.67382e-17
2.20163e-17
1.85288e-17
1.59058e-17
1.40841e-17
1.34812e-17
1.41251e-17
1.77672e-17
6.59071e-18
5.30728e-18
5.0938e-18
5.32117e-18
6.0104e-18
6.96503e-18
8.24357e-18
9.87137e-18
1.10171e-17
1.29462e-17
1.43745e-17
1.57981e-17
1.70005e-17
1.8005e-17
1.88343e-17
1.93584e-17
2.01236e-17
2.04183e-17
2.10251e-17
2.11895e-17
2.16026e-17
2.16356e-17
2.18754e-17
2.18338e-17
2.193e-17
2.20036e-17
2.19823e-17
2.20462e-17
2.17872e-17
2.1707e-17
2.12577e-17
2.10853e-17
2.04607e-17
2.01922e-17
1.94357e-17
1.88791e-17
1.79964e-17
1.69698e-17
1.58398e-17
1.44127e-17
1.29922e-17
1.10416e-17
9.9065e-18
8.22547e-18
6.9532e-18
5.99764e-18
5.31363e-18
5.08839e-18
5.30004e-18
6.58822e-18
2.4134e-18
1.96928e-18
1.90156e-18
1.98897e-18
2.24005e-18
2.58609e-18
3.04691e-18
3.60873e-18
4.02033e-18
4.68145e-18
5.15976e-18
5.6519e-18
6.03697e-18
6.37734e-18
6.65321e-18
6.81983e-18
7.07573e-18
7.16907e-18
7.37156e-18
7.42417e-18
7.56278e-18
7.57234e-18
7.65227e-18
7.63701e-18
7.66887e-18
7.69493e-18
7.68911e-18
7.71219e-18
7.62533e-18
7.59935e-18
7.44885e-18
7.39288e-18
7.18581e-18
7.10034e-18
6.84778e-18
6.66961e-18
6.37362e-18
6.03131e-18
5.66947e-18
5.17042e-18
4.69841e-18
4.0318e-18
3.6253e-18
3.03914e-18
2.58239e-18
2.23459e-18
1.98753e-18
1.89991e-18
1.96703e-18
2.41292e-18
8.97344e-19
7.44211e-19
7.22848e-19
7.58895e-19
8.50275e-19
9.78166e-19
1.14561e-18
1.34005e-18
1.48981e-18
1.71628e-18
1.87666e-18
2.04428e-18
2.17145e-18
2.28342e-18
2.37599e-18
2.42845e-18
2.51322e-18
2.54253e-18
2.60966e-18
2.62642e-18
2.67277e-18
2.67538e-18
2.70194e-18
2.6963e-18
2.70681e-18
2.71612e-18
2.71473e-18
2.72315e-18
2.69409e-18
2.68574e-18
2.63539e-18
2.61735e-18
2.54906e-18
2.52225e-18
2.43861e-18
2.38229e-18
2.28236e-18
2.17107e-18
2.05159e-18
1.87963e-18
1.72156e-18
1.49555e-18
1.34722e-18
1.14287e-18
9.77179e-19
8.47961e-19
7.58835e-19
7.22333e-19
7.43569e-19
8.9727e-19
4.09505e-19
3.46065e-19
3.37914e-19
3.56288e-19
3.97464e-19
4.55309e-19
5.2872e-19
6.11713e-19
6.77309e-19
7.71417e-19
8.37201e-19
9.04328e-19
9.57116e-19
1.00049e-18
1.03756e-18
1.0577e-18
1.09094e-18
1.10209e-18
1.12889e-18
1.13518e-18
1.1539e-18
1.15468e-18
1.16532e-18
1.16277e-18
1.16694e-18
1.171e-18
1.17073e-18
1.17448e-18
1.16276e-18
1.15954e-18
1.1392e-18
1.13222e-18
1.10521e-18
1.09509e-18
1.06223e-18
1.04022e-18
1.00084e-18
9.57067e-19
9.07923e-19
8.38587e-19
7.7336e-19
6.80563e-19
6.14846e-19
5.2794e-19
4.55227e-19
3.96225e-19
3.56445e-19
3.37715e-19
3.4575e-19
4.09604e-19
)
;

boundaryField
{
    fuel
    {
        type            fixedValue;
        value           nonuniform 0();
    }
    wall
    {
        type            zeroGradient;
    }
    outlet
    {
        type            zeroGradient;
    }
    frontAndBack
    {
        type            empty;
    }
    procBoundary3to2
    {
        type            processor;
        value           nonuniform List<scalar> 
51
(
1.64305e-08
1.73551e-08
1.81618e-08
1.87966e-08
1.92513e-08
1.97024e-08
1.9986e-08
2.02578e-08
2.04388e-08
2.06049e-08
2.06986e-08
2.07862e-08
2.08182e-08
2.08573e-08
2.08754e-08
2.08626e-08
2.08369e-08
2.07522e-08
2.06464e-08
2.04707e-08
2.02888e-08
1.99919e-08
1.96962e-08
1.92712e-08
1.8793e-08
1.81465e-08
1.73372e-08
1.64462e-08
1.5458e-08
1.44547e-08
1.31499e-08
1.22146e-08
1.10631e-08
1.02125e-08
9.31539e-09
8.81631e-09
8.6066e-09
8.90161e-09
9.68856e-09
8.36955e-09
7.68021e-09
7.42409e-09
7.60104e-09
8.0312e-09
8.79778e-09
9.51405e-09
1.04833e-08
1.12487e-08
1.22918e-08
1.31516e-08
1.31516e-08
)
;
    }
}


// ************************************************************************* //
