/*--------------------------------*- C++ -*----------------------------------*\
| =========                 |                                                 |
| \\      /  F ield         | OpenFOAM: The Open Source CFD Toolbox           |
|  \\    /   O peration     | Version:  dev                                   |
|   \\  /    A nd           | Web:      www.OpenFOAM.org                      |
|    \\/     M anipulation  |                                                 |
\*---------------------------------------------------------------------------*/
FoamFile
{
    version     2.0;
    format      ascii;
    class       volScalarField;
    location    "0.005";
    object      HCO;
}
// * * * * * * * * * * * * * * * * * * * * * * * * * * * * * * * * * * * * * //

dimensions      [0 0 0 0 0 0 0];

internalField   nonuniform List<scalar> 
250
(
1.8529e-12
1.82835e-12
1.96767e-12
1.86708e-12
2.2366e-12
2.1732e-12
2.97102e-12
1.39993e-12
3.24492e-13
7.03712e-14
1.00726e-14
1.9472e-10
1.91801e-10
2.07292e-10
1.97387e-10
2.38914e-10
2.35583e-10
3.30728e-10
1.39889e-10
1.68869e-11
1.57838e-12
2.06341e-13
2.16609e-08
2.13759e-08
2.28131e-08
2.19777e-08
2.58574e-08
2.5776e-08
3.52826e-08
1.55184e-08
1.00303e-09
3.59379e-11
2.46216e-12
1.83595e-06
1.82018e-06
1.89579e-06
1.85623e-06
2.06672e-06
2.0711e-06
2.66438e-06
1.3914e-06
6.51043e-08
1.0835e-09
4.10986e-11
7.03947e-05
7.08746e-05
6.83541e-05
6.98338e-05
6.32175e-05
6.27655e-05
5.3275e-05
6.66555e-05
3.12709e-06
4.61689e-08
8.9968e-10
2.83054e-05
2.85791e-05
2.73003e-05
2.79286e-05
2.49055e-05
2.46116e-05
2.05739e-05
3.17751e-05
5.08635e-05
6.99964e-07
1.11651e-08
1.11501e-05
1.12184e-05
1.08836e-05
1.10655e-05
1.02049e-05
1.01243e-05
8.69637e-06
1.17125e-05
2.73697e-05
1.95498e-06
4.05053e-08
4.86415e-06
4.87978e-06
4.79729e-06
4.84301e-06
4.60418e-06
4.56759e-06
4.06167e-06
4.92127e-06
1.13275e-05
7.03958e-06
1.53965e-07
2.36841e-06
2.36837e-06
2.3478e-06
2.3537e-06
2.28785e-06
2.2623e-06
2.09071e-06
2.4079e-06
5.24049e-06
1.37488e-05
3.84372e-07
1.33833e-06
1.32476e-06
1.31765e-06
1.31324e-06
1.29189e-06
1.27065e-06
1.21321e-06
1.38465e-06
2.84865e-06
1.38149e-05
6.06669e-07
8.60454e-07
8.56184e-07
8.49952e-07
8.3984e-07
8.21988e-07
8.01544e-07
9.17898e-07
1.77643e-06
1.02686e-05
7.48261e-07
6.31114e-07
6.27897e-07
6.22191e-07
6.15562e-07
6.01019e-07
5.92076e-07
6.74806e-07
1.24129e-06
6.92381e-06
7.60182e-07
5.01484e-07
4.99033e-07
4.94426e-07
4.89443e-07
4.77919e-07
4.72216e-07
5.29909e-07
8.86956e-07
4.5641e-06
6.63307e-07
4.16778e-07
4.14932e-07
4.11394e-07
4.07476e-07
3.98536e-07
3.93296e-07
4.30089e-07
6.78487e-07
3.0163e-06
5.32061e-07
3.5433e-07
3.52935e-07
3.50402e-07
3.47075e-07
3.40134e-07
3.34557e-07
3.57361e-07
5.21262e-07
2.00957e-06
4.11309e-07
3.04117e-07
3.03003e-07
3.01258e-07
2.9825e-07
2.92727e-07
2.86594e-07
3.00039e-07
3.95289e-07
1.32596e-06
3.12979e-07
2.60968e-07
2.60017e-07
2.58872e-07
2.56043e-07
2.51517e-07
2.44773e-07
2.5126e-07
3.00866e-07
8.88346e-07
2.3677e-07
2.22208e-07
2.21375e-07
2.20742e-07
2.18024e-07
2.14207e-07
2.07012e-07
2.08124e-07
2.3323e-07
5.94551e-07
1.78295e-07
1.87304e-07
1.8653e-07
1.86406e-07
1.83634e-07
1.80378e-07
1.71542e-07
1.61649e-07
1.82892e-07
3.97012e-07
1.33369e-07
1.47246e-07
1.46396e-07
1.47495e-07
1.44006e-07
1.41571e-07
1.34249e-07
1.31962e-07
1.40091e-07
2.63003e-07
9.90237e-08
1.21681e-07
1.20955e-07
1.20392e-07
1.18967e-07
1.16721e-07
1.10687e-07
1.05775e-07
1.06951e-07
1.73815e-07
7.30114e-08
9.83104e-08
9.7834e-08
9.78408e-08
9.59494e-08
9.41888e-08
8.89069e-08
8.42183e-08
8.03365e-08
1.16352e-07
5.28239e-08
7.89786e-08
7.86078e-08
7.86313e-08
7.68785e-08
7.55481e-08
7.00787e-08
6.46164e-08
5.82331e-08
7.59266e-08
3.83494e-08
6.07635e-08
6.03689e-08
6.05661e-08
5.93278e-08
5.78339e-08
5.45705e-08
4.95146e-08
4.25736e-08
4.99137e-08
2.74729e-08
)
;

boundaryField
{
    fuel
    {
        type            fixedValue;
        value           uniform 0;
    }
    wall
    {
        type            zeroGradient;
    }
    outlet
    {
        type            zeroGradient;
    }
    frontAndBack
    {
        type            empty;
    }
    procBoundary3to0
    {
        type            processor;
        value           nonuniform List<scalar> 10(4.71158e-08 4.67296e-08 4.70002e-08 4.56949e-08 4.44971e-08 4.05168e-08 3.55493e-08 3.14942e-08 3.37788e-08 1.99524e-08);
    }
    procBoundary3to2
    {
        type            processor;
        value           nonuniform List<scalar> 
25
(
1.9699e-12
2.07591e-10
2.28463e-08
1.89815e-06
6.83574e-05
2.73005e-05
1.089e-05
4.80276e-06
2.35103e-06
1.3193e-06
8.82805e-07
8.82805e-07
6.42936e-07
5.05457e-07
4.17239e-07
3.53852e-07
3.03585e-07
2.60556e-07
2.21917e-07
1.87114e-07
1.47138e-07
1.21614e-07
9.83205e-08
7.92008e-08
6.07741e-08
)
;
    }
}


// ************************************************************************* //
