/*--------------------------------*- C++ -*----------------------------------*\
| =========                 |                                                 |
| \\      /  F ield         | OpenFOAM: The Open Source CFD Toolbox           |
|  \\    /   O peration     | Version:  dev                                   |
|   \\  /    A nd           | Web:      www.OpenFOAM.org                      |
|    \\/     M anipulation  |                                                 |
\*---------------------------------------------------------------------------*/
FoamFile
{
    version     2.0;
    format      ascii;
    class       volScalarField;
    location    "0.005";
    object      OH;
}
// * * * * * * * * * * * * * * * * * * * * * * * * * * * * * * * * * * * * * //

dimensions      [0 0 0 0 0 0 0];

internalField   nonuniform List<scalar> 
25
(
6.75067e-20
2.76248e-20
1.03027e-20
4.02194e-21
1.45144e-21
5.47375e-22
2.20367e-22
8.73167e-23
3.23983e-23
1.3704e-23
5.82406e-24
2.1717e-24
8.74897e-25
3.60901e-25
1.49274e-25
6.17627e-26
2.56239e-26
1.06847e-26
4.4817e-27
1.81017e-27
8.4841e-28
3.46545e-28
1.4075e-28
5.86471e-29
2.30856e-29
)
;

boundaryField
{
    wall
    {
        type            zeroGradient;
    }
    fuel
    {
        type            fixedValue;
        value           nonuniform 0();
    }
    outlet
    {
        type            inletOutlet;
        inletValue      uniform 0;
        value           uniform 2.30856e-29;
    }
    procBoundary3to2
    {
        type            processor;
        value           uniform 1.81912e-19;
    }
}


// ************************************************************************* //
