/*--------------------------------*- C++ -*----------------------------------*\
| =========                 |                                                 |
| \\      /  F ield         | OpenFOAM: The Open Source CFD Toolbox           |
|  \\    /   O peration     | Version:  dev                                   |
|   \\  /    A nd           | Web:      www.OpenFOAM.org                      |
|    \\/     M anipulation  |                                                 |
\*---------------------------------------------------------------------------*/
FoamFile
{
    version     2.0;
    format      ascii;
    class       volVectorField;
    location    "0.005";
    object      U;
}
// * * * * * * * * * * * * * * * * * * * * * * * * * * * * * * * * * * * * * //

dimensions      [0 1 -1 0 0 0 0];

internalField   nonuniform List<vector> 
250
(
(0 0.0778346 0.113995)
(0 -0.0762018 0.113957)
(0 -0.236631 0.114173)
(0 -0.389947 0.113575)
(0 -0.555964 0.113872)
(0 -0.700829 0.113444)
(0 -0.882926 0.114702)
(0 -0.994017 0.111873)
(0 -1.26672 0.110925)
(0 -1.08431 0.111445)
(0 -1.76685 0.0934975)
(0 0.124702 0.13484)
(0 -0.124244 0.134601)
(0 -0.397302 0.13616)
(0 -0.643244 0.134585)
(0 -0.934667 0.136527)
(0 -1.16484 0.134572)
(0 -1.52022 0.139715)
(0 -1.67912 0.126422)
(0 -2.15973 0.125225)
(0 -1.76688 0.120818)
(0 -2.72416 0.0536064)
(0 0.166961 0.217661)
(0 -0.166449 0.21656)
(0 -0.539731 0.220723)
(0 -0.863708 0.214256)
(0 -1.26491 0.224562)
(0 -1.56421 0.221897)
(0 -2.06597 0.244012)
(0 -2.2505 0.186588)
(0 -2.85024 0.157519)
(0 -2.29134 0.129453)
(0 -3.30218 0.0152323)
(0 0.222519 0.670622)
(0 -0.219571 0.665456)
(0 -0.714841 0.68673)
(0 -1.1477 0.676856)
(0 -1.68841 0.713994)
(0 -2.08536 0.718955)
(0 -2.74718 0.75831)
(0 -2.94148 0.515079)
(0 -3.59322 0.272943)
(0 -2.82111 0.148018)
(0 -3.83434 -0.0165724)
(0 0.305512 1.71403)
(0 -0.294291 1.70921)
(0 -0.949439 1.72114)
(0 -1.53339 1.72535)
(0 -2.25344 1.7255)
(0 -2.77898 1.74554)
(0 -3.59199 1.68345)
(0 -3.80705 1.41773)
(0 -4.46011 0.606599)
(0 -3.40922 0.220258)
(0 -4.38228 -0.0337187)
(0 0.369874 2.6084)
(0 -0.356471 2.61145)
(0 -1.14326 2.57928)
(0 -1.85123 2.60559)
(0 -2.68962 2.49922)
(0 -3.32125 2.51548)
(0 -4.2456 2.30786)
(0 -4.60565 2.2585)
(0 -5.41036 1.17896)
(0 -4.03312 0.368331)
(0 -4.94294 -0.0299562)
(0 0.414292 3.01125)
(0 -0.401977 3.01456)
(0 -1.28834 2.97962)
(0 -2.08646 3.00909)
(0 -3.01588 2.88479)
(0 -3.7298 2.8966)
(0 -4.74619 2.63237)
(0 -5.21104 2.58075)
(0 -6.17513 1.59916)
(0 -4.63366 0.542892)
(0 -5.48942 -0.00820038)
(0 0.445753 3.11572)
(0 -0.435548 3.11833)
(0 -1.39236 3.09071)
(0 -2.2523 3.11471)
(0 -3.25118 2.99933)
(0 -4.0235 3.00244)
(0 -5.11658 2.73908)
(0 -5.64141 2.64122)
(0 -6.72794 1.76192)
(0 -5.17497 0.715116)
(0 -5.99544 0.0289958)
(0 0.462707 3.10579)
(0 -0.454501 3.10786)
(0 -1.46646 3.08497)
(0 -2.36825 3.102)
(0 -3.41924 2.99718)
(0 -4.2309 2.98976)
(0 -5.38433 2.74422)
(0 -5.94005 2.60957)
(0 -7.11218 1.79927)
(0 -5.64344 0.881496)
(0 -6.44456 0.0791294)
(0 0.476719 3.06641)
(0 -0.46968 3.06757)
(0 -1.51949 3.04534)
(0 -2.44969 3.05611)
(0 -3.53913 2.9598)
(0 -4.37641 2.9424)
(0 -5.57399 2.71534)
(0 -6.14456 2.55345)
(0 -7.37453 1.79635)
(0 -6.02119 1.01611)
(0 -6.82748 0.132016)
(0 -0.480816 3.01439)
(0 -1.55712 2.99479)
(0 -2.50612 3.00024)
(0 -3.6233 2.91075)
(0 -4.47632 2.88442)
(0 -5.70425 2.67368)
(0 -6.28097 2.49102)
(0 -7.54959 1.78201)
(0 -6.30654 1.10426)
(0 -7.14179 0.180018)
(0 -0.487658 2.95679)
(0 -1.58298 2.93875)
(0 -2.54345 2.93973)
(0 -3.68004 2.8557)
(0 -4.54136 2.82151)
(0 -5.78916 2.62466)
(0 -6.36711 2.42643)
(0 -7.66169 1.76236)
(0 -6.51322 1.15397)
(0 -7.39285 0.219836)
(0 -0.491204 2.89585)
(0 -1.59981 2.87915)
(0 -2.56615 2.8764)
(0 -3.71574 2.79694)
(0 -4.57971 2.75599)
(0 -5.83993 2.57095)
(0 -6.41645 2.36038)
(0 -7.72744 1.73248)
(0 -6.65865 1.17746)
(0 -7.58991 0.250751)
(0 -0.492593 2.83242)
(0 -1.6099 2.81689)
(0 -2.57798 2.81111)
(0 -3.73584 2.73562)
(0 -4.59846 2.68905)
(0 -5.86581 2.51418)
(0 -6.43904 2.29382)
(0 -7.76139 1.69472)
(0 -6.75912 1.18338)
(0 -7.74308 0.273296)
(0 -0.492719 2.76737)
(0 -1.61556 2.75283)
(0 -2.58276 2.74457)
(0 -3.74575 2.67268)
(0 -4.60447 2.6214)
(0 -5.87581 2.45544)
(0 -6.44573 2.22849)
(0 -7.7761 1.65776)
(0 -6.82756 1.17634)
(0 -7.8616 0.288439)
(0 -0.492248 2.70076)
(0 -1.61871 2.68703)
(0 -2.58364 2.67663)
(0 -3.74999 2.60812)
(0 -4.60354 2.55293)
(0 -5.87716 2.39474)
(0 -6.444 2.1629)
(0 -7.7809 1.61771)
(0 -6.87366 1.16181)
(0 -7.95307 0.297332)
(0 -0.491632 2.63196)
(0 -1.62076 2.6189)
(0 -2.58304 2.60676)
(0 -3.7519 2.54132)
(0 -4.60005 2.48301)
(0 -5.87502 2.33156)
(0 -6.43886 2.0958)
(0 -7.78205 1.57196)
(0 -6.90453 1.14125)
(0 -8.02298 0.301126)
(0 -0.491173 2.56077)
(0 -1.6227 2.54828)
(0 -2.58263 2.53479)
(0 -3.75372 2.47208)
(0 -4.59696 2.41134)
(0 -5.87288 2.26549)
(0 -6.43377 2.0277)
(0 -7.78274 1.52285)
(0 -6.92477 1.11363)
(0 -8.07551 0.300865)
(0 -0.491036 2.48711)
(0 -1.62508 2.47517)
(0 -2.58335 2.46047)
(0 -3.75671 2.40044)
(0 -4.59584 2.33772)
(0 -5.87262 2.19807)
(0 -6.43125 1.95851)
(0 -7.78425 1.47144)
(0 -6.93727 1.0814)
(0 -8.11343 0.297573)
(0 -0.49136 2.41103)
(0 -1.62834 2.39955)
(0 -2.58584 2.38478)
(0 -3.7619 2.32637)
(0 -4.59805 2.26207)
(0 -5.87614 2.12774)
(0 -6.43249 1.88709)
(0 -7.78679 1.41869)
(0 -6.94362 1.04563)
(0 -8.13855 0.29209)
(0 -0.492194 2.33176)
(0 -1.63281 2.32065)
(0 -2.59057 2.30544)
(0 -3.76965 2.24907)
(0 -4.60394 2.18363)
(0 -5.88307 2.05293)
(0 -6.43649 1.81341)
(0 -7.78972 1.36455)
(0 -6.94448 1.00689)
(0 -8.15182 0.285364)
(0 -0.493376 2.249)
(0 -1.63789 2.23827)
(0 -2.59679 2.22178)
(0 -3.77908 2.16847)
(0 -4.6122 2.1022)
(0 -5.89197 1.97622)
(0 -6.44195 1.73822)
(0 -7.79216 1.30872)
(0 -6.93949 0.965801)
(0 -8.15383 0.278429)
(0 -0.494765 2.16351)
(0 -1.64327 2.15319)
(0 -2.60381 2.13635)
(0 -3.78925 2.08512)
(0 -4.62175 2.01849)
(0 -5.90166 1.8977)
(0 -6.44749 1.66217)
(0 -7.79243 1.25159)
(0 -6.929 0.922809)
(0 -8.14565 0.271782)
(0 -0.496198 2.07598)
(0 -1.64856 2.06609)
(0 -2.61092 2.04891)
(0 -3.7992 2.00015)
(0 -4.63138 1.93315)
(0 -5.91069 1.81738)
(0 -6.45171 1.58506)
(0 -7.7889 1.19487)
(0 -6.91183 0.878262)
(0 -8.12657 0.265367)
)
;

boundaryField
{
    fuel
    {
        type            fixedValue;
        value           uniform (0 0 0.1055);
    }
    wall
    {
        type            slip;
    }
    outlet
    {
        type            pressureInletOutletVelocity;
        value           nonuniform List<vector> 
24
(
(0 -1.76685 0.0934975)
(0 -2.72416 0.0536064)
(0 -3.30218 0.0152323)
(0 -3.83434 -0.0165724)
(0 -4.38228 -0.0337187)
(0 -4.94294 -0.0299562)
(0 -5.48942 -0.00820038)
(0 -5.99544 0.0289958)
(0 -6.44456 0.0791294)
(0 -6.82748 0.132016)
(0 -7.14179 0.180018)
(0 -7.39285 0.219836)
(0 -7.58991 0.250751)
(0 -7.74308 0.273296)
(0 -7.8616 0.288439)
(0 -7.95307 0.297332)
(0 -8.02298 0.301126)
(0 -8.07551 0.300865)
(0 -8.11343 0.297573)
(0 -8.13855 0.29209)
(0 -8.15182 0.285364)
(0 -8.15383 0.278429)
(0 -8.14565 0.271782)
(0 -8.12657 0.265367)
)
;
    }
    frontAndBack
    {
        type            empty;
    }
    procBoundary3to0
    {
        type            processor;
        value           nonuniform List<vector> 10((0 -0.497561 1.98609) (0 -1.65335 1.97672) (0 -2.61749 1.95943) (0 -3.80807 1.91321) (0 -4.63983 1.846) (0 -5.9176 1.73503) (0 -6.45276 1.50652) (0 -7.77965 1.13829) (0 -6.88702 0.833205) (0 -8.09687 0.259907));
    }
    procBoundary3to2
    {
        type            processor;
        value           nonuniform List<vector> 
25
(
(0 0.238797 0.114077)
(0 0.398512 0.135822)
(0 0.541327 0.220271)
(0 0.718985 0.686394)
(0 0.961787 1.72069)
(0 1.15798 2.5787)
(0 1.30221 2.97912)
(0 1.40435 3.09007)
(0 1.47671 3.08398)
(0 1.52843 3.04394)
(0 0.487191 3.0138)
(0 0.487191 3.0138)
(0 0.493413 2.95718)
(0 0.496467 2.89705)
(0 0.497457 2.83379)
(0 0.497279 2.76879)
(0 0.496557 2.70203)
(0 0.49573 2.63304)
(0 0.495107 2.56175)
(0 0.494847 2.48801)
(0 0.495069 2.41184)
(0 0.495852 2.33248)
(0 0.497008 2.24962)
(0 0.498384 2.16417)
(0 0.49983 2.07654)
)
;
    }
}


// ************************************************************************* //
