/*--------------------------------*- C++ -*----------------------------------*\
| =========                 |                                                 |
| \\      /  F ield         | OpenFOAM: The Open Source CFD Toolbox           |
|  \\    /   O peration     | Version:  dev                                   |
|   \\  /    A nd           | Web:      www.OpenFOAM.org                      |
|    \\/     M anipulation  |                                                 |
\*---------------------------------------------------------------------------*/
FoamFile
{
    version     2.0;
    format      ascii;
    class       volVectorField;
    location    "0.005";
    object      U;
}
// * * * * * * * * * * * * * * * * * * * * * * * * * * * * * * * * * * * * * //

dimensions      [0 1 -1 0 0 0 0];

internalField   nonuniform List<vector> 
13
(
(2.74257e-14 -2.74257e-14 0.225351)
(2.10772e-14 -2.10772e-14 0.220312)
(1.58606e-14 -1.58606e-14 0.213973)
(1.16535e-14 -1.16535e-14 0.205602)
(8.61246e-15 -8.61246e-15 0.199368)
(6.2081e-15 -6.2081e-15 0.19408)
(4.4103e-15 -4.4103e-15 0.189568)
(3.09972e-15 -3.09972e-15 0.184892)
(2.1361e-15 -2.1361e-15 0.180006)
(1.44246e-15 -1.44246e-15 0.175602)
(9.5641e-16 -9.5641e-16 0.171819)
(6.22871e-16 -6.22871e-16 0.166953)
(3.98989e-16 -3.98989e-16 0.163091)
)
;

boundaryField
{
    wall
    {
        type            zeroGradient;
    }
    fuel
    {
        type            fixedValue;
        value           nonuniform 0();
    }
    outlet
    {
        type            pressureInletOutletVelocity;
        value           nonuniform 0();
    }
    procBoundary3to2
    {
        type            processor;
        value           uniform (3.54348e-14 -3.54348e-14 0.231374);
    }
    procBoundary3to4
    {
        type            processor;
        value           uniform (2.51148e-16 -2.51148e-16 0.160883);
    }
}


// ************************************************************************* //
