/*--------------------------------*- C++ -*----------------------------------*\
| =========                 |                                                 |
| \\      /  F ield         | OpenFOAM: The Open Source CFD Toolbox           |
|  \\    /   O peration     | Version:  dev                                   |
|   \\  /    A nd           | Web:      www.OpenFOAM.org                      |
|    \\/     M anipulation  |                                                 |
\*---------------------------------------------------------------------------*/
FoamFile
{
    version     2.0;
    format      ascii;
    class       volScalarField;
    location    "0.185";
    object      A2C2HA*;
}
// * * * * * * * * * * * * * * * * * * * * * * * * * * * * * * * * * * * * * //

dimensions      [0 0 0 0 0 0 0];

internalField   nonuniform List<scalar> 
250
(
1.74673e-12
1.76301e-12
1.75227e-12
1.77651e-12
1.76912e-12
1.82653e-12
2.001e-12
2.43619e-12
4.31803e-12
5.02883e-12
1.58162e-12
1.59705e-12
1.58618e-12
1.60947e-12
1.60255e-12
1.65515e-12
1.81238e-12
2.20625e-12
3.85992e-12
5.00194e-12
1.2005e-11
4.34195e-12
2.15936e-12
1.59256e-12
1.477e-12
1.44692e-12
1.446e-12
1.44273e-12
1.44093e-12
1.4392e-12
1.43506e-12
1.44945e-12
1.43882e-12
1.46068e-12
1.45437e-12
1.50191e-12
1.643e-12
1.99811e-12
3.42975e-12
4.91412e-12
1.00739e-11
3.72005e-12
1.92994e-12
1.44506e-12
1.34373e-12
1.31697e-12
1.31591e-12
1.31252e-12
1.31134e-12
1.30981e-12
1.30575e-12
1.31892e-12
1.30886e-12
1.32891e-12
1.32332e-12
1.36604e-12
1.49115e-12
1.81009e-12
3.09729e-12
4.77324e-12
8.3836e-12
3.17003e-12
1.72603e-12
1.31478e-12
1.22673e-12
1.20309e-12
1.20194e-12
1.19861e-12
1.19786e-12
1.19654e-12
1.19269e-12
1.20447e-12
1.19526e-12
1.21321e-12
1.20842e-12
1.24645e-12
1.35615e-12
1.64092e-12
2.79814e-12
4.58295e-12
6.93479e-12
2.73146e-12
1.54567e-12
1.20077e-12
1.12507e-12
1.1043e-12
1.1031e-12
1.09995e-12
1.09949e-12
1.09835e-12
1.0948e-12
1.10512e-12
1.09693e-12
1.11265e-12
1.10869e-12
1.14205e-12
1.2374e-12
1.48959e-12
2.52573e-12
4.34662e-12
5.56292e-12
2.32731e-12
1.3874e-12
1.10156e-12
1.03724e-12
1.01899e-12
1.01778e-12
1.01486e-12
1.01459e-12
1.01361e-12
1.01039e-12
1.01933e-12
1.01216e-12
1.02573e-12
1.02255e-12
1.05155e-12
1.13362e-12
1.35428e-12
2.27553e-12
4.06761e-12
4.50462e-12
1.99441e-12
1.24867e-12
1.01444e-12
9.60649e-13
9.44345e-13
9.43171e-13
9.40439e-13
9.40316e-13
9.39442e-13
9.36516e-13
9.44348e-13
9.37989e-13
9.49806e-13
9.4722e-13
9.72524e-13
1.04209e-12
1.23008e-12
2.04342e-12
3.74913e-12
3.57307e-12
1.70505e-12
1.12528e-12
9.34968e-13
8.88638e-13
8.75866e-13
8.74782e-13
8.72091e-13
8.7214e-13
8.71283e-13
8.68524e-13
8.75779e-13
8.69773e-13
8.80528e-13
8.78221e-13
8.98949e-13
9.59483e-13
1.11852e-12
1.82533e-12
3.3943e-12
2.82788e-12
1.43984e-12
1.00583e-12
8.57316e-13
8.19067e-13
8.07619e-13
8.06682e-13
8.03831e-13
8.04123e-13
8.03174e-13
8.00405e-13
8.07747e-13
8.01486e-13
8.1206e-13
8.09626e-13
8.28032e-13
8.79851e-13
1.00626e-12
1.61602e-12
3.00699e-12
2.21084e-12
1.21125e-12
8.9309e-13
7.75268e-13
7.43932e-13
7.33483e-13
7.32754e-13
7.29562e-13
7.30177e-13
7.29041e-13
7.26094e-13
7.34136e-13
7.27052e-13
7.38243e-13
7.35284e-13
7.52062e-13
7.96842e-13
8.9688e-13
1.41055e-12
2.59382e-12
1.7034e-12
1.00195e-12
7.77253e-13
6.84297e-13
6.5889e-13
6.49219e-13
6.48745e-13
6.45145e-13
6.4612e-13
6.44758e-13
6.41554e-13
6.50615e-13
6.4241e-13
6.54624e-13
6.50896e-13
6.66505e-13
7.05433e-13
7.80954e-13
1.20512e-12
2.16621e-12
1.28855e-12
8.08847e-13
6.56492e-13
5.83566e-13
5.63308e-13
5.54393e-13
5.54191e-13
5.50286e-13
5.51578e-13
5.50029e-13
5.46628e-13
5.56567e-13
5.47386e-13
5.60436e-13
5.55962e-13
5.70459e-13
6.04107e-13
6.57998e-13
9.99563e-13
1.7413e-12
4.4552e-13
4.55761e-13
4.46169e-13
4.59342e-13
4.54404e-13
4.67506e-13
4.9593e-13
5.3193e-13
7.98381e-13
1.34013e-12
)
;

boundaryField
{
    fuel
    {
        type            fixedValue;
        value           nonuniform 0();
    }
    wall
    {
        type            zeroGradient;
    }
    outlet
    {
        type            zeroGradient;
    }
    frontAndBack
    {
        type            empty;
    }
    procBoundary0to1
    {
        type            processor;
        value           nonuniform List<scalar> 
21
(
9.52399e-13
6.32315e-13
5.33275e-13
4.76773e-13
4.61003e-13
4.52988e-13
4.53034e-13
4.49075e-13
4.50561e-13
4.48938e-13
4.48938e-13
3.45414e-13
3.55156e-13
3.4594e-13
3.5829e-13
3.53321e-13
3.64614e-13
3.8768e-13
4.09955e-13
6.09808e-13
9.83071e-13
)
;
    }
    procBoundary0to2
    {
        type            processor;
        value           nonuniform List<scalar> 
12
(
1.75071e-12
1.41848e-11
5.04363e-12
2.41249e-12
1.75815e-12
1.62758e-12
1.59397e-12
1.59323e-12
1.59032e-12
1.58766e-12
1.58573e-12
1.58573e-12
)
;
    }
    procBoundary0to3
    {
        type            processor;
        value           nonuniform List<scalar> 10(1.93212e-12 1.94906e-12 1.93888e-12 1.9635e-12 1.95582e-12 2.01781e-12 2.21056e-12 2.70545e-12 4.86095e-12 4.98133e-12);
    }
}


// ************************************************************************* //
