/*--------------------------------*- C++ -*----------------------------------*\
| =========                 |                                                 |
| \\      /  F ield         | OpenFOAM: The Open Source CFD Toolbox           |
|  \\    /   O peration     | Version:  dev                                   |
|   \\  /    A nd           | Web:      www.OpenFOAM.org                      |
|    \\/     M anipulation  |                                                 |
\*---------------------------------------------------------------------------*/
FoamFile
{
    version     2.0;
    format      ascii;
    class       volScalarField;
    location    "0.185";
    object      C2O;
}
// * * * * * * * * * * * * * * * * * * * * * * * * * * * * * * * * * * * * * //

dimensions      [0 0 0 0 0 0 0];

internalField   nonuniform List<scalar> 
50
(
3.1181e-05
4.144e-05
4.097e-05
3.69497e-05
3.18116e-05
2.65905e-05
2.18085e-05
1.7668e-05
1.41728e-05
1.13088e-05
8.9916e-06
7.14544e-06
5.66763e-06
4.47936e-06
3.53295e-06
2.7796e-06
2.18046e-06
1.70906e-06
1.33557e-06
1.0406e-06
8.08539e-07
6.25399e-07
4.82212e-07
3.71787e-07
2.86123e-07
2.19284e-07
1.68284e-07
1.28715e-07
9.86455e-08
7.5511e-08
5.77192e-08
4.42546e-08
3.39371e-08
2.60021e-08
1.99417e-08
1.53104e-08
1.17684e-08
9.05676e-09
6.97868e-09
5.38427e-09
4.15951e-09
3.2176e-09
2.49239e-09
1.93342e-09
1.50216e-09
1.16913e-09
9.11747e-10
7.1267e-10
5.58538e-10
4.39015e-10
)
;

boundaryField
{
    wall
    {
        type            zeroGradient;
    }
    fuel
    {
        type            fixedValue;
        value           uniform 0;
    }
    outlet
    {
        type            inletOutlet;
        inletValue      nonuniform 0();
        value           nonuniform 0();
    }
    procBoundary0to1
    {
        type            processor;
        value           uniform 3.45591e-10;
    }
}


// ************************************************************************* //
