/*--------------------------------*- C++ -*----------------------------------*\
| =========                 |                                                 |
| \\      /  F ield         | OpenFOAM: The Open Source CFD Toolbox           |
|  \\    /   O peration     | Version:  dev                                   |
|   \\  /    A nd           | Web:      www.OpenFOAM.org                      |
|    \\/     M anipulation  |                                                 |
\*---------------------------------------------------------------------------*/
FoamFile
{
    version     2.0;
    format      ascii;
    class       volScalarField;
    location    "0.185";
    object      CH2(S);
}
// * * * * * * * * * * * * * * * * * * * * * * * * * * * * * * * * * * * * * //

dimensions      [0 0 0 0 0 0 0];

internalField   nonuniform List<scalar> 
50
(
5.33316e-06
7.1697e-06
7.17226e-06
6.52619e-06
5.64785e-06
4.72998e-06
3.88077e-06
3.14253e-06
2.51957e-06
2.0101e-06
1.59895e-06
1.27203e-06
1.01067e-06
8.00512e-07
6.32971e-07
4.99382e-07
3.9289e-07
3.08865e-07
2.42084e-07
1.89166e-07
1.47392e-07
1.14311e-07
8.83614e-08
6.8285e-08
5.26634e-08
4.04401e-08
3.1089e-08
2.38162e-08
1.82773e-08
1.40075e-08
1.07179e-08
8.2245e-09
6.31126e-09
4.83811e-09
3.71186e-09
2.85048e-09
2.19126e-09
1.68634e-09
1.29925e-09
1.00219e-09
7.73973e-10
5.98466e-10
4.63353e-10
3.59235e-10
2.7893e-10
2.1694e-10
1.69052e-10
1.32032e-10
1.03385e-10
8.11833e-11
)
;

boundaryField
{
    wall
    {
        type            zeroGradient;
    }
    fuel
    {
        type            fixedValue;
        value           uniform 0;
    }
    outlet
    {
        type            inletOutlet;
        inletValue      nonuniform 0();
        value           nonuniform 0();
    }
    procBoundary0to1
    {
        type            processor;
        value           uniform 6.38441e-11;
    }
}


// ************************************************************************* //
