/*--------------------------------*- C++ -*----------------------------------*\
| =========                 |                                                 |
| \\      /  F ield         | OpenFOAM: The Open Source CFD Toolbox           |
|  \\    /   O peration     | Version:  dev                                   |
|   \\  /    A nd           | Web:      www.OpenFOAM.org                      |
|    \\/     M anipulation  |                                                 |
\*---------------------------------------------------------------------------*/
FoamFile
{
    version     2.0;
    format      ascii;
    class       volScalarField;
    location    "0.185";
    object      O2;
}
// * * * * * * * * * * * * * * * * * * * * * * * * * * * * * * * * * * * * * //

dimensions      [0 0 0 0 0 0 0];

internalField   nonuniform List<scalar> 
250
(
3.12572e-08
3.13165e-08
3.13078e-08
3.14015e-08
3.14046e-08
3.13682e-08
3.18904e-08
1.12463e-07
5.3907e-06
0.000216115
2.82654e-08
2.83271e-08
2.83084e-08
2.84159e-08
2.84237e-08
2.84056e-08
2.87899e-08
8.82613e-08
3.81367e-06
0.000142779
8.427e-07
5.85549e-08
2.43218e-08
2.60134e-08
2.57917e-08
2.54697e-08
2.56362e-08
2.51841e-08
2.54673e-08
2.51208e-08
2.52197e-08
2.52817e-08
2.5257e-08
2.53731e-08
2.53845e-08
2.53856e-08
2.57036e-08
6.92004e-08
2.64378e-06
9.66532e-05
4.26882e-07
3.89869e-08
2.1399e-08
2.3039e-08
2.27352e-08
2.241e-08
2.25711e-08
2.21125e-08
2.24071e-08
2.20539e-08
2.21608e-08
2.22207e-08
2.21932e-08
2.23134e-08
2.23272e-08
2.23463e-08
2.26354e-08
5.42249e-08
1.81866e-06
6.449e-05
2.17936e-07
2.75212e-08
1.86002e-08
2.00689e-08
1.97073e-08
1.93879e-08
1.95421e-08
1.90901e-08
1.93866e-08
1.9035e-08
1.91466e-08
1.92018e-08
1.91745e-08
1.92947e-08
1.93095e-08
1.9344e-08
1.96233e-08
4.25893e-08
1.23822e-06
4.24317e-05
1.13872e-07
2.0499e-08
1.59237e-08
1.71681e-08
1.67755e-08
1.64723e-08
1.66176e-08
1.61858e-08
1.64736e-08
1.61337e-08
1.62456e-08
1.62929e-08
1.62693e-08
1.63853e-08
1.63998e-08
1.64461e-08
1.67211e-08
3.35577e-08
8.66973e-07
2.76391e-05
6.25433e-08
1.59385e-08
1.33999e-08
1.44086e-08
1.40122e-08
1.37356e-08
1.38697e-08
1.34709e-08
1.37396e-08
1.34233e-08
1.35292e-08
1.35646e-08
1.35488e-08
1.36568e-08
1.36698e-08
1.37242e-08
1.399e-08
2.64319e-08
5.95704e-07
1.7677e-05
3.78599e-08
1.28068e-08
1.10819e-08
1.1861e-08
1.14867e-08
1.12454e-08
1.13664e-08
1.10112e-08
1.12518e-08
1.09728e-08
1.10636e-08
1.10819e-08
1.10796e-08
1.1176e-08
1.11865e-08
1.12476e-08
1.14894e-08
2.08061e-08
4.15426e-07
1.13805e-05
2.70858e-08
1.06119e-08
9.0225e-09
9.58523e-09
9.20869e-09
8.97606e-09
9.08032e-09
8.77097e-09
8.99001e-09
8.74625e-09
8.82506e-09
8.89552e-09
8.836e-09
8.92422e-09
8.93591e-09
8.96844e-09
9.26993e-09
1.6354e-08
2.90187e-07
7.17975e-06
2.42361e-08
9.15949e-09
7.20139e-09
7.62435e-09
7.29639e-09
7.10257e-09
7.19121e-09
6.9342e-09
7.11745e-09
6.91992e-09
6.9791e-09
7.03662e-09
6.98726e-09
7.06108e-09
7.07028e-09
7.10064e-09
7.36824e-09
1.27098e-08
2.03753e-07
4.60961e-06
2.66886e-08
8.41399e-09
5.80412e-09
5.99595e-09
5.71914e-09
5.56259e-09
5.63622e-09
5.42908e-09
5.57729e-09
5.41989e-09
5.46475e-09
5.51028e-09
5.47064e-09
5.53058e-09
5.53748e-09
5.56417e-09
5.79417e-09
9.92375e-09
1.43787e-07
2.9277e-06
3.3417e-08
8.39982e-09
4.73862e-09
4.69105e-09
4.46147e-09
4.3376e-09
4.39778e-09
4.23462e-09
4.35144e-09
4.22748e-09
4.26223e-09
4.29744e-09
4.2664e-09
4.31385e-09
4.31889e-09
4.3415e-09
4.53336e-09
7.73664e-09
1.01998e-07
1.88944e-06
4.39996e-08
9.14101e-09
3.98006e-09
3.67817e-09
3.48752e-09
3.38986e-09
3.439e-09
3.31194e-09
3.40272e-09
3.30583e-09
3.33323e-09
3.36003e-09
3.33618e-09
3.37307e-09
3.37676e-09
3.39478e-09
3.55248e-09
6.02866e-09
7.24627e-08
1.22236e-06
2.62879e-09
2.64906e-09
2.63096e-09
2.65941e-09
2.66224e-09
2.67624e-09
2.80425e-09
4.69387e-09
5.11682e-08
7.86908e-07
)
;

boundaryField
{
    fuel
    {
        type            fixedValue;
        value           nonuniform 0();
    }
    wall
    {
        type            zeroGradient;
    }
    outlet
    {
        type            inletOutlet;
        inletValue      uniform 0;
        value           nonuniform List<scalar> 
25
(
8.427e-07
4.26882e-07
2.17936e-07
1.13872e-07
6.25433e-08
3.78599e-08
2.70858e-08
2.42361e-08
2.66886e-08
3.3417e-08
4.39996e-08
0.000216115
0.000142779
9.66532e-05
6.449e-05
4.24317e-05
2.76391e-05
1.7677e-05
1.13805e-05
7.17975e-06
4.60961e-06
2.9277e-06
1.88944e-06
1.22236e-06
7.86908e-07
)
;
    }
    frontAndBack
    {
        type            empty;
    }
    procBoundary0to1
    {
        type            processor;
        value           nonuniform List<scalar> 
21
(
5.5482e-08
1.03091e-08
3.45993e-09
2.91062e-09
2.74807e-09
2.67098e-09
2.71079e-09
2.6123e-09
2.68247e-09
2.60702e-09
2.60702e-09
2.09792e-09
2.11336e-09
2.09963e-09
2.12163e-09
2.12391e-09
2.13487e-09
2.23819e-09
3.66724e-09
3.59798e-08
5.03971e-07
)
;
    }
    procBoundary0to2
    {
        type            processor;
        value           nonuniform List<scalar> 
12
(
3.11825e-08
1.76426e-06
1.00042e-07
2.74913e-08
2.89473e-08
2.88153e-08
2.85111e-08
2.8677e-08
2.82479e-08
2.85087e-08
2.81772e-08
2.81772e-08
)
;
    }
    procBoundary0to3
    {
        type            processor;
        value           nonuniform List<scalar> 10(3.41795e-08 3.42344e-08 3.4241e-08 3.43142e-08 3.43109e-08 3.42607e-08 3.50069e-08 1.46823e-07 7.51449e-06 0.0003106);
    }
}


// ************************************************************************* //
