/*--------------------------------*- C++ -*----------------------------------*\
| =========                 |                                                 |
| \\      /  F ield         | OpenFOAM: The Open Source CFD Toolbox           |
|  \\    /   O peration     | Version:  dev                                   |
|   \\  /    A nd           | Web:      www.OpenFOAM.org                      |
|    \\/     M anipulation  |                                                 |
\*---------------------------------------------------------------------------*/
FoamFile
{
    version     2.0;
    format      ascii;
    class       surfaceScalarField;
    location    "0.185";
    object      phi;
}
// * * * * * * * * * * * * * * * * * * * * * * * * * * * * * * * * * * * * * //

dimensions      [1 0 -1 0 0 0 0];

internalField   nonuniform List<scalar> 
49
(
4.49886e-05
4.5578e-05
4.62143e-05
4.68548e-05
4.74386e-05
4.79482e-05
4.83776e-05
4.87262e-05
4.89978e-05
4.92034e-05
4.93572e-05
4.94682e-05
4.95571e-05
4.96363e-05
4.97166e-05
4.98063e-05
4.99111e-05
5.00353e-05
5.01806e-05
5.03475e-05
5.05348e-05
5.07414e-05
5.09578e-05
5.11879e-05
5.14307e-05
5.16812e-05
5.19377e-05
5.21979e-05
5.24609e-05
5.27254e-05
5.29898e-05
5.32543e-05
5.35185e-05
5.37811e-05
5.40418e-05
5.43005e-05
5.45571e-05
5.48118e-05
5.50647e-05
5.53157e-05
5.55651e-05
5.58128e-05
5.6059e-05
5.63037e-05
5.65471e-05
5.67892e-05
5.70304e-05
5.72709e-05
5.75114e-05
)
;

boundaryField
{
    wall
    {
        type            calculated;
        value           nonuniform List<scalar> 
200
(
2.95807e-21
6.08563e-21
8.5355e-21
1.0421e-20
1.17875e-20
1.27387e-20
1.36217e-20
1.46612e-20
1.57097e-20
1.6828e-20
1.7949e-20
1.88879e-20
1.96879e-20
1.96907e-20
1.95335e-20
1.91611e-20
1.87445e-20
1.83745e-20
1.79784e-20
1.75849e-20
1.71841e-20
1.67789e-20
1.63678e-20
1.59476e-20
1.55172e-20
1.5075e-20
1.46196e-20
1.41506e-20
1.36667e-20
1.31676e-20
1.26529e-20
1.21215e-20
1.15735e-20
1.10085e-20
1.0426e-20
9.8256e-21
9.20693e-21
8.56953e-21
7.91297e-21
7.23678e-21
6.54048e-21
5.82328e-21
5.08469e-21
4.32421e-21
3.54137e-21
2.73705e-21
1.90911e-21
1.05717e-21
1.78746e-22
-7.22629e-22
-2.95807e-21
-6.08563e-21
-8.5355e-21
-1.0421e-20
-1.17875e-20
-1.27387e-20
-1.36217e-20
-1.46612e-20
-1.57097e-20
-1.6828e-20
-1.7949e-20
-1.88879e-20
-1.96879e-20
-1.96907e-20
-1.95335e-20
-1.91611e-20
-1.87445e-20
-1.83745e-20
-1.79784e-20
-1.75849e-20
-1.71841e-20
-1.67789e-20
-1.63678e-20
-1.59476e-20
-1.55172e-20
-1.5075e-20
-1.46196e-20
-1.41506e-20
-1.36667e-20
-1.31676e-20
-1.26529e-20
-1.21215e-20
-1.15735e-20
-1.10085e-20
-1.0426e-20
-9.8256e-21
-9.20693e-21
-8.56953e-21
-7.91297e-21
-7.23678e-21
-6.54048e-21
-5.82328e-21
-5.08469e-21
-4.32421e-21
-3.54137e-21
-2.73705e-21
-1.90911e-21
-1.05717e-21
-1.78746e-22
7.22629e-22
2.95807e-21
6.08563e-21
8.5355e-21
1.0421e-20
1.17875e-20
1.27387e-20
1.36217e-20
1.46612e-20
1.57097e-20
1.6828e-20
1.7949e-20
1.88879e-20
1.96879e-20
1.96907e-20
1.95335e-20
1.91611e-20
1.87445e-20
1.83745e-20
1.79784e-20
1.75849e-20
1.71841e-20
1.67789e-20
1.63678e-20
1.59476e-20
1.55172e-20
1.5075e-20
1.46196e-20
1.41506e-20
1.36667e-20
1.31676e-20
1.26529e-20
1.21215e-20
1.15735e-20
1.10085e-20
1.0426e-20
9.8256e-21
9.20693e-21
8.56953e-21
7.91297e-21
7.23678e-21
6.54048e-21
5.82328e-21
5.08469e-21
4.32421e-21
3.54137e-21
2.73705e-21
1.90911e-21
1.05717e-21
1.78746e-22
-7.22629e-22
-2.95807e-21
-6.08563e-21
-8.5355e-21
-1.0421e-20
-1.17875e-20
-1.27387e-20
-1.36217e-20
-1.46612e-20
-1.57097e-20
-1.6828e-20
-1.7949e-20
-1.88879e-20
-1.96879e-20
-1.96907e-20
-1.95335e-20
-1.91611e-20
-1.87445e-20
-1.83745e-20
-1.79784e-20
-1.75849e-20
-1.71841e-20
-1.67789e-20
-1.63678e-20
-1.59476e-20
-1.55172e-20
-1.5075e-20
-1.46196e-20
-1.41506e-20
-1.36667e-20
-1.31676e-20
-1.26529e-20
-1.21215e-20
-1.15735e-20
-1.10085e-20
-1.0426e-20
-9.8256e-21
-9.20693e-21
-8.56953e-21
-7.91297e-21
-7.23678e-21
-6.54048e-21
-5.82328e-21
-5.08469e-21
-4.32421e-21
-3.54137e-21
-2.73705e-21
-1.90911e-21
-1.05717e-21
-1.78746e-22
7.22629e-22
)
;
    }
    fuel
    {
        type            calculated;
        value           uniform -4.44476e-05;
    }
    outlet
    {
        type            calculated;
        value           nonuniform 0();
    }
    procBoundary0to1
    {
        type            processor;
        value           uniform 5.7753e-05;
    }
}


// ************************************************************************* //
