/*--------------------------------*- C++ -*----------------------------------*\
| =========                 |                                                 |
| \\      /  F ield         | OpenFOAM: The Open Source CFD Toolbox           |
|  \\    /   O peration     | Version:  dev                                   |
|   \\  /    A nd           | Web:      www.OpenFOAM.org                      |
|    \\/     M anipulation  |                                                 |
\*---------------------------------------------------------------------------*/
FoamFile
{
    version     2.0;
    format      ascii;
    class       volScalarField;
    location    "0.075";
    object      A2-1;
}
// * * * * * * * * * * * * * * * * * * * * * * * * * * * * * * * * * * * * * //

dimensions      [0 0 0 0 0 0 0];

internalField   nonuniform List<scalar> 
250
(
5.45666e-08
5.4571e-08
5.45557e-08
5.4575e-08
5.45654e-08
5.45599e-08
5.46012e-08
5.48703e-08
5.71431e-08
7.43608e-08
6.20207e-10
3.03428e-08
3.03451e-08
3.03392e-08
3.03479e-08
3.03437e-08
3.03452e-08
3.0376e-08
3.06224e-08
3.27173e-08
5.1323e-08
4.8899e-10
1.41416e-08
1.41411e-08
1.41413e-08
1.41422e-08
1.41426e-08
1.41437e-08
1.41628e-08
1.43329e-08
1.57659e-08
3.03176e-08
2.6054e-10
6.71351e-09
6.71226e-09
6.71407e-09
6.71264e-09
6.71428e-09
6.71453e-09
6.72625e-09
6.83889e-09
7.79679e-09
1.89935e-08
1.4717e-10
3.48038e-09
3.47903e-09
3.48068e-09
3.47902e-09
3.48042e-09
3.48039e-09
3.48753e-09
3.5594e-09
4.23416e-09
1.3267e-08
9.38459e-11
1.95462e-09
1.95375e-09
1.95587e-09
1.95363e-09
1.95573e-09
1.95574e-09
1.9653e-09
2.04356e-09
2.56954e-09
1.02313e-08
6.85912e-11
1.23298e-09
1.23224e-09
1.23387e-09
1.23205e-09
1.23363e-09
1.23372e-09
1.24231e-09
1.30426e-09
1.72905e-09
8.2979e-09
6.07237e-11
8.43462e-10
8.42826e-10
8.44067e-10
8.42586e-10
8.43781e-10
8.43984e-10
8.53119e-10
9.07493e-10
1.24531e-09
7.11176e-09
7.98341e-11
6.11115e-10
6.10902e-10
6.11875e-10
6.1071e-10
6.11747e-10
6.1187e-10
6.22079e-10
6.59508e-10
9.66383e-10
6.17351e-09
1.51176e-10
4.68476e-10
4.68372e-10
4.69101e-10
4.68187e-10
4.68966e-10
4.69124e-10
4.67648e-10
4.97027e-10
7.77494e-10
5.43667e-09
2.3684e-10
3.74502e-10
3.75182e-10
3.74214e-10
3.75115e-10
3.75297e-10
3.75797e-10
4.02139e-10
6.3558e-10
4.79192e-09
3.09393e-10
3.0258e-10
3.03068e-10
3.02298e-10
3.03025e-10
3.03262e-10
3.04378e-10
3.29621e-10
5.4353e-10
4.21371e-09
4.58931e-10
2.5117e-10
2.51509e-10
2.50887e-10
2.51485e-10
2.51772e-10
2.53307e-10
2.7632e-10
4.69943e-10
3.6903e-09
6.72872e-10
2.13059e-10
2.13283e-10
2.12773e-10
2.13275e-10
2.13603e-10
2.15411e-10
2.3642e-10
4.06098e-10
3.21579e-09
8.99045e-10
1.83889e-10
1.84022e-10
1.83599e-10
1.84028e-10
1.84388e-10
1.86333e-10
2.05569e-10
3.59694e-10
2.78079e-09
1.11093e-09
1.60948e-10
1.61011e-10
1.60656e-10
1.61029e-10
1.61408e-10
1.63386e-10
1.81011e-10
3.1625e-10
2.3358e-09
1.29295e-09
1.42505e-10
1.42514e-10
1.42214e-10
1.42543e-10
1.42932e-10
1.44876e-10
1.61015e-10
2.78251e-10
1.9455e-09
1.42687e-09
1.27433e-10
1.27402e-10
1.27147e-10
1.27438e-10
1.27829e-10
1.29701e-10
1.44463e-10
2.45646e-10
1.64538e-09
1.49681e-09
1.1498e-10
1.14918e-10
1.14702e-10
1.14959e-10
1.15345e-10
1.17126e-10
1.30611e-10
2.1753e-10
1.36562e-09
1.4985e-09
1.04631e-10
1.04546e-10
1.04364e-10
1.04588e-10
1.04964e-10
1.06647e-10
1.18956e-10
1.93382e-10
1.13365e-09
1.44229e-09
9.60286e-11
9.59255e-11
9.57758e-11
9.59663e-11
9.63244e-11
9.79106e-11
1.09148e-10
1.72734e-10
9.328e-10
1.34576e-09
8.89242e-11
8.88048e-11
8.86869e-11
8.88401e-11
8.91759e-11
9.06689e-11
1.00946e-10
1.55239e-10
7.61839e-10
1.22651e-09
8.38602e-11
8.37271e-11
8.36346e-11
8.37534e-11
8.40675e-11
8.54705e-11
9.41868e-11
1.40656e-10
6.21056e-10
1.09782e-09
7.97986e-11
7.96611e-11
7.95868e-11
7.96834e-11
7.99777e-11
8.13094e-11
8.94568e-11
1.28777e-10
5.07637e-10
9.68091e-10
)
;

boundaryField
{
    fuel
    {
        type            fixedValue;
        value           uniform 0;
    }
    wall
    {
        type            zeroGradient;
    }
    outlet
    {
        type            zeroGradient;
    }
    frontAndBack
    {
        type            empty;
    }
    procBoundary3to0
    {
        type            processor;
        value           nonuniform List<scalar> 10(7.71747e-11 7.70199e-11 7.69743e-11 7.70257e-11 7.72925e-11 7.85503e-11 8.5649e-11 1.19385e-10 4.18476e-10 8.43585e-10);
    }
    procBoundary3to2
    {
        type            processor;
        value           nonuniform List<scalar> 
25
(
5.45647e-08
3.03374e-08
1.41392e-08
6.7124e-09
3.47954e-09
1.95451e-09
1.23284e-09
8.43249e-10
6.11513e-10
4.68862e-10
3.74612e-10
3.74612e-10
3.02588e-10
2.5111e-10
2.12957e-10
1.83764e-10
1.60812e-10
1.42366e-10
1.27296e-10
1.14847e-10
1.04505e-10
9.5914e-11
8.88249e-11
8.37771e-11
7.97283e-11
)
;
    }
}


// ************************************************************************* //
