/*--------------------------------*- C++ -*----------------------------------*\
| =========                 |                                                 |
| \\      /  F ield         | OpenFOAM: The Open Source CFD Toolbox           |
|  \\    /   O peration     | Version:  dev                                   |
|   \\  /    A nd           | Web:      www.OpenFOAM.org                      |
|    \\/     M anipulation  |                                                 |
\*---------------------------------------------------------------------------*/
FoamFile
{
    version     2.0;
    format      ascii;
    class       volScalarField;
    location    "0.075";
    object      C;
}
// * * * * * * * * * * * * * * * * * * * * * * * * * * * * * * * * * * * * * //

dimensions      [0 0 0 0 0 0 0];

internalField   nonuniform List<scalar> 
25
(
1.23488e-10
1.12678e-10
1.02073e-10
9.16423e-11
8.15338e-11
7.22046e-11
6.34499e-11
5.5386e-11
4.80953e-11
4.16937e-11
3.62058e-11
3.1617e-11
2.78585e-11
2.48076e-11
2.23034e-11
2.01733e-11
1.82604e-11
1.64415e-11
1.4633e-11
1.27847e-11
1.08682e-11
8.86538e-12
6.76368e-12
4.59254e-12
2.68227e-12
)
;

boundaryField
{
    wall
    {
        type            zeroGradient;
    }
    fuel
    {
        type            fixedValue;
        value           nonuniform 0();
    }
    outlet
    {
        type            inletOutlet;
        inletValue      uniform 0;
        value           uniform 2.68227e-12;
    }
    procBoundary3to2
    {
        type            processor;
        value           uniform 1.34592e-10;
    }
}


// ************************************************************************* //
