/*--------------------------------*- C++ -*----------------------------------*\
| =========                 |                                                 |
| \\      /  F ield         | OpenFOAM: The Open Source CFD Toolbox           |
|  \\    /   O peration     | Version:  dev                                   |
|   \\  /    A nd           | Web:      www.OpenFOAM.org                      |
|    \\/     M anipulation  |                                                 |
\*---------------------------------------------------------------------------*/
FoamFile
{
    version     2.0;
    format      ascii;
    class       volScalarField;
    location    "0.075";
    object      C6H5OH;
}
// * * * * * * * * * * * * * * * * * * * * * * * * * * * * * * * * * * * * * //

dimensions      [0 0 0 0 0 0 0];

internalField   nonuniform List<scalar> 
25
(
3.88772e-11
3.71343e-11
3.5145e-11
3.29717e-11
3.07052e-11
2.85131e-11
2.63988e-11
2.44232e-11
2.26236e-11
2.10305e-11
1.96436e-11
1.84481e-11
1.74159e-11
1.65079e-11
1.56775e-11
1.48739e-11
1.40465e-11
1.31472e-11
1.21337e-11
1.09697e-11
9.62594e-12
8.07971e-12
6.3177e-12
4.37503e-12
2.58931e-12
)
;

boundaryField
{
    wall
    {
        type            zeroGradient;
    }
    fuel
    {
        type            fixedValue;
        value           nonuniform 0();
    }
    outlet
    {
        type            inletOutlet;
        inletValue      uniform 0;
        value           uniform 2.58931e-12;
    }
    procBoundary3to2
    {
        type            processor;
        value           uniform 4.02804e-11;
    }
}


// ************************************************************************* //
