/*--------------------------------*- C++ -*----------------------------------*\
| =========                 |                                                 |
| \\      /  F ield         | OpenFOAM: The Open Source CFD Toolbox           |
|  \\    /   O peration     | Version:  dev                                   |
|   \\  /    A nd           | Web:      www.OpenFOAM.org                      |
|    \\/     M anipulation  |                                                 |
\*---------------------------------------------------------------------------*/
FoamFile
{
    version     2.0;
    format      ascii;
    class       volScalarField;
    location    "0.075";
    object      CH2CO;
}
// * * * * * * * * * * * * * * * * * * * * * * * * * * * * * * * * * * * * * //

dimensions      [0 0 0 0 0 0 0];

internalField   nonuniform List<scalar> 
250
(
0.00107057
0.00107055
0.00107047
0.00107058
0.00107018
0.00107066
0.00106985
0.0010731
0.0010793
0.00105279
0.000579681
0.000281493
0.000281472
0.000281474
0.000281487
0.000281455
0.000281506
0.00028149
0.000282208
0.000284189
0.000280741
0.000146509
0.000133377
0.000133342
0.000133381
0.000133347
0.000133425
0.000133344
0.000133553
0.000133734
0.000135582
0.000134981
7.44996e-05
8.77191e-05
8.76639e-05
8.77379e-05
8.76754e-05
8.78112e-05
8.76615e-05
8.7999e-05
8.79841e-05
9.02507e-05
8.99033e-05
5.7382e-05
6.61784e-05
6.60799e-05
6.62131e-05
6.61276e-05
6.6308e-05
6.60995e-05
6.65496e-05
6.63954e-05
6.91203e-05
6.87454e-05
5.12784e-05
5.4056e-05
5.38464e-05
5.41077e-05
5.40079e-05
5.4215e-05
5.39643e-05
5.44935e-05
5.42161e-05
5.65839e-05
5.69373e-05
4.81225e-05
4.6217e-05
4.64287e-05
4.63047e-05
4.61963e-05
4.64229e-05
4.6138e-05
4.67882e-05
4.64302e-05
4.93492e-05
4.89362e-05
4.62953e-05
4.15879e-05
4.1756e-05
4.17105e-05
4.1601e-05
4.18274e-05
4.15333e-05
4.22152e-05
4.18048e-05
4.42491e-05
4.37047e-05
4.51649e-05
3.82262e-05
3.8437e-05
3.84336e-05
3.83236e-05
3.85471e-05
3.82446e-05
3.89344e-05
3.83807e-05
4.11201e-05
4.0043e-05
4.44829e-05
3.56231e-05
3.59308e-05
3.59566e-05
3.58546e-05
3.60632e-05
3.57753e-05
3.64541e-05
3.59058e-05
3.8796e-05
3.75702e-05
4.41978e-05
3.39824e-05
3.40248e-05
3.39281e-05
3.41276e-05
3.38509e-05
3.45227e-05
3.39799e-05
3.67951e-05
3.56853e-05
4.42541e-05
3.23622e-05
3.24131e-05
3.23196e-05
3.25144e-05
3.22465e-05
3.2914e-05
3.23767e-05
3.5132e-05
3.38895e-05
4.44138e-05
3.09471e-05
3.10023e-05
3.09109e-05
3.11036e-05
3.08433e-05
3.15071e-05
3.09766e-05
3.36847e-05
3.23367e-05
4.44119e-05
2.96713e-05
2.97287e-05
2.96385e-05
2.98302e-05
2.95771e-05
3.02365e-05
2.97152e-05
3.2383e-05
3.09599e-05
4.40828e-05
2.84977e-05
2.8556e-05
2.84668e-05
2.86578e-05
2.84116e-05
2.90652e-05
2.8556e-05
3.11844e-05
2.97555e-05
4.33711e-05
2.74034e-05
2.74621e-05
2.73738e-05
2.75644e-05
2.73245e-05
2.79707e-05
2.74765e-05
3.00598e-05
2.87219e-05
4.22582e-05
2.63733e-05
2.64319e-05
2.63448e-05
2.65353e-05
2.63011e-05
2.69382e-05
2.64616e-05
2.89872e-05
2.76792e-05
4.09738e-05
2.5396e-05
2.54541e-05
2.53685e-05
2.55599e-05
2.53302e-05
2.5957e-05
2.54995e-05
2.79527e-05
2.67461e-05
3.96664e-05
2.44622e-05
2.45189e-05
2.44358e-05
2.46295e-05
2.44028e-05
2.5018e-05
2.45809e-05
2.69559e-05
2.58174e-05
3.84937e-05
2.35632e-05
2.36172e-05
2.35383e-05
2.37363e-05
2.35109e-05
2.41127e-05
2.36975e-05
2.60042e-05
2.49141e-05
3.75045e-05
2.26903e-05
2.27392e-05
2.26677e-05
2.28723e-05
2.26466e-05
2.32319e-05
2.28414e-05
2.52444e-05
2.40659e-05
3.66376e-05
2.19381e-05
2.19857e-05
2.19146e-05
2.20292e-05
2.18931e-05
2.23654e-05
2.20849e-05
2.43774e-05
2.32622e-05
3.57851e-05
2.12013e-05
2.12559e-05
2.11765e-05
2.13075e-05
2.11529e-05
2.16336e-05
2.13387e-05
2.34808e-05
2.24762e-05
3.4855e-05
2.04198e-05
2.04718e-05
2.03973e-05
2.05263e-05
2.03787e-05
2.08461e-05
2.05646e-05
2.2576e-05
2.16964e-05
3.38113e-05
)
;

boundaryField
{
    fuel
    {
        type            fixedValue;
        value           uniform 0;
    }
    wall
    {
        type            zeroGradient;
    }
    outlet
    {
        type            zeroGradient;
    }
    frontAndBack
    {
        type            empty;
    }
    procBoundary3to0
    {
        type            processor;
        value           nonuniform List<scalar> 10(1.97235e-05 1.97743e-05 1.97013e-05 1.98311e-05 1.96843e-05 2.01397e-05 1.98626e-05 2.16532e-05 2.0921e-05 3.25718e-05);
    }
    procBoundary3to2
    {
        type            processor;
        value           nonuniform List<scalar> 
25
(
0.00107051
0.000281476
0.000133365
8.77078e-05
6.61644e-05
5.40369e-05
4.6184e-05
4.15386e-05
3.81473e-05
3.58642e-05
3.37575e-05
3.37575e-05
3.23693e-05
3.09875e-05
2.97249e-05
2.85522e-05
2.74533e-05
2.64173e-05
2.54345e-05
2.44961e-05
2.35932e-05
2.27164e-05
2.19626e-05
2.12268e-05
2.04429e-05
)
;
    }
}


// ************************************************************************* //
