/*--------------------------------*- C++ -*----------------------------------*\
| =========                 |                                                 |
| \\      /  F ield         | OpenFOAM: The Open Source CFD Toolbox           |
|  \\    /   O peration     | Version:  dev                                   |
|   \\  /    A nd           | Web:      www.OpenFOAM.org                      |
|    \\/     M anipulation  |                                                 |
\*---------------------------------------------------------------------------*/
FoamFile
{
    version     2.0;
    format      ascii;
    class       volScalarField;
    location    "0.075";
    object      CH2OH;
}
// * * * * * * * * * * * * * * * * * * * * * * * * * * * * * * * * * * * * * //

dimensions      [0 0 0 0 0 0 0];

internalField   nonuniform List<scalar> 
25
(
8.76283e-11
8.44954e-11
8.10722e-11
7.73e-11
7.31996e-11
6.89506e-11
6.44832e-11
5.98852e-11
5.52708e-11
5.08563e-11
4.69015e-11
4.38053e-11
4.21575e-11
4.27729e-11
4.66218e-11
5.45403e-11
6.66681e-11
8.18005e-11
9.69985e-11
1.07823e-10
1.09492e-10
9.90082e-11
7.73867e-11
5.03222e-11
2.7669e-11
)
;

boundaryField
{
    wall
    {
        type            zeroGradient;
    }
    fuel
    {
        type            fixedValue;
        value           nonuniform 0();
    }
    outlet
    {
        type            inletOutlet;
        inletValue      uniform 0;
        value           uniform 2.7669e-11;
    }
    procBoundary3to2
    {
        type            processor;
        value           uniform 9.04381e-11;
    }
}


// ************************************************************************* //
