/*--------------------------------*- C++ -*----------------------------------*\
| =========                 |                                                 |
| \\      /  F ield         | OpenFOAM: The Open Source CFD Toolbox           |
|  \\    /   O peration     | Version:  dev                                   |
|   \\  /    A nd           | Web:      www.OpenFOAM.org                      |
|    \\/     M anipulation  |                                                 |
\*---------------------------------------------------------------------------*/
FoamFile
{
    version     2.0;
    format      ascii;
    class       volScalarField;
    location    "0.075";
    object      H;
}
// * * * * * * * * * * * * * * * * * * * * * * * * * * * * * * * * * * * * * //

dimensions      [0 0 0 0 0 0 0];

internalField   nonuniform List<scalar> 
250
(
0.000114595
0.000114597
0.000114601
0.000114595
0.00011462
0.000114589
0.000114637
0.000114423
0.000113973
0.000115784
0.000138616
0.000123389
0.000123401
0.000123397
0.000123394
0.000123402
0.000123387
0.000123384
0.000123223
0.000122525
0.000123645
0.000154912
8.56454e-05
8.56549e-05
8.56554e-05
8.56401e-05
8.56658e-05
8.56311e-05
8.56506e-05
8.55089e-05
8.49009e-05
8.55393e-05
0.000127377
5.90469e-05
5.90446e-05
5.90615e-05
5.90277e-05
5.90859e-05
5.90128e-05
5.90956e-05
5.89142e-05
5.85403e-05
5.87473e-05
0.00011077
4.43719e-05
4.4341e-05
4.43893e-05
4.43444e-05
4.44239e-05
4.43228e-05
4.44549e-05
4.42138e-05
4.40419e-05
4.37354e-05
0.000102135
3.65545e-05
3.64479e-05
3.65714e-05
3.65245e-05
3.66091e-05
3.64985e-05
3.6645e-05
3.63453e-05
3.58083e-05
3.53643e-05
9.64092e-05
3.20625e-05
3.21678e-05
3.20839e-05
3.20399e-05
3.2123e-05
3.20123e-05
3.21847e-05
3.18494e-05
3.1488e-05
2.97999e-05
9.17911e-05
2.97743e-05
2.98326e-05
2.97953e-05
2.97578e-05
2.98293e-05
2.97313e-05
2.98804e-05
2.95221e-05
2.87796e-05
2.61808e-05
8.70704e-05
2.84164e-05
2.84657e-05
2.84503e-05
2.84194e-05
2.84783e-05
2.83935e-05
2.85083e-05
2.80919e-05
2.73138e-05
2.36465e-05
8.14919e-05
2.7597e-05
2.76564e-05
2.76535e-05
2.76304e-05
2.76753e-05
2.76076e-05
2.76881e-05
2.72637e-05
2.63769e-05
2.19641e-05
7.44979e-05
2.71684e-05
2.7172e-05
2.71536e-05
2.71902e-05
2.71325e-05
2.71901e-05
2.67486e-05
2.56935e-05
2.07507e-05
6.63567e-05
2.68386e-05
2.68461e-05
2.68297e-05
2.6863e-05
2.68095e-05
2.68543e-05
2.63884e-05
2.51995e-05
1.96685e-05
5.79192e-05
2.65802e-05
2.65905e-05
2.65742e-05
2.66079e-05
2.65541e-05
2.65952e-05
2.60992e-05
2.48082e-05
1.88019e-05
4.95682e-05
2.63461e-05
2.63589e-05
2.63413e-05
2.63785e-05
2.63209e-05
2.63656e-05
2.5836e-05
2.44711e-05
1.81006e-05
4.19226e-05
2.61095e-05
2.6125e-05
2.6105e-05
2.6148e-05
2.60839e-05
2.61388e-05
2.55735e-05
2.41611e-05
1.75455e-05
3.50925e-05
2.58539e-05
2.58723e-05
2.58491e-05
2.59002e-05
2.58271e-05
2.5898e-05
2.52962e-05
2.38619e-05
1.71228e-05
2.8913e-05
2.55672e-05
2.5589e-05
2.55619e-05
2.56232e-05
2.55389e-05
2.56315e-05
2.49932e-05
2.35622e-05
1.67517e-05
2.39082e-05
2.52395e-05
2.5265e-05
2.52335e-05
2.53074e-05
2.52096e-05
2.53291e-05
2.46552e-05
2.32543e-05
1.64621e-05
1.98405e-05
2.48611e-05
2.48905e-05
2.48543e-05
2.49431e-05
2.48297e-05
2.49812e-05
2.42732e-05
2.29328e-05
1.62123e-05
1.66428e-05
2.44214e-05
2.44546e-05
2.44138e-05
2.45206e-05
2.43891e-05
2.45772e-05
2.38375e-05
2.25917e-05
1.59959e-05
1.42e-05
2.39079e-05
2.3944e-05
2.39001e-05
2.40285e-05
2.3876e-05
2.41046e-05
2.3337e-05
2.22843e-05
1.58038e-05
1.2375e-05
2.33771e-05
2.34183e-05
2.33671e-05
2.3453e-05
2.33403e-05
2.35479e-05
2.28132e-05
2.1889e-05
1.5617e-05
1.10365e-05
2.27612e-05
2.28149e-05
2.27484e-05
2.28656e-05
2.27174e-05
2.29868e-05
2.22068e-05
2.14216e-05
1.54137e-05
1.00714e-05
2.19969e-05
2.20565e-05
2.19842e-05
2.21197e-05
2.19552e-05
2.22773e-05
2.1475e-05
2.08757e-05
1.51754e-05
9.3856e-06
)
;

boundaryField
{
    fuel
    {
        type            fixedValue;
        value           uniform 0;
    }
    wall
    {
        type            zeroGradient;
    }
    outlet
    {
        type            zeroGradient;
    }
    frontAndBack
    {
        type            empty;
    }
    procBoundary3to0
    {
        type            processor;
        value           nonuniform List<scalar> 10(2.12046e-05 2.12715e-05 2.119e-05 2.13461e-05 2.11599e-05 2.15345e-05 2.07056e-05 2.023e-05 1.489e-05 8.9181e-06);
    }
    procBoundary3to2
    {
        type            processor;
        value           nonuniform List<scalar> 
25
(
0.000114598
0.000123393
8.56459e-05
5.90461e-05
4.43707e-05
3.65536e-05
3.20585e-05
2.97652e-05
2.83909e-05
2.765e-05
2.71288e-05
2.71288e-05
2.68395e-05
2.65841e-05
2.63518e-05
2.61162e-05
2.58611e-05
2.55751e-05
2.52481e-05
2.48705e-05
2.44317e-05
2.39187e-05
2.33894e-05
2.2777e-05
2.20136e-05
)
;
    }
}


// ************************************************************************* //
