/*--------------------------------*- C++ -*----------------------------------*\
| =========                 |                                                 |
| \\      /  F ield         | OpenFOAM: The Open Source CFD Toolbox           |
|  \\    /   O peration     | Version:  dev                                   |
|   \\  /    A nd           | Web:      www.OpenFOAM.org                      |
|    \\/     M anipulation  |                                                 |
\*---------------------------------------------------------------------------*/
FoamFile
{
    version     2.0;
    format      ascii;
    class       volScalarField;
    location    "0.075";
    object      H2O;
}
// * * * * * * * * * * * * * * * * * * * * * * * * * * * * * * * * * * * * * //

dimensions      [0 0 0 0 0 0 0];

internalField   nonuniform List<scalar> 
250
(
0.0615191
0.0615187
0.0615196
0.0615185
0.061522
0.061518
0.0615264
0.0615107
0.0615153
0.0615845
0.0615117
0.0682852
0.0682836
0.0682855
0.0682837
0.0682884
0.0682836
0.0682958
0.0682916
0.0683775
0.0682959
0.0655513
0.0680952
0.0680913
0.0680959
0.0680924
0.0681014
0.0680918
0.0681164
0.0681116
0.0682864
0.0681576
0.0647209
0.0672124
0.0672048
0.0672144
0.0672083
0.0672234
0.0672066
0.0672486
0.067235
0.0675057
0.0673469
0.0637966
0.0663966
0.0663834
0.0664009
0.0663919
0.0664135
0.0663884
0.0664497
0.0664231
0.0667902
0.0666097
0.0630378
0.0657072
0.0656858
0.0657154
0.0657035
0.0657311
0.0656976
0.0657784
0.0657368
0.066151
0.0660106
0.0624635
0.0650676
0.0650905
0.0650837
0.0650684
0.0651028
0.0650593
0.0651679
0.065112
0.0656393
0.065451
0.0621165
0.0645494
0.0645764
0.0645755
0.0645572
0.0645968
0.064545
0.0646739
0.064605
0.0651405
0.0649681
0.0619664
0.064047
0.0640902
0.0640938
0.0640725
0.064117
0.0640565
0.0642027
0.064103
0.0647414
0.064538
0.06198
0.0635597
0.0636293
0.0636374
0.0636152
0.0636614
0.0635975
0.063755
0.0636484
0.0643698
0.064185
0.0621261
0.0632106
0.063222
0.0631991
0.0632467
0.0631807
0.0633465
0.0632356
0.0639874
0.0638696
0.0623698
0.062827
0.0628402
0.062817
0.0628657
0.062799
0.0629704
0.0628571
0.0636289
0.0635316
0.0626672
0.0624724
0.0624867
0.0624633
0.0625128
0.0624462
0.0626213
0.0625074
0.0632919
0.0632126
0.0629883
0.0621422
0.0621571
0.0621336
0.0621837
0.0621178
0.0622949
0.062182
0.0629739
0.0629106
0.0632901
0.0618328
0.0618481
0.0618245
0.061875
0.0618102
0.0619879
0.0618775
0.062672
0.0626317
0.0635514
0.0615415
0.0615568
0.0615334
0.061584
0.0615206
0.0616977
0.061591
0.0623832
0.0623808
0.0637621
0.0612657
0.0612811
0.0612578
0.0613085
0.0612465
0.0614221
0.0613202
0.0621039
0.0621169
0.06389
0.0610035
0.0610187
0.0609959
0.0610468
0.0609859
0.0611594
0.0610628
0.0618319
0.0618716
0.0639337
0.0607532
0.060768
0.0607457
0.0607973
0.0607373
0.0609079
0.0608171
0.0615679
0.0616193
0.0638899
0.0605129
0.060527
0.0605059
0.0605584
0.060499
0.0606659
0.0605816
0.0613149
0.0613675
0.0637623
0.0602811
0.0602937
0.0602747
0.0603287
0.0602695
0.0604315
0.0603547
0.0611123
0.061127
0.0635604
0.0600831
0.0600952
0.0600764
0.0601065
0.0600712
0.0602028
0.0601558
0.0608818
0.0608975
0.0632977
0.0598919
0.0599056
0.0598849
0.0599186
0.0598792
0.0600115
0.0599623
0.0606443
0.0606734
0.0629888
0.059693
0.0597057
0.0596866
0.059719
0.0596822
0.0598093
0.0597652
0.0604062
0.060453
0.0626493
)
;

boundaryField
{
    fuel
    {
        type            fixedValue;
        value           uniform 0;
    }
    wall
    {
        type            zeroGradient;
    }
    outlet
    {
        type            zeroGradient;
    }
    frontAndBack
    {
        type            empty;
    }
    procBoundary3to0
    {
        type            processor;
        value           nonuniform List<scalar> 10(0.0595194 0.0595316 0.0595131 0.059545 0.0595094 0.0596313 0.0595902 0.0601659 0.0602375 0.0623001);
    }
    procBoundary3to2
    {
        type            processor;
        value           nonuniform List<scalar> 
25
(
0.0615194
0.0682851
0.0680947
0.0672114
0.0663947
0.0657038
0.0650612
0.0645396
0.0640334
0.0636132
0.0631572
0.0631572
0.062829
0.0624831
0.0621567
0.0618478
0.0615553
0.061278
0.0610144
0.0607628
0.0605215
0.0602886
0.0600901
0.0598991
0.0596994
)
;
    }
}


// ************************************************************************* //
