/*--------------------------------*- C++ -*----------------------------------*\
| =========                 |                                                 |
| \\      /  F ield         | OpenFOAM: The Open Source CFD Toolbox           |
|  \\    /   O peration     | Version:  dev                                   |
|   \\  /    A nd           | Web:      www.OpenFOAM.org                      |
|    \\/     M anipulation  |                                                 |
\*---------------------------------------------------------------------------*/
FoamFile
{
    version     2.0;
    format      ascii;
    class       volScalarField;
    location    "0.075";
    object      HCCO;
}
// * * * * * * * * * * * * * * * * * * * * * * * * * * * * * * * * * * * * * //

dimensions      [0 0 0 0 0 0 0];

internalField   nonuniform List<scalar> 
1989
(
5.74827e-08
5.7444e-08
5.74255e-08
5.74004e-08
5.73934e-08
5.73776e-08
5.73758e-08
5.7366e-08
5.73663e-08
5.73606e-08
5.73614e-08
5.73583e-08
5.73588e-08
5.73578e-08
5.73578e-08
5.73588e-08
5.73582e-08
5.73613e-08
5.73605e-08
5.73663e-08
5.73661e-08
5.73758e-08
5.73776e-08
5.73935e-08
5.74005e-08
5.74255e-08
5.74439e-08
5.74813e-08
5.7524e-08
5.75905e-08
5.76915e-08
5.78083e-08
5.80183e-08
5.82359e-08
5.86535e-08
5.91358e-08
5.96775e-08
6.06219e-08
6.11275e-08
5.54198e-08
5.49372e-08
5.40513e-08
5.35472e-08
5.31013e-08
5.27192e-08
5.25179e-08
5.23249e-08
5.22187e-08
5.21253e-08
5.20675e-08
5.20272e-08
5.19916e-08
5.19749e-08
5.19518e-08
5.19456e-08
5.1931e-08
5.19294e-08
5.19205e-08
5.19208e-08
5.19155e-08
5.19163e-08
5.19134e-08
5.19139e-08
5.1913e-08
5.1913e-08
5.19139e-08
5.19133e-08
5.19162e-08
5.19154e-08
5.19208e-08
5.19205e-08
5.19295e-08
5.1931e-08
5.19457e-08
5.19519e-08
5.19749e-08
5.19915e-08
5.20257e-08
5.20648e-08
5.21265e-08
5.2219e-08
5.23249e-08
5.25181e-08
5.27192e-08
5.31009e-08
5.3547e-08
5.40512e-08
5.49367e-08
5.54192e-08
5.01077e-08
4.96509e-08
4.882e-08
4.83543e-08
4.79423e-08
4.75951e-08
4.74094e-08
4.72329e-08
4.71369e-08
4.70514e-08
4.69984e-08
4.69615e-08
4.6929e-08
4.69139e-08
4.68927e-08
4.68872e-08
4.68738e-08
4.68725e-08
4.68642e-08
4.68646e-08
4.68597e-08
4.68605e-08
4.68579e-08
4.68584e-08
4.68575e-08
4.68575e-08
4.68584e-08
4.68578e-08
4.68604e-08
4.68597e-08
4.68646e-08
4.68643e-08
4.68725e-08
4.68738e-08
4.68873e-08
4.68928e-08
4.69139e-08
4.69289e-08
4.69601e-08
4.69955e-08
4.70527e-08
4.71371e-08
4.72329e-08
4.74095e-08
4.7595e-08
4.79419e-08
4.83541e-08
4.88198e-08
4.96504e-08
5.01071e-08
4.51806e-08
4.47513e-08
4.39706e-08
4.35435e-08
4.31674e-08
4.285e-08
4.26814e-08
4.25196e-08
4.24331e-08
4.23551e-08
4.23067e-08
4.22731e-08
4.22435e-08
4.223e-08
4.22105e-08
4.22056e-08
4.21933e-08
4.21923e-08
4.21846e-08
4.21851e-08
4.21806e-08
4.21814e-08
4.2179e-08
4.21795e-08
4.21787e-08
4.21787e-08
4.21795e-08
4.21789e-08
4.21813e-08
4.21805e-08
4.21851e-08
4.21847e-08
4.21923e-08
4.21933e-08
4.22057e-08
4.22106e-08
4.223e-08
4.22434e-08
4.22718e-08
4.23038e-08
4.23565e-08
4.24334e-08
4.25195e-08
4.26814e-08
4.28499e-08
4.3167e-08
4.35432e-08
4.39704e-08
4.47508e-08
4.51801e-08
4.05456e-08
4.01438e-08
3.94904e-08
3.91e-08
3.8762e-08
3.84704e-08
3.83198e-08
3.81711e-08
3.80936e-08
3.80227e-08
3.79787e-08
3.79482e-08
3.79213e-08
3.79093e-08
3.78915e-08
3.78873e-08
3.7876e-08
3.78752e-08
3.78682e-08
3.78687e-08
3.78646e-08
3.78654e-08
3.78632e-08
3.78637e-08
3.78629e-08
3.78629e-08
3.78637e-08
3.78631e-08
3.78653e-08
3.78646e-08
3.78687e-08
3.78682e-08
3.78752e-08
3.7876e-08
3.78874e-08
3.78916e-08
3.79093e-08
3.79212e-08
3.7947e-08
3.79758e-08
3.80242e-08
3.80939e-08
3.8171e-08
3.83198e-08
3.84703e-08
3.87617e-08
3.90997e-08
3.94903e-08
4.01433e-08
4.05451e-08
3.63457e-08
3.59743e-08
3.53447e-08
3.4978e-08
3.46668e-08
3.43943e-08
3.4257e-08
3.41185e-08
3.4048e-08
3.39828e-08
3.39423e-08
3.39142e-08
3.38896e-08
3.38786e-08
3.38623e-08
3.38585e-08
3.38481e-08
3.38475e-08
3.38411e-08
3.38416e-08
3.38378e-08
3.38385e-08
3.38365e-08
3.3837e-08
3.38363e-08
3.38363e-08
3.3837e-08
3.38364e-08
3.38385e-08
3.38377e-08
3.38416e-08
3.38411e-08
3.38475e-08
3.38482e-08
3.38586e-08
3.38624e-08
3.38787e-08
3.38895e-08
3.3913e-08
3.39394e-08
3.39842e-08
3.40482e-08
3.41185e-08
3.4257e-08
3.43941e-08
3.46665e-08
3.49778e-08
3.53445e-08
3.59739e-08
3.63452e-08
3.24885e-08
3.21444e-08
3.15623e-08
3.12273e-08
3.09493e-08
3.07003e-08
3.05784e-08
3.04519e-08
3.03892e-08
3.03303e-08
3.02937e-08
3.02682e-08
3.02462e-08
3.02365e-08
3.02218e-08
3.02185e-08
3.02091e-08
3.02086e-08
3.02028e-08
3.02033e-08
3.01999e-08
3.02006e-08
3.01988e-08
3.01992e-08
3.01986e-08
3.01986e-08
3.01992e-08
3.01987e-08
3.02006e-08
3.01999e-08
3.02033e-08
3.02028e-08
3.02087e-08
3.02092e-08
3.02186e-08
3.02219e-08
3.02366e-08
3.02461e-08
3.02673e-08
3.02909e-08
3.03316e-08
3.03894e-08
3.04518e-08
3.05784e-08
3.07002e-08
3.09489e-08
3.1227e-08
3.15621e-08
3.2144e-08
3.24881e-08
2.89191e-08
2.85951e-08
2.80617e-08
2.77516e-08
2.75023e-08
2.72751e-08
2.71666e-08
2.70511e-08
2.69951e-08
2.69419e-08
2.69088e-08
2.68858e-08
2.68661e-08
2.68576e-08
2.68443e-08
2.68415e-08
2.6833e-08
2.68327e-08
2.68274e-08
2.68279e-08
2.68248e-08
2.68255e-08
2.68238e-08
2.68243e-08
2.68237e-08
2.68237e-08
2.68242e-08
2.68238e-08
2.68255e-08
2.68248e-08
2.68279e-08
2.68274e-08
2.68327e-08
2.68331e-08
2.68415e-08
2.68444e-08
2.68576e-08
2.68661e-08
2.6885e-08
2.69064e-08
2.69429e-08
2.69953e-08
2.7051e-08
2.71665e-08
2.72749e-08
2.7502e-08
2.77513e-08
2.80615e-08
2.85947e-08
2.89188e-08
2.56236e-08
2.53255e-08
2.48464e-08
2.45609e-08
2.43404e-08
2.41363e-08
2.40408e-08
2.3937e-08
2.38877e-08
2.38403e-08
2.38106e-08
2.37902e-08
2.37728e-08
2.37653e-08
2.37536e-08
2.37511e-08
2.37436e-08
2.37434e-08
2.37387e-08
2.37392e-08
2.37364e-08
2.37371e-08
2.37356e-08
2.3736e-08
2.37355e-08
2.37354e-08
2.37359e-08
2.37355e-08
2.3737e-08
2.37364e-08
2.37392e-08
2.37387e-08
2.37434e-08
2.37437e-08
2.37512e-08
2.37536e-08
2.37654e-08
2.37728e-08
2.37895e-08
2.38087e-08
2.3841e-08
2.38878e-08
2.39369e-08
2.40408e-08
2.41362e-08
2.43401e-08
2.45607e-08
2.48462e-08
2.53252e-08
2.56232e-08
2.26272e-08
2.23537e-08
2.19284e-08
2.16644e-08
2.14702e-08
2.12881e-08
2.12046e-08
2.11117e-08
2.10685e-08
2.10266e-08
2.10001e-08
2.09821e-08
2.09669e-08
2.09603e-08
2.095e-08
2.09479e-08
2.09413e-08
2.09411e-08
2.0937e-08
2.09375e-08
2.0935e-08
2.09356e-08
2.09343e-08
2.09346e-08
2.09342e-08
2.09342e-08
2.09346e-08
2.09342e-08
2.09356e-08
2.0935e-08
2.09375e-08
2.0937e-08
2.09411e-08
2.09413e-08
2.0948e-08
2.095e-08
2.09604e-08
2.09668e-08
2.09815e-08
2.09986e-08
2.1027e-08
2.10686e-08
2.11116e-08
2.12045e-08
2.1288e-08
2.14699e-08
2.16642e-08
2.19282e-08
2.23534e-08
2.26269e-08
1.99132e-08
1.96638e-08
1.92875e-08
1.90898e-08
1.89191e-08
1.87559e-08
1.86833e-08
1.85998e-08
1.85622e-08
1.8525e-08
1.85014e-08
1.84857e-08
1.84722e-08
1.84665e-08
1.84573e-08
1.84556e-08
1.84498e-08
1.84497e-08
1.8446e-08
1.84465e-08
1.84444e-08
1.84449e-08
1.84437e-08
1.8444e-08
1.84436e-08
1.84436e-08
1.8444e-08
1.84437e-08
1.84449e-08
1.84443e-08
1.84465e-08
1.84461e-08
1.84497e-08
1.84498e-08
1.84557e-08
1.84574e-08
1.84665e-08
1.84721e-08
1.84852e-08
1.85003e-08
1.85251e-08
1.85623e-08
1.85997e-08
1.86832e-08
1.87557e-08
1.89188e-08
1.90896e-08
1.92873e-08
1.96636e-08
1.99129e-08
1.75046e-08
1.72783e-08
1.69429e-08
1.67647e-08
1.66151e-08
1.64641e-08
1.63985e-08
1.63213e-08
1.62874e-08
1.62534e-08
1.62318e-08
1.62176e-08
1.62053e-08
1.62002e-08
1.61919e-08
1.61904e-08
1.61851e-08
1.61851e-08
1.61818e-08
1.61823e-08
1.61803e-08
1.61808e-08
1.61797e-08
1.618e-08
1.61797e-08
1.61797e-08
1.618e-08
1.61797e-08
1.61808e-08
1.61803e-08
1.61823e-08
1.61818e-08
1.61851e-08
1.61851e-08
1.61905e-08
1.61919e-08
1.62002e-08
1.62053e-08
1.62172e-08
1.62309e-08
1.62533e-08
1.62874e-08
1.63212e-08
1.63984e-08
1.64639e-08
1.66148e-08
1.67645e-08
1.69427e-08
1.7278e-08
1.75043e-08
1.53031e-08
1.50955e-08
1.47935e-08
1.46355e-08
1.45051e-08
1.43714e-08
1.43146e-08
1.4246e-08
1.42165e-08
1.41866e-08
1.41675e-08
1.41552e-08
1.41444e-08
1.414e-08
1.41326e-08
1.41314e-08
1.41268e-08
1.41269e-08
1.4124e-08
1.41244e-08
1.41227e-08
1.41232e-08
1.41222e-08
1.41225e-08
1.41222e-08
1.41222e-08
1.41225e-08
1.41222e-08
1.41232e-08
1.41227e-08
1.41244e-08
1.4124e-08
1.41269e-08
1.41268e-08
1.41315e-08
1.41327e-08
1.414e-08
1.41443e-08
1.41549e-08
1.41669e-08
1.41864e-08
1.42165e-08
1.42459e-08
1.43145e-08
1.43712e-08
1.45049e-08
1.46353e-08
1.47934e-08
1.50953e-08
1.53029e-08
1.3314e-08
1.31263e-08
1.28615e-08
1.27214e-08
1.26083e-08
1.24905e-08
1.24414e-08
1.23808e-08
1.23554e-08
1.23291e-08
1.23124e-08
1.23017e-08
1.22923e-08
1.22884e-08
1.2282e-08
1.2281e-08
1.22771e-08
1.22772e-08
1.22747e-08
1.22751e-08
1.22736e-08
1.22741e-08
1.22732e-08
1.22735e-08
1.22732e-08
1.22732e-08
1.22735e-08
1.22732e-08
1.2274e-08
1.22736e-08
1.22751e-08
1.22747e-08
1.22772e-08
1.22771e-08
1.22811e-08
1.22821e-08
1.22885e-08
1.22922e-08
1.23015e-08
1.2312e-08
1.23288e-08
1.23554e-08
1.23807e-08
1.24414e-08
1.24903e-08
1.26081e-08
1.27212e-08
1.28614e-08
1.31261e-08
1.33138e-08
1.15604e-08
1.13895e-08
1.1159e-08
1.10339e-08
1.09361e-08
1.0832e-08
1.079e-08
1.07362e-08
1.07144e-08
1.06912e-08
1.06768e-08
1.06675e-08
1.06592e-08
1.06558e-08
1.06502e-08
1.06493e-08
1.06459e-08
1.06461e-08
1.0644e-08
1.06444e-08
1.06431e-08
1.06435e-08
1.06428e-08
1.06431e-08
1.06428e-08
1.06428e-08
1.0643e-08
1.06428e-08
1.06435e-08
1.06431e-08
1.06444e-08
1.0644e-08
1.06462e-08
1.0646e-08
1.06494e-08
1.06502e-08
1.06559e-08
1.06591e-08
1.06673e-08
1.06764e-08
1.06909e-08
1.07143e-08
1.07361e-08
1.079e-08
1.08319e-08
1.0936e-08
1.10338e-08
1.11589e-08
1.13894e-08
1.15602e-08
9.9891e-09
9.8363e-09
9.63682e-09
9.52499e-09
9.44085e-09
9.34916e-09
9.31352e-09
9.26591e-09
9.24725e-09
9.22685e-09
9.21448e-09
9.20637e-09
9.19911e-09
9.19624e-09
9.19118e-09
9.19024e-09
9.1867e-09
9.18658e-09
9.18437e-09
9.1846e-09
9.1833e-09
9.18359e-09
9.18289e-09
9.18308e-09
9.18284e-09
9.18283e-09
9.18307e-09
9.18287e-09
9.18357e-09
9.18328e-09
9.18459e-09
9.18437e-09
9.18659e-09
9.18671e-09
9.19025e-09
9.1912e-09
9.19625e-09
9.19908e-09
9.20621e-09
9.21418e-09
9.22666e-09
9.2472e-09
9.26583e-09
9.31344e-09
9.34905e-09
9.4407e-09
9.52486e-09
9.63671e-09
9.83616e-09
9.98893e-09
8.58585e-09
8.44983e-09
8.27779e-09
8.17876e-09
8.10675e-09
8.02639e-09
7.9963e-09
7.95433e-09
7.93847e-09
7.92062e-09
7.91003e-09
7.903e-09
7.89668e-09
7.8942e-09
7.88972e-09
7.88889e-09
7.88581e-09
7.88574e-09
7.88382e-09
7.88404e-09
7.88291e-09
7.88317e-09
7.88256e-09
7.88273e-09
7.88252e-09
7.88251e-09
7.88272e-09
7.88254e-09
7.88315e-09
7.88288e-09
7.88403e-09
7.88382e-09
7.88575e-09
7.88582e-09
7.8889e-09
7.88974e-09
7.89421e-09
7.89666e-09
7.90288e-09
7.90978e-09
7.92046e-09
7.93841e-09
7.95425e-09
7.99623e-09
8.02628e-09
8.10662e-09
8.17864e-09
8.27771e-09
8.44971e-09
8.5857e-09
7.33556e-09
7.21496e-09
7.06718e-09
6.98043e-09
6.91917e-09
6.8491e-09
6.8239e-09
6.78705e-09
6.77363e-09
6.75809e-09
6.74907e-09
6.74301e-09
6.73753e-09
6.73541e-09
6.73146e-09
6.73076e-09
6.7281e-09
6.72807e-09
6.72641e-09
6.72662e-09
6.72564e-09
6.72588e-09
6.72534e-09
6.72549e-09
6.72531e-09
6.72531e-09
6.72549e-09
6.72533e-09
6.72586e-09
6.72562e-09
6.72661e-09
6.7264e-09
6.72808e-09
6.7281e-09
6.73077e-09
6.73148e-09
6.73541e-09
6.73751e-09
6.74291e-09
6.74886e-09
6.75796e-09
6.77358e-09
6.78698e-09
6.82384e-09
6.849e-09
6.91906e-09
6.98033e-09
7.06711e-09
7.21485e-09
7.33543e-09
6.22421e-09
6.11766e-09
5.98838e-09
5.90772e-09
5.8552e-09
5.79401e-09
5.77273e-09
5.74032e-09
5.72884e-09
5.7153e-09
5.70759e-09
5.70233e-09
5.69759e-09
5.69575e-09
5.69231e-09
5.69173e-09
5.68943e-09
5.68943e-09
5.68799e-09
5.68819e-09
5.68734e-09
5.68756e-09
5.68709e-09
5.68723e-09
5.68707e-09
5.68707e-09
5.68722e-09
5.68708e-09
5.68754e-09
5.68732e-09
5.68818e-09
5.68799e-09
5.68944e-09
5.68944e-09
5.69174e-09
5.69233e-09
5.69576e-09
5.69757e-09
5.70225e-09
5.70741e-09
5.71519e-09
5.72879e-09
5.74026e-09
5.77267e-09
5.79393e-09
5.8551e-09
5.90764e-09
5.98828e-09
6.11756e-09
6.2241e-09
5.23906e-09
5.1453e-09
5.03501e-09
4.96509e-09
4.92097e-09
4.86822e-09
4.85068e-09
4.82249e-09
4.81283e-09
4.80116e-09
4.79466e-09
4.79016e-09
4.78611e-09
4.78456e-09
4.7816e-09
4.78113e-09
4.77917e-09
4.77919e-09
4.77796e-09
4.77814e-09
4.77741e-09
4.77761e-09
4.77721e-09
4.77733e-09
4.77719e-09
4.77719e-09
4.77732e-09
4.7772e-09
4.77759e-09
4.7774e-09
4.77813e-09
4.77796e-09
4.7792e-09
4.77917e-09
4.78114e-09
4.78161e-09
4.78457e-09
4.7861e-09
4.7901e-09
4.79452e-09
4.80107e-09
4.81278e-09
4.82243e-09
4.85063e-09
4.86814e-09
4.92089e-09
4.96501e-09
5.03493e-09
5.14522e-09
5.23896e-09
4.36879e-09
4.28665e-09
4.19327e-09
4.13326e-09
4.09657e-09
4.05146e-09
4.03721e-09
4.01285e-09
4.00474e-09
3.99477e-09
3.98932e-09
3.9855e-09
3.98207e-09
3.98079e-09
3.97826e-09
3.9779e-09
3.97623e-09
3.97627e-09
3.97522e-09
3.9754e-09
3.97478e-09
3.97495e-09
3.97461e-09
3.97471e-09
3.9746e-09
3.9746e-09
3.97471e-09
3.9746e-09
3.97494e-09
3.97476e-09
3.97539e-09
3.97522e-09
3.97628e-09
3.97623e-09
3.9779e-09
3.97827e-09
3.98079e-09
3.98206e-09
3.98545e-09
3.98921e-09
3.99468e-09
4.00469e-09
4.0128e-09
4.03716e-09
4.0514e-09
4.0965e-09
4.1332e-09
4.1932e-09
4.28658e-09
4.3687e-09
3.60368e-09
3.53205e-09
3.45375e-09
3.4017e-09
3.37087e-09
3.3319e-09
3.32024e-09
3.29903e-09
3.29206e-09
3.28349e-09
3.2789e-09
3.27561e-09
3.27272e-09
3.27164e-09
3.26948e-09
3.2692e-09
3.26778e-09
3.26783e-09
3.26693e-09
3.26709e-09
3.26656e-09
3.26672e-09
3.26643e-09
3.26652e-09
3.26642e-09
3.26642e-09
3.26651e-09
3.26642e-09
3.26671e-09
3.26655e-09
3.26709e-09
3.26693e-09
3.26784e-09
3.26778e-09
3.2692e-09
3.26949e-09
3.27164e-09
3.27271e-09
3.27558e-09
3.27882e-09
3.28341e-09
3.29202e-09
3.29898e-09
3.3202e-09
3.33184e-09
3.37081e-09
3.40164e-09
3.45369e-09
3.53199e-09
3.60361e-09
2.93487e-09
2.87402e-09
2.80899e-09
2.76513e-09
2.74007e-09
2.70739e-09
2.69821e-09
2.68023e-09
2.67429e-09
2.6671e-09
2.66333e-09
2.66058e-09
2.65819e-09
2.65732e-09
2.65553e-09
2.65532e-09
2.65413e-09
2.6542e-09
2.65345e-09
2.65359e-09
2.65315e-09
2.65328e-09
2.65304e-09
2.65312e-09
2.65303e-09
2.65303e-09
2.65311e-09
2.65303e-09
2.65327e-09
2.65314e-09
2.65358e-09
2.65345e-09
2.6542e-09
2.65413e-09
2.65532e-09
2.65553e-09
2.65732e-09
2.65819e-09
2.66055e-09
2.66327e-09
2.66703e-09
2.67425e-09
2.68019e-09
2.69817e-09
2.70734e-09
2.74002e-09
2.76508e-09
2.80895e-09
2.87397e-09
2.9348e-09
2.35591e-09
2.30324e-09
2.2491e-09
2.21207e-09
2.19167e-09
2.16444e-09
2.15719e-09
2.1421e-09
2.13683e-09
2.13083e-09
2.12776e-09
2.12545e-09
2.12351e-09
2.1228e-09
2.12132e-09
2.12117e-09
2.12019e-09
2.12025e-09
2.11963e-09
2.11976e-09
2.11939e-09
2.1195e-09
2.1193e-09
2.11937e-09
2.1193e-09
2.1193e-09
2.11937e-09
2.1193e-09
2.1195e-09
2.11938e-09
2.11975e-09
2.11963e-09
2.12025e-09
2.12019e-09
2.12117e-09
2.12133e-09
2.1228e-09
2.12351e-09
2.12544e-09
2.12771e-09
2.13078e-09
2.13679e-09
2.14207e-09
2.15715e-09
2.16441e-09
2.19163e-09
2.21203e-09
2.24906e-09
2.30319e-09
2.35586e-09
1.8623e-09
1.81837e-09
1.77487e-09
1.74464e-09
1.72864e-09
1.70654e-09
1.70109e-09
1.68877e-09
1.68398e-09
1.67909e-09
1.67667e-09
1.67479e-09
1.67324e-09
1.67269e-09
1.6715e-09
1.67138e-09
1.6706e-09
1.67066e-09
1.67016e-09
1.67026e-09
1.66997e-09
1.67006e-09
1.6699e-09
1.66995e-09
1.6699e-09
1.6699e-09
1.66995e-09
1.66989e-09
1.67005e-09
1.66996e-09
1.67026e-09
1.67016e-09
1.67066e-09
1.6706e-09
1.67139e-09
1.6715e-09
1.67269e-09
1.67324e-09
1.67478e-09
1.67664e-09
1.67904e-09
1.68395e-09
1.68874e-09
1.70106e-09
1.70651e-09
1.72861e-09
1.74461e-09
1.77484e-09
1.81833e-09
1.86226e-09
1.44792e-09
1.41162e-09
1.37679e-09
1.35192e-09
1.33931e-09
1.32142e-09
1.31731e-09
1.30736e-09
1.30523e-09
1.30132e-09
1.29946e-09
1.29795e-09
1.29674e-09
1.29632e-09
1.29538e-09
1.2953e-09
1.29468e-09
1.29473e-09
1.29433e-09
1.29442e-09
1.29419e-09
1.29426e-09
1.29414e-09
1.29418e-09
1.29414e-09
1.29414e-09
1.29418e-09
1.29413e-09
1.29426e-09
1.29418e-09
1.29442e-09
1.29433e-09
1.29473e-09
1.29468e-09
1.2953e-09
1.29538e-09
1.29632e-09
1.29674e-09
1.29795e-09
1.29943e-09
1.30128e-09
1.30521e-09
1.30734e-09
1.31729e-09
1.3214e-09
1.33928e-09
1.35189e-09
1.37677e-09
1.41159e-09
1.44788e-09
1.10199e-09
1.07648e-09
1.04959e-09
1.03011e-09
1.02064e-09
1.0067e-09
1.0038e-09
9.96057e-10
9.94045e-10
9.90977e-10
9.89581e-10
9.88394e-10
9.87472e-10
9.87155e-10
9.86429e-10
9.86377e-10
9.85893e-10
9.85942e-10
9.85633e-10
9.85705e-10
9.85523e-10
9.85585e-10
9.85484e-10
9.8552e-10
9.85486e-10
9.85485e-10
9.85519e-10
9.85481e-10
9.85581e-10
9.85518e-10
9.85702e-10
9.85634e-10
9.85943e-10
9.85893e-10
9.86379e-10
9.86432e-10
9.87156e-10
9.87471e-10
9.88397e-10
9.89557e-10
9.9095e-10
9.94025e-10
9.9604e-10
1.00379e-09
1.00668e-09
1.02062e-09
1.03009e-09
1.04957e-09
1.07646e-09
1.10196e-09
8.25102e-10
8.05166e-10
7.84672e-10
7.6912e-10
7.61818e-10
7.50934e-10
7.48802e-10
7.42828e-10
7.42684e-10
7.4033e-10
7.39304e-10
7.38398e-10
7.37707e-10
7.37473e-10
7.36924e-10
7.3689e-10
7.36524e-10
7.36564e-10
7.3633e-10
7.36387e-10
7.36248e-10
7.36296e-10
7.3622e-10
7.36248e-10
7.36222e-10
7.36221e-10
7.36247e-10
7.36217e-10
7.36294e-10
7.36245e-10
7.36385e-10
7.3633e-10
7.36565e-10
7.36524e-10
7.36892e-10
7.36927e-10
7.37474e-10
7.37706e-10
7.38405e-10
7.39282e-10
7.4031e-10
7.42669e-10
7.42811e-10
7.48785e-10
7.50916e-10
7.61799e-10
7.69102e-10
7.84654e-10
8.05148e-10
8.25081e-10
6.04249e-10
5.8895e-10
5.73837e-10
5.62098e-10
5.56833e-10
5.4868e-10
5.47266e-10
5.42802e-10
5.42688e-10
5.40918e-10
5.40179e-10
5.39511e-10
5.39e-10
5.38832e-10
5.38427e-10
5.38405e-10
5.38134e-10
5.38166e-10
5.37992e-10
5.38036e-10
5.37933e-10
5.3797e-10
5.37913e-10
5.37934e-10
5.37915e-10
5.37914e-10
5.37933e-10
5.37911e-10
5.37968e-10
5.37931e-10
5.38034e-10
5.37993e-10
5.38167e-10
5.38134e-10
5.38407e-10
5.38429e-10
5.38833e-10
5.39e-10
5.39515e-10
5.40165e-10
5.40903e-10
5.42676e-10
5.42789e-10
5.47253e-10
5.48667e-10
5.56819e-10
5.62085e-10
5.73824e-10
5.88937e-10
6.04233e-10
4.30763e-10
4.19231e-10
4.0843e-10
3.99783e-10
3.96098e-10
3.90141e-10
3.89251e-10
3.85983e-10
3.85909e-10
3.84609e-10
3.84095e-10
3.83613e-10
3.83247e-10
3.83128e-10
3.82837e-10
3.82824e-10
3.82628e-10
3.82653e-10
3.82527e-10
3.8256e-10
3.82486e-10
3.82512e-10
3.82472e-10
3.82487e-10
3.82473e-10
3.82473e-10
3.82486e-10
3.8247e-10
3.82511e-10
3.82484e-10
3.82559e-10
3.82528e-10
3.82654e-10
3.82628e-10
3.82825e-10
3.82838e-10
3.83129e-10
3.83246e-10
3.83615e-10
3.84086e-10
3.84599e-10
3.85901e-10
3.85974e-10
3.89242e-10
3.90132e-10
3.96088e-10
3.99773e-10
4.08421e-10
4.19221e-10
4.30751e-10
2.97131e-10
2.88585e-10
2.81227e-10
2.75057e-10
2.72574e-10
2.68359e-10
2.67839e-10
2.6551e-10
2.65475e-10
2.64549e-10
2.64206e-10
2.63867e-10
2.63615e-10
2.63534e-10
2.63332e-10
2.63324e-10
2.63187e-10
2.63206e-10
2.63118e-10
2.63142e-10
2.6309e-10
2.63109e-10
2.6308e-10
2.63091e-10
2.63081e-10
2.63081e-10
2.63091e-10
2.63079e-10
2.63108e-10
2.63089e-10
2.63141e-10
2.63119e-10
2.63207e-10
2.63187e-10
2.63325e-10
2.63333e-10
2.63534e-10
2.63615e-10
2.63869e-10
2.642e-10
2.64543e-10
2.65469e-10
2.65503e-10
2.67832e-10
2.68353e-10
2.72567e-10
2.7505e-10
2.8122e-10
2.88578e-10
2.97123e-10
1.96593e-10
1.90994e-10
1.85717e-10
1.81542e-10
1.79931e-10
1.77107e-10
1.76808e-10
1.75232e-10
1.75219e-10
1.74593e-10
1.74373e-10
1.74147e-10
1.73981e-10
1.73927e-10
1.73794e-10
1.73789e-10
1.73699e-10
1.73711e-10
1.73653e-10
1.73668e-10
1.73634e-10
1.73647e-10
1.73628e-10
1.73635e-10
1.73629e-10
1.73628e-10
1.73635e-10
1.73627e-10
1.73646e-10
1.73633e-10
1.73668e-10
1.73653e-10
1.73711e-10
1.73699e-10
1.73789e-10
1.73795e-10
1.73927e-10
1.73981e-10
1.74148e-10
1.7437e-10
1.74589e-10
1.75215e-10
1.75228e-10
1.76804e-10
1.77103e-10
1.79926e-10
1.81537e-10
1.85713e-10
1.90989e-10
1.96587e-10
1.24377e-10
1.21167e-10
1.1787e-10
1.15172e-10
1.14191e-10
1.12381e-10
1.12233e-10
1.11209e-10
1.11213e-10
1.10808e-10
1.10676e-10
1.10532e-10
1.10429e-10
1.10394e-10
1.10311e-10
1.10307e-10
1.10251e-10
1.10258e-10
1.10222e-10
1.10232e-10
1.1021e-10
1.10218e-10
1.10206e-10
1.10211e-10
1.10207e-10
1.10207e-10
1.10211e-10
1.10206e-10
1.10218e-10
1.1021e-10
1.10231e-10
1.10222e-10
1.10259e-10
1.10251e-10
1.10308e-10
1.10311e-10
1.10394e-10
1.10429e-10
1.10532e-10
1.10674e-10
1.10806e-10
1.1121e-10
1.11207e-10
1.1223e-10
1.12379e-10
1.14188e-10
1.15169e-10
1.17867e-10
1.21164e-10
1.24374e-10
7.57797e-11
7.37801e-11
7.18307e-11
7.01612e-11
6.95876e-11
6.84831e-11
6.84141e-11
6.77807e-11
6.77898e-11
6.75405e-11
6.74644e-11
6.73766e-11
6.73154e-11
6.72938e-11
6.72443e-11
6.72419e-11
6.72082e-11
6.72127e-11
6.7191e-11
6.71966e-11
6.71839e-11
6.71886e-11
6.71815e-11
6.71843e-11
6.71818e-11
6.71817e-11
6.71841e-11
6.71812e-11
6.71883e-11
6.71835e-11
6.71964e-11
6.7191e-11
6.72128e-11
6.72082e-11
6.72421e-11
6.72445e-11
6.72939e-11
6.73153e-11
6.73769e-11
6.74634e-11
6.7539e-11
6.77884e-11
6.7779e-11
6.84126e-11
6.84814e-11
6.95858e-11
7.01593e-11
7.1829e-11
7.37781e-11
7.57773e-11
4.45791e-11
4.3404e-11
4.23229e-11
4.13602e-11
4.1045e-11
4.04143e-11
4.03852e-11
4.00181e-11
4.00271e-11
3.98828e-11
3.98418e-11
3.97912e-11
3.97573e-11
3.97444e-11
3.97169e-11
3.97152e-11
3.96964e-11
3.96987e-11
3.96866e-11
3.96896e-11
3.96826e-11
3.96851e-11
3.96812e-11
3.96827e-11
3.96813e-11
3.96813e-11
3.96826e-11
3.9681e-11
3.96849e-11
3.96823e-11
3.96895e-11
3.96866e-11
3.96988e-11
3.96964e-11
3.97153e-11
3.97171e-11
3.97445e-11
3.97573e-11
3.97913e-11
3.98413e-11
3.9882e-11
4.00263e-11
4.00172e-11
4.03844e-11
4.04133e-11
4.1044e-11
4.13591e-11
4.23219e-11
4.34028e-11
4.45777e-11
2.56691e-11
2.50135e-11
2.44447e-11
2.39185e-11
2.37516e-11
2.34104e-11
2.33978e-11
2.31965e-11
2.32025e-11
2.31232e-11
2.3102e-11
2.3074e-11
2.30562e-11
2.30487e-11
2.30342e-11
2.30329e-11
2.3023e-11
2.3024e-11
2.30176e-11
2.30191e-11
2.30154e-11
2.30167e-11
2.30146e-11
2.30154e-11
2.30146e-11
2.30146e-11
2.30153e-11
2.30145e-11
2.30166e-11
2.30153e-11
2.3019e-11
2.30176e-11
2.3024e-11
2.3023e-11
2.3033e-11
2.30343e-11
2.30487e-11
2.30562e-11
2.30741e-11
2.31018e-11
2.31228e-11
2.32021e-11
2.3196e-11
2.33974e-11
2.34099e-11
2.3751e-11
2.39179e-11
2.44442e-11
2.50128e-11
2.56684e-11
1.49103e-11
1.4558e-11
1.42696e-11
1.39944e-11
1.39064e-11
1.37302e-11
1.37227e-11
1.36176e-11
1.36202e-11
1.35783e-11
1.35675e-11
1.35524e-11
1.35433e-11
1.3539e-11
1.35316e-11
1.35306e-11
1.35256e-11
1.35259e-11
1.35227e-11
1.35233e-11
1.35215e-11
1.35221e-11
1.3521e-11
1.35214e-11
1.3521e-11
1.3521e-11
1.35214e-11
1.35209e-11
1.3522e-11
1.35214e-11
1.35233e-11
1.35227e-11
1.35259e-11
1.35256e-11
1.35306e-11
1.35316e-11
1.3539e-11
1.35433e-11
1.35524e-11
1.35674e-11
1.35781e-11
1.362e-11
1.36173e-11
1.37224e-11
1.37299e-11
1.39061e-11
1.39941e-11
1.42693e-11
1.45576e-11
1.49099e-11
9.52126e-12
9.33145e-12
9.18381e-12
9.0428e-12
8.99237e-12
8.90379e-12
8.89568e-12
8.84286e-12
8.84217e-12
8.8204e-12
8.81421e-12
8.80602e-12
8.80118e-12
8.79854e-12
8.79472e-12
8.79393e-12
8.79135e-12
8.79133e-12
8.78968e-12
8.78992e-12
8.78895e-12
8.78922e-12
8.78866e-12
8.78885e-12
8.78864e-12
8.78864e-12
8.78883e-12
8.78863e-12
8.78919e-12
8.78891e-12
8.7899e-12
8.78968e-12
8.79134e-12
8.79134e-12
8.79394e-12
8.79474e-12
8.79854e-12
8.80117e-12
8.80602e-12
8.81415e-12
8.8203e-12
8.84205e-12
8.84272e-12
8.89555e-12
8.90366e-12
8.99222e-12
9.04265e-12
9.18366e-12
9.33114e-12
9.5211e-12
8.02489e-12
7.90242e-12
7.81138e-12
7.72995e-12
7.69089e-12
7.64155e-12
7.62936e-12
7.60057e-12
7.59654e-12
7.58367e-12
7.57868e-12
7.57336e-12
7.57002e-12
7.56799e-12
7.56551e-12
7.56473e-12
7.56309e-12
7.5629e-12
7.56185e-12
7.5619e-12
7.56127e-12
7.5614e-12
7.56103e-12
7.56114e-12
7.561e-12
7.56099e-12
7.56113e-12
7.56101e-12
7.56138e-12
7.56125e-12
7.56188e-12
7.56185e-12
7.5629e-12
7.56309e-12
7.56473e-12
7.56552e-12
7.56799e-12
7.57001e-12
7.57334e-12
7.57864e-12
7.58361e-12
7.59646e-12
7.60048e-12
7.62928e-12
7.64147e-12
7.69081e-12
7.72987e-12
7.8113e-12
7.90208e-12
8.02489e-12
9.32841e-12
9.2021e-12
9.11499e-12
9.0407e-12
8.9961e-12
8.95266e-12
8.9348e-12
8.90997e-12
8.90298e-12
8.89095e-12
8.88505e-12
8.87967e-12
8.87606e-12
8.87377e-12
8.87121e-12
8.87021e-12
8.86854e-12
8.8682e-12
8.86714e-12
8.86711e-12
8.86647e-12
8.86656e-12
8.86617e-12
8.86627e-12
8.86612e-12
8.86611e-12
8.86626e-12
8.86616e-12
8.86654e-12
8.86645e-12
8.8671e-12
8.86714e-12
8.86821e-12
8.86854e-12
8.87021e-12
8.87121e-12
8.87376e-12
8.87605e-12
8.87964e-12
8.88501e-12
8.89089e-12
8.9029e-12
8.90988e-12
8.93472e-12
8.95259e-12
8.99603e-12
9.04063e-12
9.11492e-12
9.20152e-12
9.32861e-12
)
;

boundaryField
{
    fuel
    {
        type            fixedValue;
        value           nonuniform 0();
    }
    wall
    {
        type            zeroGradient;
    }
    outlet
    {
        type            zeroGradient;
    }
    frontAndBack
    {
        type            empty;
    }
    procBoundary3to2
    {
        type            processor;
        value           nonuniform List<scalar> 
51
(
6.33394e-08
6.32973e-08
6.3277e-08
6.32497e-08
6.3242e-08
6.32249e-08
6.32228e-08
6.32122e-08
6.32124e-08
6.32062e-08
6.3207e-08
6.32037e-08
6.32043e-08
6.32032e-08
6.32031e-08
6.32043e-08
6.32036e-08
6.3207e-08
6.32061e-08
6.32124e-08
6.32123e-08
6.32228e-08
6.32249e-08
6.32421e-08
6.32499e-08
6.3277e-08
6.32972e-08
6.3338e-08
6.33846e-08
6.34562e-08
6.3566e-08
6.3694e-08
6.39216e-08
6.41563e-08
6.46107e-08
6.51312e-08
6.57094e-08
6.67161e-08
6.72415e-08
6.11279e-08
6.06224e-08
5.96775e-08
5.9136e-08
5.86537e-08
5.8236e-08
5.80181e-08
5.78082e-08
5.76912e-08
5.75894e-08
5.75267e-08
5.75267e-08
)
;
    }
}


// ************************************************************************* //
