/*--------------------------------*- C++ -*----------------------------------*\
| =========                 |                                                 |
| \\      /  F ield         | OpenFOAM: The Open Source CFD Toolbox           |
|  \\    /   O peration     | Version:  dev                                   |
|   \\  /    A nd           | Web:      www.OpenFOAM.org                      |
|    \\/     M anipulation  |                                                 |
\*---------------------------------------------------------------------------*/
FoamFile
{
    version     2.0;
    format      ascii;
    class       volScalarField;
    location    "0.075";
    object      i-C4H5;
}
// * * * * * * * * * * * * * * * * * * * * * * * * * * * * * * * * * * * * * //

dimensions      [0 0 0 0 0 0 0];

internalField   nonuniform List<scalar> 
250
(
8.6646e-07
8.66443e-07
8.66332e-07
8.66481e-07
8.65923e-07
8.66565e-07
8.65429e-07
8.6949e-07
8.76194e-07
8.42022e-07
4.39394e-07
8.95569e-08
8.95552e-08
8.95402e-08
8.9564e-08
8.95e-08
8.95777e-08
8.94586e-08
8.99583e-08
9.05232e-08
8.79935e-08
4.26196e-08
1.15604e-08
1.15583e-08
1.15594e-08
1.15574e-08
1.15592e-08
1.15574e-08
1.15617e-08
1.16296e-08
1.17451e-08
1.16111e-08
5.64116e-09
2.35155e-09
2.34964e-09
2.35234e-09
2.34889e-09
2.35502e-09
2.348e-09
2.36048e-09
2.36903e-09
2.44581e-09
2.44802e-09
1.50974e-09
8.44949e-10
8.42522e-10
8.45781e-10
8.43207e-10
8.48026e-10
8.42321e-10
8.52827e-10
8.5126e-10
9.12964e-10
9.19827e-10
7.78057e-10
4.6161e-10
4.57395e-10
4.62364e-10
4.60436e-10
4.64126e-10
4.59582e-10
4.68112e-10
4.64166e-10
4.99135e-10
5.2427e-10
5.25139e-10
3.10821e-10
3.13926e-10
3.11787e-10
3.10255e-10
3.13296e-10
3.09436e-10
3.17659e-10
3.13425e-10
3.50581e-10
3.59938e-10
3.98279e-10
2.44754e-10
2.46639e-10
2.45867e-10
2.44598e-10
2.47119e-10
2.43829e-10
2.51075e-10
2.4694e-10
2.72769e-10
2.81495e-10
3.27905e-10
2.05675e-10
2.07632e-10
2.07437e-10
2.06342e-10
2.085e-10
2.05568e-10
2.11977e-10
2.06899e-10
2.33476e-10
2.37626e-10
2.90465e-10
1.79884e-10
1.825e-10
1.82622e-10
1.81724e-10
1.83514e-10
1.8103e-10
1.86708e-10
1.82225e-10
2.08264e-10
2.1285e-10
2.74227e-10
1.6532e-10
1.65596e-10
1.64821e-10
1.66384e-10
1.64198e-10
1.69393e-10
1.65343e-10
1.89138e-10
1.96486e-10
2.70239e-10
1.52427e-10
1.52769e-10
1.52073e-10
1.53497e-10
1.5152e-10
1.56384e-10
1.5266e-10
1.74874e-10
1.8244e-10
2.7253e-10
1.42016e-10
1.42386e-10
1.41742e-10
1.43079e-10
1.41255e-10
1.45881e-10
1.42417e-10
1.63511e-10
1.71246e-10
2.77125e-10
1.33163e-10
1.3354e-10
1.32931e-10
1.3421e-10
1.32508e-10
1.36948e-10
1.33709e-10
1.53974e-10
1.61812e-10
2.82058e-10
1.25363e-10
1.25737e-10
1.25155e-10
1.26392e-10
1.24788e-10
1.29072e-10
1.2604e-10
1.45641e-10
1.53826e-10
2.86215e-10
1.18324e-10
1.18693e-10
1.18132e-10
1.19335e-10
1.17814e-10
1.21957e-10
1.19123e-10
1.3812e-10
1.47041e-10
2.88488e-10
1.11869e-10
1.1223e-10
1.11687e-10
1.12866e-10
1.11414e-10
1.15424e-10
1.1278e-10
1.31145e-10
1.40105e-10
2.88494e-10
1.05878e-10
1.06229e-10
1.05706e-10
1.06868e-10
1.05472e-10
1.09352e-10
1.06892e-10
1.24551e-10
1.33831e-10
2.86237e-10
1.00265e-10
1.00602e-10
1.00103e-10
1.0126e-10
9.99062e-11
1.03656e-10
1.01374e-10
1.18293e-10
1.27426e-10
2.8223e-10
9.49604e-11
9.5275e-11
9.48096e-11
9.59779e-11
9.46504e-11
9.82671e-11
9.61574e-11
1.12401e-10
1.2105e-10
2.7714e-10
8.98986e-11
9.01755e-11
8.97637e-11
9.09615e-11
8.96452e-11
9.31161e-11
9.11842e-11
1.07807e-10
1.14953e-10
2.71373e-10
8.56603e-11
8.59239e-11
8.55219e-11
8.61517e-11
8.54027e-11
8.81314e-11
8.69024e-11
1.02577e-10
1.09109e-10
2.64852e-10
8.15933e-11
8.18934e-11
8.1449e-11
8.21668e-11
8.13178e-11
8.40561e-11
8.27576e-11
9.72218e-11
1.03362e-10
2.57123e-10
7.73309e-11
7.76086e-11
7.72022e-11
7.78949e-11
7.71018e-11
7.97154e-11
7.85151e-11
9.18901e-11
9.76991e-11
2.47827e-10
)
;

boundaryField
{
    fuel
    {
        type            fixedValue;
        value           uniform 0;
    }
    wall
    {
        type            zeroGradient;
    }
    outlet
    {
        type            zeroGradient;
    }
    frontAndBack
    {
        type            empty;
    }
    procBoundary3to0
    {
        type            processor;
        value           nonuniform List<scalar> 10(7.36723e-11 7.39361e-11 7.35473e-11 7.42283e-11 7.34573e-11 7.59497e-11 7.47987e-11 8.65153e-11 9.21527e-11 2.35651e-10);
    }
    procBoundary3to2
    {
        type            processor;
        value           nonuniform List<scalar> 
25
(
8.66395e-07
8.95467e-08
1.15576e-08
2.35076e-09
8.44582e-10
4.61326e-10
3.10425e-10
2.44206e-10
2.04784e-10
1.8195e-10
1.63508e-10
1.63508e-10
1.52466e-10
1.4229e-10
1.33522e-10
1.25721e-10
1.18645e-10
1.12145e-10
1.06115e-10
1.0047e-10
9.51389e-11
9.00506e-11
8.58009e-11
8.17382e-11
7.74579e-11
)
;
    }
}


// ************************************************************************* //
