/*--------------------------------*- C++ -*----------------------------------*\
| =========                 |                                                 |
| \\      /  F ield         | OpenFOAM: The Open Source CFD Toolbox           |
|  \\    /   O peration     | Version:  dev                                   |
|   \\  /    A nd           | Web:      www.OpenFOAM.org                      |
|    \\/     M anipulation  |                                                 |
\*---------------------------------------------------------------------------*/
FoamFile
{
    version     2.0;
    format      ascii;
    class       volScalarField;
    location    "0.075";
    object      N2;
}
// * * * * * * * * * * * * * * * * * * * * * * * * * * * * * * * * * * * * * //

dimensions      [0 0 0 0 0 0 0];

internalField   nonuniform List<scalar> 
25
(
0.460316
0.473351
0.486775
0.500809
0.515478
0.530258
0.545612
0.561536
0.578081
0.595186
0.612913
0.631315
0.650441
0.670348
0.6911
0.712768
0.735432
0.759179
0.78411
0.810347
0.838038
0.867359
0.898465
0.930876
0.959558
)
;

boundaryField
{
    wall
    {
        type            zeroGradient;
    }
    fuel
    {
        type            fixedValue;
        value           nonuniform 0();
    }
    outlet
    {
        type            inletOutlet;
        inletValue      uniform 1;
        value           uniform 0.959558;
    }
    procBoundary3to2
    {
        type            processor;
        value           uniform 0.447668;
    }
}


// ************************************************************************* //
