/*--------------------------------*- C++ -*----------------------------------*\
| =========                 |                                                 |
| \\      /  F ield         | OpenFOAM: The Open Source CFD Toolbox           |
|  \\    /   O peration     | Version:  dev                                   |
|   \\  /    A nd           | Web:      www.OpenFOAM.org                      |
|    \\/     M anipulation  |                                                 |
\*---------------------------------------------------------------------------*/
FoamFile
{
    version     2.0;
    format      ascii;
    class       volScalarField;
    location    "0.075";
    object      OH;
}
// * * * * * * * * * * * * * * * * * * * * * * * * * * * * * * * * * * * * * //

dimensions      [0 0 0 0 0 0 0];

internalField   nonuniform List<scalar> 
1989
(
1.88131e-06
1.87985e-06
1.87915e-06
1.87821e-06
1.87794e-06
1.87735e-06
1.87727e-06
1.87691e-06
1.87691e-06
1.8767e-06
1.87673e-06
1.87661e-06
1.87663e-06
1.87659e-06
1.87659e-06
1.87663e-06
1.87661e-06
1.87672e-06
1.8767e-06
1.87691e-06
1.87691e-06
1.87727e-06
1.87735e-06
1.87794e-06
1.87821e-06
1.87915e-06
1.87985e-06
1.88126e-06
1.88287e-06
1.8854e-06
1.88923e-06
1.89365e-06
1.90167e-06
1.90999e-06
1.92599e-06
1.94447e-06
1.96567e-06
2.00232e-06
2.02247e-06
1.79784e-06
1.77891e-06
1.74501e-06
1.72556e-06
1.70872e-06
1.69426e-06
1.68668e-06
1.6794e-06
1.67543e-06
1.67193e-06
1.66977e-06
1.66826e-06
1.66694e-06
1.66632e-06
1.66546e-06
1.66523e-06
1.66469e-06
1.66463e-06
1.66429e-06
1.6643e-06
1.66411e-06
1.66413e-06
1.66403e-06
1.66405e-06
1.66401e-06
1.66401e-06
1.66405e-06
1.66403e-06
1.66413e-06
1.6641e-06
1.6643e-06
1.6643e-06
1.66463e-06
1.66469e-06
1.66523e-06
1.66547e-06
1.66632e-06
1.66694e-06
1.66821e-06
1.66967e-06
1.67198e-06
1.67544e-06
1.6794e-06
1.68668e-06
1.69426e-06
1.7087e-06
1.72555e-06
1.745e-06
1.77888e-06
1.79781e-06
1.59103e-06
1.57342e-06
1.54211e-06
1.52441e-06
1.5091e-06
1.49614e-06
1.48926e-06
1.4827e-06
1.47916e-06
1.47601e-06
1.47405e-06
1.4727e-06
1.47151e-06
1.47096e-06
1.47018e-06
1.46998e-06
1.46949e-06
1.46944e-06
1.46914e-06
1.46915e-06
1.46897e-06
1.469e-06
1.4689e-06
1.46892e-06
1.46889e-06
1.46889e-06
1.46892e-06
1.4689e-06
1.469e-06
1.46897e-06
1.46915e-06
1.46914e-06
1.46944e-06
1.46949e-06
1.46998e-06
1.47018e-06
1.47096e-06
1.4715e-06
1.47264e-06
1.47395e-06
1.47605e-06
1.47917e-06
1.48269e-06
1.48926e-06
1.49613e-06
1.50908e-06
1.52439e-06
1.5421e-06
1.5734e-06
1.59101e-06
1.40158e-06
1.38531e-06
1.35637e-06
1.34039e-06
1.32666e-06
1.315e-06
1.30886e-06
1.30293e-06
1.2998e-06
1.29698e-06
1.29522e-06
1.29401e-06
1.29294e-06
1.29246e-06
1.29176e-06
1.29158e-06
1.29114e-06
1.2911e-06
1.29083e-06
1.29084e-06
1.29068e-06
1.29071e-06
1.29062e-06
1.29064e-06
1.29061e-06
1.29061e-06
1.29064e-06
1.29062e-06
1.2907e-06
1.29068e-06
1.29084e-06
1.29083e-06
1.2911e-06
1.29114e-06
1.29158e-06
1.29176e-06
1.29246e-06
1.29294e-06
1.29396e-06
1.29512e-06
1.29702e-06
1.29981e-06
1.30293e-06
1.30886e-06
1.31499e-06
1.32664e-06
1.34038e-06
1.35636e-06
1.38529e-06
1.40156e-06
1.22587e-06
1.21094e-06
1.18715e-06
1.17281e-06
1.16071e-06
1.15018e-06
1.1448e-06
1.13945e-06
1.1367e-06
1.13417e-06
1.13261e-06
1.13153e-06
1.13058e-06
1.13015e-06
1.12953e-06
1.12938e-06
1.12898e-06
1.12895e-06
1.12871e-06
1.12872e-06
1.12858e-06
1.12861e-06
1.12853e-06
1.12854e-06
1.12852e-06
1.12852e-06
1.12854e-06
1.12853e-06
1.1286e-06
1.12858e-06
1.12872e-06
1.12871e-06
1.12895e-06
1.12898e-06
1.12938e-06
1.12953e-06
1.13016e-06
1.13057e-06
1.13148e-06
1.13251e-06
1.13422e-06
1.13671e-06
1.13945e-06
1.1448e-06
1.15018e-06
1.16069e-06
1.1728e-06
1.18714e-06
1.21092e-06
1.22585e-06
1.06899e-06
1.05547e-06
1.033e-06
1.01981e-06
1.00889e-06
9.99244e-07
9.94446e-07
9.89558e-07
9.87103e-07
9.84824e-07
9.83411e-07
9.82437e-07
9.81587e-07
9.81212e-07
9.80649e-07
9.80518e-07
9.8016e-07
9.80136e-07
9.79914e-07
9.79932e-07
9.79801e-07
9.79827e-07
9.79756e-07
9.79773e-07
9.79749e-07
9.79748e-07
9.79772e-07
9.79754e-07
9.79825e-07
9.79799e-07
9.79931e-07
9.79915e-07
9.80138e-07
9.80161e-07
9.8052e-07
9.80651e-07
9.81212e-07
9.81583e-07
9.82399e-07
9.83315e-07
9.84869e-07
9.87108e-07
9.89552e-07
9.94442e-07
9.99237e-07
1.00887e-06
1.0198e-06
1.03299e-06
1.05545e-06
1.06897e-06
9.27314e-07
9.15059e-07
8.94757e-07
8.82969e-07
8.73433e-07
8.64813e-07
8.60652e-07
8.56279e-07
8.54145e-07
8.52131e-07
8.50882e-07
8.50022e-07
8.49276e-07
8.48953e-07
8.48455e-07
8.48346e-07
8.48029e-07
8.48013e-07
8.47816e-07
8.47834e-07
8.47718e-07
8.47742e-07
8.47679e-07
8.47694e-07
8.47673e-07
8.47673e-07
8.47694e-07
8.47677e-07
8.4774e-07
8.47716e-07
8.47833e-07
8.47816e-07
8.48014e-07
8.4803e-07
8.48348e-07
8.48458e-07
8.48954e-07
8.49273e-07
8.49991e-07
8.50794e-07
8.52171e-07
8.54149e-07
8.56274e-07
8.60648e-07
8.64806e-07
8.7342e-07
8.82958e-07
8.94749e-07
9.15043e-07
9.27297e-07
7.98701e-07
7.87443e-07
7.69295e-07
7.58653e-07
7.50314e-07
7.42633e-07
7.3902e-07
7.35119e-07
7.33262e-07
7.31487e-07
7.30385e-07
7.29627e-07
7.28977e-07
7.28698e-07
7.28262e-07
7.2817e-07
7.27892e-07
7.2788e-07
7.27707e-07
7.27724e-07
7.27622e-07
7.27644e-07
7.27589e-07
7.27603e-07
7.27584e-07
7.27584e-07
7.27603e-07
7.27588e-07
7.27643e-07
7.27621e-07
7.27724e-07
7.27707e-07
7.27881e-07
7.27892e-07
7.28172e-07
7.28264e-07
7.28699e-07
7.28975e-07
7.29602e-07
7.30311e-07
7.31517e-07
7.33265e-07
7.35114e-07
7.39016e-07
7.42626e-07
7.50302e-07
7.58642e-07
7.69286e-07
7.87429e-07
7.98686e-07
6.82489e-07
6.72408e-07
6.56538e-07
6.47012e-07
6.39836e-07
6.33117e-07
6.30026e-07
6.26606e-07
6.25015e-07
6.23476e-07
6.22516e-07
6.21859e-07
6.21302e-07
6.21065e-07
6.20687e-07
6.20612e-07
6.20371e-07
6.20363e-07
6.20213e-07
6.2023e-07
6.20141e-07
6.20161e-07
6.20113e-07
6.20126e-07
6.2011e-07
6.20109e-07
6.20125e-07
6.20112e-07
6.2016e-07
6.2014e-07
6.20229e-07
6.20213e-07
6.20364e-07
6.20372e-07
6.20613e-07
6.20689e-07
6.21065e-07
6.213e-07
6.21839e-07
6.22458e-07
6.23496e-07
6.25017e-07
6.26602e-07
6.30022e-07
6.3311e-07
6.39825e-07
6.47003e-07
6.56531e-07
6.72396e-07
6.82476e-07
5.79279e-07
5.70298e-07
5.56616e-07
5.4805e-07
5.4192e-07
5.36095e-07
5.33474e-07
5.30502e-07
5.29149e-07
5.27826e-07
5.26996e-07
5.26435e-07
5.25959e-07
5.25758e-07
5.25436e-07
5.25374e-07
5.25168e-07
5.25163e-07
5.25034e-07
5.2505e-07
5.24974e-07
5.24992e-07
5.24951e-07
5.24962e-07
5.24948e-07
5.24948e-07
5.24961e-07
5.2495e-07
5.24991e-07
5.24973e-07
5.2505e-07
5.25035e-07
5.25164e-07
5.25168e-07
5.25375e-07
5.25437e-07
5.25759e-07
5.25957e-07
5.26418e-07
5.26954e-07
5.27836e-07
5.29151e-07
5.30497e-07
5.3347e-07
5.36088e-07
5.4191e-07
5.48042e-07
5.56609e-07
5.70288e-07
5.79268e-07
4.88169e-07
4.80241e-07
4.68518e-07
4.623e-07
4.57087e-07
4.52029e-07
4.4983e-07
4.47242e-07
4.46103e-07
4.44964e-07
4.44249e-07
4.43775e-07
4.43367e-07
4.432e-07
4.42923e-07
4.42874e-07
4.42698e-07
4.42697e-07
4.42586e-07
4.42601e-07
4.42536e-07
4.42552e-07
4.42517e-07
4.42527e-07
4.42515e-07
4.42515e-07
4.42526e-07
4.42516e-07
4.42551e-07
4.42535e-07
4.42601e-07
4.42586e-07
4.42698e-07
4.42698e-07
4.42876e-07
4.42925e-07
4.43201e-07
4.43366e-07
4.43762e-07
4.44221e-07
4.44965e-07
4.46103e-07
4.47238e-07
4.49826e-07
4.52023e-07
4.57078e-07
4.62293e-07
4.68512e-07
4.80233e-07
4.88159e-07
4.09537e-07
4.02587e-07
3.92505e-07
3.87075e-07
3.82672e-07
3.78152e-07
3.7624e-07
3.73924e-07
3.72934e-07
3.71929e-07
3.71298e-07
3.70885e-07
3.70526e-07
3.70381e-07
3.70137e-07
3.70098e-07
3.69943e-07
3.69944e-07
3.69847e-07
3.69861e-07
3.69804e-07
3.69819e-07
3.69788e-07
3.69797e-07
3.69786e-07
3.69786e-07
3.69796e-07
3.69787e-07
3.69818e-07
3.69803e-07
3.69861e-07
3.69847e-07
3.69945e-07
3.69943e-07
3.70099e-07
3.70139e-07
3.70382e-07
3.70525e-07
3.70875e-07
3.71276e-07
3.71925e-07
3.72934e-07
3.7392e-07
3.76236e-07
3.78147e-07
3.82665e-07
3.87069e-07
3.92499e-07
4.0258e-07
4.09529e-07
3.39957e-07
3.33824e-07
3.25102e-07
3.20464e-07
3.16783e-07
3.12936e-07
3.11348e-07
3.0937e-07
3.08545e-07
3.07694e-07
3.07161e-07
3.06817e-07
3.06514e-07
3.06393e-07
3.06187e-07
3.06156e-07
3.06027e-07
3.0603e-07
3.05949e-07
3.05962e-07
3.05914e-07
3.05927e-07
3.05901e-07
3.05909e-07
3.059e-07
3.059e-07
3.05908e-07
3.059e-07
3.05926e-07
3.05913e-07
3.05962e-07
3.05949e-07
3.06031e-07
3.06028e-07
3.06157e-07
3.06189e-07
3.06394e-07
3.06513e-07
3.06809e-07
3.07147e-07
3.07687e-07
3.08544e-07
3.09366e-07
3.11345e-07
3.12931e-07
3.16776e-07
3.20458e-07
3.25097e-07
3.33817e-07
3.39949e-07
2.79333e-07
2.74027e-07
2.66712e-07
2.62773e-07
2.59723e-07
2.56483e-07
2.55178e-07
2.53503e-07
2.52823e-07
2.52108e-07
2.51664e-07
2.51379e-07
2.51125e-07
2.51025e-07
2.50853e-07
2.50829e-07
2.50722e-07
2.50727e-07
2.5066e-07
2.50672e-07
2.50632e-07
2.50644e-07
2.50622e-07
2.50629e-07
2.50621e-07
2.50621e-07
2.50628e-07
2.50621e-07
2.50643e-07
2.50631e-07
2.50672e-07
2.5066e-07
2.50727e-07
2.50723e-07
2.50829e-07
2.50854e-07
2.51026e-07
2.51124e-07
2.51373e-07
2.51655e-07
2.52101e-07
2.52821e-07
2.535e-07
2.55175e-07
2.56479e-07
2.59718e-07
2.62768e-07
2.66708e-07
2.74022e-07
2.79326e-07
2.27975e-07
2.23374e-07
2.17309e-07
2.13959e-07
2.11453e-07
2.08725e-07
2.07667e-07
2.0625e-07
2.05695e-07
2.05094e-07
2.04731e-07
2.04494e-07
2.04282e-07
2.042e-07
2.04054e-07
2.04036e-07
2.03949e-07
2.03955e-07
2.03901e-07
2.03912e-07
2.0388e-07
2.0389e-07
2.03872e-07
2.03878e-07
2.03872e-07
2.03872e-07
2.03878e-07
2.03872e-07
2.0389e-07
2.03879e-07
2.03912e-07
2.03901e-07
2.03956e-07
2.0395e-07
2.04036e-07
2.04055e-07
2.042e-07
2.04281e-07
2.04489e-07
2.04723e-07
2.05088e-07
2.05693e-07
2.06247e-07
2.07664e-07
2.08722e-07
2.11449e-07
2.13955e-07
2.17305e-07
2.2337e-07
2.27969e-07
1.84009e-07
1.80113e-07
1.7514e-07
1.72307e-07
1.70271e-07
1.67998e-07
1.67151e-07
1.65963e-07
1.65515e-07
1.65015e-07
1.6472e-07
1.64525e-07
1.6435e-07
1.64284e-07
1.64161e-07
1.64141e-07
1.64055e-07
1.64053e-07
1.63999e-07
1.64005e-07
1.63974e-07
1.63981e-07
1.63964e-07
1.63969e-07
1.63963e-07
1.63963e-07
1.63968e-07
1.63963e-07
1.6398e-07
1.63973e-07
1.64005e-07
1.63999e-07
1.64053e-07
1.64055e-07
1.64141e-07
1.64162e-07
1.64284e-07
1.6435e-07
1.64522e-07
1.64714e-07
1.65011e-07
1.65513e-07
1.6596e-07
1.67149e-07
1.67995e-07
1.70267e-07
1.72304e-07
1.75137e-07
1.80109e-07
1.84005e-07
1.46736e-07
1.43473e-07
1.39438e-07
1.3708e-07
1.35446e-07
1.33574e-07
1.32906e-07
1.3192e-07
1.31562e-07
1.31152e-07
1.30915e-07
1.30757e-07
1.30613e-07
1.3056e-07
1.30458e-07
1.30441e-07
1.30371e-07
1.30371e-07
1.30327e-07
1.30332e-07
1.30307e-07
1.30313e-07
1.30299e-07
1.30303e-07
1.30298e-07
1.30298e-07
1.30303e-07
1.30298e-07
1.30312e-07
1.30306e-07
1.30332e-07
1.30327e-07
1.30371e-07
1.30371e-07
1.30441e-07
1.30459e-07
1.3056e-07
1.30613e-07
1.30754e-07
1.3091e-07
1.31148e-07
1.31561e-07
1.31918e-07
1.32903e-07
1.33571e-07
1.35443e-07
1.37077e-07
1.39436e-07
1.4347e-07
1.46733e-07
1.15443e-07
1.1274e-07
1.09507e-07
1.07583e-07
1.06291e-07
1.04768e-07
1.0425e-07
1.03442e-07
1.03161e-07
1.02827e-07
1.0264e-07
1.02513e-07
1.02397e-07
1.02355e-07
1.02271e-07
1.02258e-07
1.02202e-07
1.02202e-07
1.02167e-07
1.02172e-07
1.02151e-07
1.02156e-07
1.02145e-07
1.02148e-07
1.02145e-07
1.02145e-07
1.02148e-07
1.02145e-07
1.02156e-07
1.02151e-07
1.02172e-07
1.02167e-07
1.02202e-07
1.02202e-07
1.02258e-07
1.02272e-07
1.02355e-07
1.02397e-07
1.02511e-07
1.02636e-07
1.02825e-07
1.03159e-07
1.03441e-07
1.04248e-07
1.04766e-07
1.06288e-07
1.07581e-07
1.09505e-07
1.12738e-07
1.1544e-07
8.94541e-08
8.72442e-08
8.46267e-08
8.29731e-08
8.19513e-08
8.0723e-08
8.03212e-08
7.96646e-08
7.9442e-08
7.91737e-08
7.90259e-08
7.89241e-08
7.88321e-08
7.87984e-08
7.87314e-08
7.87214e-08
7.86765e-08
7.86773e-08
7.86491e-08
7.86535e-08
7.86369e-08
7.86413e-08
7.86323e-08
7.8635e-08
7.8632e-08
7.86319e-08
7.86349e-08
7.8632e-08
7.8641e-08
7.86365e-08
7.86533e-08
7.86491e-08
7.86774e-08
7.86765e-08
7.87216e-08
7.87317e-08
7.87985e-08
7.88319e-08
7.89229e-08
7.90231e-08
7.91715e-08
7.94408e-08
7.96631e-08
8.03197e-08
8.07212e-08
8.19493e-08
8.29712e-08
8.46247e-08
8.72422e-08
8.94517e-08
6.81389e-08
6.63576e-08
6.43134e-08
6.30029e-08
6.222e-08
6.12512e-08
6.0951e-08
6.04281e-08
6.02567e-08
6.00454e-08
5.99317e-08
5.98522e-08
5.97805e-08
5.97546e-08
5.97019e-08
5.96948e-08
5.96596e-08
5.96608e-08
5.96387e-08
5.96425e-08
5.96295e-08
5.96331e-08
5.9626e-08
5.96282e-08
5.96258e-08
5.96258e-08
5.96281e-08
5.96258e-08
5.96328e-08
5.96291e-08
5.96423e-08
5.96387e-08
5.96609e-08
5.96597e-08
5.96949e-08
5.97021e-08
5.97547e-08
5.97803e-08
5.98513e-08
5.99297e-08
6.00437e-08
6.02557e-08
6.04269e-08
6.09498e-08
6.12498e-08
6.22185e-08
6.30014e-08
6.43119e-08
6.63559e-08
6.8137e-08
5.09073e-08
4.94939e-08
4.79273e-08
4.69104e-08
4.63236e-08
4.55745e-08
4.53558e-08
4.49473e-08
4.48171e-08
4.46537e-08
4.45681e-08
4.4507e-08
4.44523e-08
4.4433e-08
4.43924e-08
4.43875e-08
4.43606e-08
4.43619e-08
4.43449e-08
4.4348e-08
4.4338e-08
4.43409e-08
4.43355e-08
4.43372e-08
4.43354e-08
4.43354e-08
4.43372e-08
4.43353e-08
4.43408e-08
4.43378e-08
4.43479e-08
4.43449e-08
4.4362e-08
4.43606e-08
4.43876e-08
4.43925e-08
4.4433e-08
4.44522e-08
4.45064e-08
4.45666e-08
4.46524e-08
4.48162e-08
4.49464e-08
4.53548e-08
4.55734e-08
4.63224e-08
4.69093e-08
4.79261e-08
4.94927e-08
5.09058e-08
3.7211e-08
3.61085e-08
3.4934e-08
3.41456e-08
3.37057e-08
3.31274e-08
3.2969e-08
3.26513e-08
3.25514e-08
3.24259e-08
3.23616e-08
3.23147e-08
3.22735e-08
3.22591e-08
3.22281e-08
3.22248e-08
3.22043e-08
3.22056e-08
3.21926e-08
3.21952e-08
3.21875e-08
3.21899e-08
3.21857e-08
3.21871e-08
3.21856e-08
3.21856e-08
3.2187e-08
3.21855e-08
3.21897e-08
3.21873e-08
3.21951e-08
3.21926e-08
3.22056e-08
3.22043e-08
3.22249e-08
3.22282e-08
3.22591e-08
3.22734e-08
3.23144e-08
3.23606e-08
3.24248e-08
3.25507e-08
3.26506e-08
3.29682e-08
3.31265e-08
3.37048e-08
3.41447e-08
3.49332e-08
3.61075e-08
3.72098e-08
2.653e-08
2.57034e-08
2.48433e-08
2.42578e-08
2.39437e-08
2.35161e-08
2.34076e-08
2.31706e-08
2.30956e-08
2.30028e-08
2.29565e-08
2.2922e-08
2.28921e-08
2.28819e-08
2.28592e-08
2.28571e-08
2.28421e-08
2.28432e-08
2.28337e-08
2.28357e-08
2.28301e-08
2.28319e-08
2.28288e-08
2.28299e-08
2.28288e-08
2.28288e-08
2.28298e-08
2.28287e-08
2.28318e-08
2.28299e-08
2.28356e-08
2.28337e-08
2.28433e-08
2.28421e-08
2.28572e-08
2.28593e-08
2.28819e-08
2.2892e-08
2.29218e-08
2.29559e-08
2.3002e-08
2.30951e-08
2.317e-08
2.3407e-08
2.35155e-08
2.39431e-08
2.42571e-08
2.48427e-08
2.57027e-08
2.65292e-08
1.83951e-08
1.77723e-08
1.71495e-08
1.67201e-08
1.64986e-08
1.61891e-08
1.61155e-08
1.5943e-08
1.58854e-08
1.58182e-08
1.57856e-08
1.57605e-08
1.57394e-08
1.57322e-08
1.5716e-08
1.57147e-08
1.57039e-08
1.57049e-08
1.5698e-08
1.56995e-08
1.56955e-08
1.56968e-08
1.56946e-08
1.56954e-08
1.56946e-08
1.56946e-08
1.56953e-08
1.56945e-08
1.56967e-08
1.56954e-08
1.56995e-08
1.5698e-08
1.57049e-08
1.57039e-08
1.57147e-08
1.57161e-08
1.57322e-08
1.57393e-08
1.57604e-08
1.57851e-08
1.58177e-08
1.5885e-08
1.59426e-08
1.6115e-08
1.61887e-08
1.64981e-08
1.67196e-08
1.7149e-08
1.77718e-08
1.83944e-08
1.23798e-08
1.19351e-08
1.15069e-08
1.1207e-08
1.10588e-08
1.08439e-08
1.07973e-08
1.0677e-08
1.0632e-08
1.05851e-08
1.05632e-08
1.05457e-08
1.05313e-08
1.05266e-08
1.05154e-08
1.05146e-08
1.05072e-08
1.0508e-08
1.05032e-08
1.05043e-08
1.05015e-08
1.05025e-08
1.0501e-08
1.05015e-08
1.0501e-08
1.0501e-08
1.05015e-08
1.05009e-08
1.05024e-08
1.05015e-08
1.05043e-08
1.05032e-08
1.0508e-08
1.05072e-08
1.05147e-08
1.05155e-08
1.05266e-08
1.05313e-08
1.05457e-08
1.05629e-08
1.05847e-08
1.06317e-08
1.06767e-08
1.07971e-08
1.08436e-08
1.10585e-08
1.12066e-08
1.15066e-08
1.19347e-08
1.23794e-08
8.06704e-09
7.75665e-09
7.46791e-09
7.26e-09
7.16201e-09
7.01549e-09
6.98645e-09
6.90459e-09
6.88902e-09
6.85745e-09
6.84336e-09
6.83157e-09
6.82214e-09
6.81908e-09
6.81166e-09
6.81125e-09
6.8063e-09
6.80687e-09
6.80371e-09
6.80448e-09
6.80262e-09
6.80327e-09
6.80225e-09
6.80262e-09
6.80227e-09
6.80226e-09
6.8026e-09
6.80221e-09
6.80323e-09
6.80257e-09
6.80445e-09
6.80371e-09
6.80688e-09
6.8063e-09
6.81127e-09
6.8117e-09
6.81909e-09
6.82212e-09
6.83158e-09
6.84316e-09
6.8572e-09
6.88882e-09
6.9044e-09
6.98626e-09
7.01529e-09
7.1618e-09
7.25979e-09
7.46771e-09
7.7564e-09
8.06675e-09
5.04717e-09
4.86738e-09
4.68326e-09
4.54864e-09
4.48822e-09
4.39378e-09
4.37732e-09
4.32462e-09
4.31219e-09
4.29173e-09
4.28304e-09
4.2754e-09
4.26945e-09
4.26756e-09
4.26283e-09
4.26262e-09
4.25945e-09
4.25985e-09
4.25782e-09
4.25834e-09
4.25715e-09
4.25757e-09
4.25692e-09
4.25716e-09
4.25694e-09
4.25693e-09
4.25715e-09
4.25689e-09
4.25755e-09
4.25711e-09
4.25832e-09
4.25782e-09
4.25986e-09
4.25945e-09
4.26263e-09
4.26285e-09
4.26757e-09
4.26944e-09
4.27543e-09
4.2829e-09
4.29158e-09
4.31206e-09
4.3245e-09
4.37721e-09
4.39366e-09
4.48809e-09
4.54851e-09
4.68313e-09
4.86722e-09
5.04697e-09
3.05555e-09
2.94154e-09
2.82799e-09
2.74089e-09
2.70317e-09
2.64344e-09
2.63378e-09
2.60083e-09
2.60107e-09
2.58836e-09
2.58321e-09
2.57849e-09
2.57488e-09
2.57376e-09
2.57086e-09
2.57077e-09
2.56882e-09
2.56909e-09
2.56784e-09
2.56817e-09
2.56744e-09
2.5677e-09
2.5673e-09
2.56745e-09
2.56732e-09
2.56731e-09
2.56745e-09
2.56728e-09
2.56769e-09
2.56741e-09
2.56816e-09
2.56784e-09
2.56909e-09
2.56882e-09
2.57078e-09
2.57088e-09
2.57377e-09
2.57488e-09
2.57853e-09
2.58311e-09
2.58826e-09
2.60099e-09
2.60074e-09
2.63369e-09
2.64334e-09
2.70306e-09
2.74078e-09
2.82789e-09
2.94144e-09
3.05543e-09
1.77554e-09
1.70618e-09
1.63997e-09
1.58792e-09
1.5665e-09
1.53106e-09
1.52616e-09
1.50664e-09
1.50681e-09
1.49924e-09
1.49632e-09
1.49357e-09
1.49146e-09
1.49082e-09
1.48913e-09
1.48909e-09
1.48794e-09
1.48811e-09
1.48738e-09
1.48758e-09
1.48715e-09
1.48731e-09
1.48707e-09
1.48716e-09
1.48708e-09
1.48708e-09
1.48716e-09
1.48706e-09
1.4873e-09
1.48713e-09
1.48757e-09
1.48738e-09
1.48811e-09
1.48794e-09
1.48909e-09
1.48913e-09
1.49082e-09
1.49146e-09
1.49359e-09
1.49627e-09
1.49918e-09
1.50676e-09
1.50659e-09
1.52611e-09
1.53101e-09
1.56644e-09
1.58786e-09
1.63991e-09
1.70611e-09
1.77547e-09
9.86094e-10
9.45726e-10
9.09233e-10
8.79637e-10
8.68107e-10
8.48103e-10
8.45825e-10
8.34773e-10
8.34898e-10
8.30605e-10
8.29042e-10
8.27506e-10
8.2634e-10
8.25992e-10
8.25051e-10
8.25036e-10
8.24399e-10
8.24498e-10
8.24089e-10
8.24203e-10
8.23963e-10
8.24055e-10
8.23922e-10
8.23974e-10
8.23929e-10
8.23927e-10
8.23971e-10
8.23917e-10
8.24049e-10
8.23956e-10
8.24199e-10
8.2409e-10
8.245e-10
8.24399e-10
8.25039e-10
8.25056e-10
8.25993e-10
8.26339e-10
8.27516e-10
8.29017e-10
8.30576e-10
8.34872e-10
8.34743e-10
8.45795e-10
8.48071e-10
8.68072e-10
8.79602e-10
9.09201e-10
9.45691e-10
9.86053e-10
5.2165e-10
4.99128e-10
4.80422e-10
4.64509e-10
4.58677e-10
4.47998e-10
4.47054e-10
4.41111e-10
4.41216e-10
4.3891e-10
4.38125e-10
4.3731e-10
4.36704e-10
4.36523e-10
4.36031e-10
4.36026e-10
4.35691e-10
4.35745e-10
4.3553e-10
4.35591e-10
4.35465e-10
4.35513e-10
4.35444e-10
4.35471e-10
4.35447e-10
4.35447e-10
4.3547e-10
4.35441e-10
4.35511e-10
4.35461e-10
4.35589e-10
4.3553e-10
4.35746e-10
4.35691e-10
4.36027e-10
4.36033e-10
4.36524e-10
4.36704e-10
4.37315e-10
4.38113e-10
4.38895e-10
4.41202e-10
4.41095e-10
4.47038e-10
4.47982e-10
4.58659e-10
4.6449e-10
4.80405e-10
4.99109e-10
5.21628e-10
2.61686e-10
2.50831e-10
2.40914e-10
2.32975e-10
2.30187e-10
2.24903e-10
2.24525e-10
2.21555e-10
2.21621e-10
2.20469e-10
2.20098e-10
2.19695e-10
2.19401e-10
2.19311e-10
2.19071e-10
2.19068e-10
2.18905e-10
2.18931e-10
2.18826e-10
2.18856e-10
2.18794e-10
2.18818e-10
2.18784e-10
2.18797e-10
2.18786e-10
2.18785e-10
2.18797e-10
2.18782e-10
2.18816e-10
2.18792e-10
2.18854e-10
2.18826e-10
2.18931e-10
2.18905e-10
2.19069e-10
2.19073e-10
2.19311e-10
2.19401e-10
2.19697e-10
2.20093e-10
2.20462e-10
2.21615e-10
2.21547e-10
2.24518e-10
2.24895e-10
2.30178e-10
2.32966e-10
2.40906e-10
2.50822e-10
2.61675e-10
1.25352e-10
1.20839e-10
1.16317e-10
1.12571e-10
1.11331e-10
1.08854e-10
1.08732e-10
1.0732e-10
1.07366e-10
1.0682e-10
1.06656e-10
1.06468e-10
1.06333e-10
1.0629e-10
1.06181e-10
1.06179e-10
1.06104e-10
1.06116e-10
1.06067e-10
1.06081e-10
1.06053e-10
1.06064e-10
1.06048e-10
1.06054e-10
1.06049e-10
1.06049e-10
1.06054e-10
1.06047e-10
1.06063e-10
1.06052e-10
1.0608e-10
1.06067e-10
1.06116e-10
1.06104e-10
1.06179e-10
1.06181e-10
1.06291e-10
1.06333e-10
1.06468e-10
1.06654e-10
1.06816e-10
1.07363e-10
1.07317e-10
1.08728e-10
1.0885e-10
1.11327e-10
1.12567e-10
1.16313e-10
1.20834e-10
1.25347e-10
5.85421e-11
5.6492e-11
5.45367e-11
5.28362e-11
5.23042e-11
5.11921e-11
5.11576e-11
5.0515e-11
5.05412e-11
5.0293e-11
5.02241e-11
5.0139e-11
5.00804e-11
5.00605e-11
5.00125e-11
5.00112e-11
4.99783e-11
4.99832e-11
4.99621e-11
4.99679e-11
4.99556e-11
4.99602e-11
4.99534e-11
4.99561e-11
4.99538e-11
4.99537e-11
4.9956e-11
4.99531e-11
4.996e-11
4.99552e-11
4.99676e-11
4.99621e-11
4.99834e-11
4.99783e-11
5.00113e-11
5.00128e-11
5.00606e-11
5.00803e-11
5.01393e-11
5.02233e-11
5.02916e-11
5.05398e-11
5.05134e-11
5.1156e-11
5.11905e-11
5.23024e-11
5.28343e-11
5.45349e-11
5.64899e-11
5.85397e-11
2.67428e-11
2.58436e-11
2.5035e-11
2.42995e-11
2.40811e-11
2.36034e-11
2.35967e-11
2.33161e-11
2.33302e-11
2.32219e-11
2.31942e-11
2.31571e-11
2.31327e-11
2.31237e-11
2.31037e-11
2.31028e-11
2.3089e-11
2.30909e-11
2.3082e-11
2.30844e-11
2.30792e-11
2.30811e-11
2.30783e-11
2.30794e-11
2.30784e-11
2.30784e-11
2.30793e-11
2.30781e-11
2.3081e-11
2.3079e-11
2.30843e-11
2.3082e-11
2.30909e-11
2.3089e-11
2.31028e-11
2.31038e-11
2.31237e-11
2.31327e-11
2.31572e-11
2.31939e-11
2.32213e-11
2.33297e-11
2.33155e-11
2.3596e-11
2.36027e-11
2.40803e-11
2.42987e-11
2.50342e-11
2.58427e-11
2.67417e-11
1.18167e-11
1.14331e-11
1.11094e-11
1.08002e-11
1.0713e-11
1.05137e-11
1.05139e-11
1.03949e-11
1.04021e-11
1.0356e-11
1.03454e-11
1.03295e-11
1.03197e-11
1.03157e-11
1.03076e-11
1.0307e-11
1.03015e-11
1.03021e-11
1.02985e-11
1.02994e-11
1.02974e-11
1.02981e-11
1.02969e-11
1.02974e-11
1.0297e-11
1.0297e-11
1.02974e-11
1.02969e-11
1.0298e-11
1.02973e-11
1.02994e-11
1.02985e-11
1.03021e-11
1.03015e-11
1.0307e-11
1.03077e-11
1.03157e-11
1.03197e-11
1.03295e-11
1.03452e-11
1.03558e-11
1.04019e-11
1.03946e-11
1.05137e-11
1.05134e-11
1.07127e-11
1.07999e-11
1.11091e-11
1.14327e-11
1.18162e-11
4.82729e-12
4.67287e-12
4.55111e-12
4.42849e-12
4.39571e-12
4.31743e-12
4.31863e-12
4.2711e-12
4.27446e-12
4.25598e-12
4.25218e-12
4.24576e-12
4.24213e-12
4.24037e-12
4.23735e-12
4.237e-12
4.23492e-12
4.2351e-12
4.23376e-12
4.23405e-12
4.23328e-12
4.23354e-12
4.23311e-12
4.23328e-12
4.23312e-12
4.23312e-12
4.23326e-12
4.23309e-12
4.23352e-12
4.23325e-12
4.23404e-12
4.23376e-12
4.23511e-12
4.23492e-12
4.23701e-12
4.23737e-12
4.24038e-12
4.24212e-12
4.24577e-12
4.25214e-12
4.2559e-12
4.27437e-12
4.27099e-12
4.31852e-12
4.31732e-12
4.39559e-12
4.42835e-12
4.55099e-12
4.67268e-12
4.82712e-12
1.67653e-12
1.62284e-12
1.58341e-12
1.54148e-12
1.53085e-12
1.50436e-12
1.50508e-12
1.48877e-12
1.49008e-12
1.48369e-12
1.48255e-12
1.48029e-12
1.47914e-12
1.47848e-12
1.47752e-12
1.47736e-12
1.47669e-12
1.47672e-12
1.47629e-12
1.47637e-12
1.47613e-12
1.4762e-12
1.47606e-12
1.47611e-12
1.47606e-12
1.47606e-12
1.47611e-12
1.47606e-12
1.47619e-12
1.47612e-12
1.47636e-12
1.47629e-12
1.47672e-12
1.47669e-12
1.47736e-12
1.47753e-12
1.47849e-12
1.47914e-12
1.4803e-12
1.48253e-12
1.48367e-12
1.49005e-12
1.48873e-12
1.50504e-12
1.50432e-12
1.5308e-12
1.54143e-12
1.58337e-12
1.62276e-12
1.67648e-12
4.29081e-13
4.154e-13
4.06078e-13
3.95596e-13
3.93054e-13
3.86501e-13
3.86731e-13
3.82653e-13
3.83013e-13
3.814e-13
3.81147e-13
3.80567e-13
3.80303e-13
3.8012e-13
3.79897e-13
3.79843e-13
3.79689e-13
3.79687e-13
3.79588e-13
3.79602e-13
3.79546e-13
3.79561e-13
3.7953e-13
3.7954e-13
3.79529e-13
3.79528e-13
3.79539e-13
3.79528e-13
3.79559e-13
3.79543e-13
3.796e-13
3.79588e-13
3.79688e-13
3.79689e-13
3.79844e-13
3.79899e-13
3.80121e-13
3.80303e-13
3.80567e-13
3.81145e-13
3.81394e-13
3.83006e-13
3.82644e-13
3.86721e-13
3.86491e-13
3.93043e-13
3.95585e-13
4.06068e-13
4.15377e-13
4.29072e-13
6.47012e-14
6.2748e-14
6.15191e-14
6.00663e-14
5.97165e-14
5.88153e-14
5.8844e-14
5.82815e-14
5.83311e-14
5.81051e-14
5.80728e-14
5.79892e-14
5.79553e-14
5.79271e-14
5.78983e-14
5.78887e-14
5.78689e-14
5.78671e-14
5.78545e-14
5.78555e-14
5.78483e-14
5.78499e-14
5.78459e-14
5.78472e-14
5.78456e-14
5.78455e-14
5.7847e-14
5.78456e-14
5.78497e-14
5.78479e-14
5.78552e-14
5.78545e-14
5.78672e-14
5.78688e-14
5.78888e-14
5.78985e-14
5.79272e-14
5.79552e-14
5.79892e-14
5.80724e-14
5.81043e-14
5.83301e-14
5.82802e-14
5.88427e-14
5.88139e-14
5.9715e-14
6.00648e-14
6.15177e-14
6.27436e-14
6.47012e-14
)
;

boundaryField
{
    fuel
    {
        type            fixedValue;
        value           nonuniform 0();
    }
    wall
    {
        type            zeroGradient;
    }
    outlet
    {
        type            zeroGradient;
    }
    frontAndBack
    {
        type            empty;
    }
    procBoundary3to2
    {
        type            processor;
        value           nonuniform List<scalar> 
51
(
2.11236e-06
2.11076e-06
2.10998e-06
2.10894e-06
2.10864e-06
2.10799e-06
2.1079e-06
2.1075e-06
2.10751e-06
2.10727e-06
2.1073e-06
2.10717e-06
2.10719e-06
2.10715e-06
2.10715e-06
2.10719e-06
2.10717e-06
2.1073e-06
2.10727e-06
2.1075e-06
2.1075e-06
2.1079e-06
2.10799e-06
2.10865e-06
2.10895e-06
2.10998e-06
2.11076e-06
2.11231e-06
2.1141e-06
2.11686e-06
2.12107e-06
2.12598e-06
2.13477e-06
2.14386e-06
2.16147e-06
2.18168e-06
2.20459e-06
2.24415e-06
2.26542e-06
2.02249e-06
2.00233e-06
1.96567e-06
1.94448e-06
1.926e-06
1.91e-06
1.90167e-06
1.89365e-06
1.88922e-06
1.88536e-06
1.88297e-06
1.88297e-06
)
;
    }
}


// ************************************************************************* //
