/*--------------------------------*- C++ -*----------------------------------*\
| =========                 |                                                 |
| \\      /  F ield         | OpenFOAM: The Open Source CFD Toolbox           |
|  \\    /   O peration     | Version:  dev                                   |
|   \\  /    A nd           | Web:      www.OpenFOAM.org                      |
|    \\/     M anipulation  |                                                 |
\*---------------------------------------------------------------------------*/
FoamFile
{
    version     2.0;
    format      ascii;
    class       volScalarField;
    location    "0.075";
    object      T;
}
// * * * * * * * * * * * * * * * * * * * * * * * * * * * * * * * * * * * * * //

dimensions      [0 0 0 1 0 0 0];

internalField   nonuniform List<scalar> 
25
(
1443.91
1415.32
1386.08
1355.84
1324.51
1293.04
1260.64
1227.3
1192.96
1157.69
1121.38
1083.96
1045.34
1005.41
964.05
921.113
876.402
829.697
780.749
729.262
674.891
617.279
556.344
493.964
441.704
)
;

boundaryField
{
    wall
    {
        type            zeroGradient;
    }
    fuel
    {
        type            fixedValue;
        value           nonuniform 0();
    }
    outlet
    {
        type            inletOutlet;
        inletValue      uniform 353;
        value           uniform 431.132;
    }
    procBoundary3to2
    {
        type            processor;
        value           uniform 1471.86;
    }
}


// ************************************************************************* //
