/*--------------------------------*- C++ -*----------------------------------*\
| =========                 |                                                 |
| \\      /  F ield         | OpenFOAM: The Open Source CFD Toolbox           |
|  \\    /   O peration     | Version:  dev                                   |
|   \\  /    A nd           | Web:      www.OpenFOAM.org                      |
|    \\/     M anipulation  |                                                 |
\*---------------------------------------------------------------------------*/
FoamFile
{
    version     2.0;
    format      ascii;
    class       volVectorField;
    location    "0.075";
    object      U;
}
// * * * * * * * * * * * * * * * * * * * * * * * * * * * * * * * * * * * * * //

dimensions      [0 1 -1 0 0 0 0];

internalField   nonuniform List<vector> 
250
(
(0 -0.0149283 0.50789)
(0 0.0219191 0.508146)
(0 -0.013445 0.507673)
(0 0.0543162 0.508442)
(0 -0.0320154 0.507375)
(0 0.0944135 0.508643)
(0 -0.0565171 0.507081)
(0 0.059218 0.509333)
(0 0.135272 0.50428)
(0 -0.444397 0.516762)
(0 1.22836 0.510889)
(0 -0.0154821 0.703635)
(0 0.0375318 0.703548)
(0 -0.028861 0.703376)
(0 0.078927 0.703645)
(0 -0.0750245 0.703409)
(0 0.146081 0.703739)
(0 -0.141223 0.702975)
(0 0.14668 0.708958)
(0 0.0876951 0.68799)
(0 -0.377626 0.746652)
(0 1.50258 0.615291)
(0 -0.00975405 0.735912)
(0 0.051049 0.735252)
(0 -0.0416449 0.736006)
(0 0.0934454 0.734347)
(0 -0.116209 0.738185)
(0 0.181635 0.734495)
(0 -0.227013 0.738857)
(0 0.239653 0.745974)
(0 -0.00890834 0.716306)
(0 -0.164187 0.811912)
(0 1.45516 0.82139)
(0 -0.00291085 0.725537)
(0 0.0606694 0.724175)
(0 -0.0501131 0.726384)
(0 0.100739 0.721753)
(0 -0.151616 0.73028)
(0 0.205447 0.719765)
(0 -0.303974 0.73375)
(0 0.322696 0.738263)
(0 -0.116032 0.707539)
(0 0.0590156 0.82982)
(0 1.29793 1.01368)
(0 0.00530032 0.719826)
(0 0.068789 0.717557)
(0 -0.0577985 0.72186)
(0 0.103503 0.71322)
(0 -0.181887 0.728834)
(0 0.217788 0.7094)
(0 -0.370916 0.736748)
(0 0.386021 0.735224)
(0 -0.224708 0.711201)
(0 0.246165 0.849387)
(0 1.11187 1.16396)
(0 0.0131709 0.718473)
(0 0.0743084 0.715221)
(0 -0.0647991 0.721943)
(0 0.101322 0.708931)
(0 -0.208536 0.732408)
(0 0.219253 0.702269)
(0 -0.42927 0.746055)
(0 0.425655 0.73529)
(0 -0.333544 0.725623)
(0 0.385655 0.869993)
(0 0.903121 1.29275)
(0 0.0203395 0.716604)
(0 0.0775745 0.712272)
(0 -0.071749 0.721787)
(0 0.095045 0.703973)
(0 -0.232792 0.735943)
(0 0.21178 0.694439)
(0 -0.480818 0.756204)
(0 0.441919 0.733106)
(0 -0.442691 0.744206)
(0 0.478121 0.889397)
(0 0.666419 1.39812)
(0 0.0266975 0.713353)
(0 0.0789954 0.707869)
(0 -0.0789337 0.72055)
(0 0.0855986 0.697494)
(0 -0.255553 0.737926)
(0 0.196664 0.685143)
(0 -0.526918 0.765916)
(0 0.438622 0.727048)
(0 -0.552534 0.764678)
(0 0.5273 0.907323)
(0 0.398439 1.46548)
(0 0.0322681 0.709171)
(0 0.0789442 0.702418)
(0 -0.0864402 0.718554)
(0 0.0738184 0.690106)
(0 -0.277404 0.738576)
(0 0.17595 0.675278)
(0 -0.568733 0.775195)
(0 0.418032 0.715317)
(0 -0.661246 0.786886)
(0 0.536445 0.923118)
(0 0.111822 1.48399)
(0 0.0371406 0.704318)
(0 0.0777432 0.696236)
(0 -0.0942715 0.715794)
(0 0.0603796 0.682376)
(0 -0.298671 0.738245)
(0 0.151129 0.665012)
(0 -0.607222 0.783523)
(0 0.383965 0.70003)
(0 -0.76487 0.809979)
(0 0.512061 0.93368)
(0 -0.171156 1.45364)
(0 0.0756662 0.689505)
(0 -0.102385 0.712134)
(0 0.0457889 0.674405)
(0 -0.319515 0.736995)
(0 0.123419 0.654407)
(0 -0.643113 0.790547)
(0 0.34094 0.68222)
(0 -0.858954 0.832689)
(0 0.454025 0.938546)
(0 -0.422904 1.40615)
(0 0.0729389 0.682279)
(0 -0.110706 0.707602)
(0 0.0304256 0.666084)
(0 -0.340001 0.734812)
(0 0.0937597 0.643481)
(0 -0.676941 0.796068)
(0 0.291894 0.66253)
(0 -0.942874 0.854732)
(0 0.374492 0.93463)
(0 -0.644278 1.37568)
(0 0.0697365 0.674549)
(0 -0.119153 0.702246)
(0 0.0145725 0.657362)
(0 -0.360143 0.731687)
(0 0.0628559 0.632252)
(0 -0.709086 0.799967)
(0 0.23904 0.641698)
(0 -1.01699 0.876085)
(0 0.281832 0.918796)
(0 -0.843874 1.36049)
(0 0.0661964 0.666315)
(0 -0.127653 0.696093)
(0 -0.001562 0.648216)
(0 -0.379928 0.727623)
(0 0.0312263 0.620731)
(0 -0.739809 0.802179)
(0 0.184009 0.62034)
(0 -1.08234 0.895909)
(0 0.183579 0.892813)
(0 -1.01231 1.34866)
(0 0.0624266 0.657568)
(0 -0.136144 0.689163)
(0 -0.0178247 0.638629)
(0 -0.399331 0.722621)
(0 -0.000751026 0.608923)
(0 -0.769285 0.802681)
(0 0.127964 0.598913)
(0 -1.1403 0.913526)
(0 0.0856293 0.859239)
(0 -1.15036 1.33612)
(0 0.0585115 0.648299)
(0 -0.144575 0.681471)
(0 -0.0341018 0.628587)
(0 -0.418326 0.716681)
(0 -0.0328006 0.59683)
(0 -0.797633 0.801478)
(0 0.0717135 0.577738)
(0 -1.19222 0.928596)
(0 -0.00834948 0.820112)
(0 -1.26125 1.32477)
(0 0.0545166 0.638492)
(0 -0.152907 0.673027)
(0 -0.050307 0.618076)
(0 -0.43689 0.709806)
(0 -0.0647203 0.584447)
(0 -0.824934 0.798589)
(0 0.0158027 0.557011)
(0 -1.23923 0.940947)
(0 -0.0967861 0.777352)
(0 -1.34848 1.315)
(0 0.0504928 0.628136)
(0 -0.161105 0.663837)
(0 -0.0663737 0.607085)
(0 -0.455001 0.701993)
(0 -0.0963591 0.571768)
(0 -0.851246 0.794045)
(0 -0.0394033 0.536832)
(0 -1.2822 0.950413)
(0 -0.17929 0.73249)
(0 -1.41635 1.30612)
(0 0.0464791 0.617215)
(0 -0.169142 0.653902)
(0 -0.0822485 0.595602)
(0 -0.47264 0.693241)
(0 -0.127602 0.558785)
(0 -0.87661 0.787879)
(0 -0.0936569 0.517224)
(0 -1.32176 0.956777)
(0 -0.256199 0.686852)
(0 -1.46926 1.29869)
(0 0.0425058 0.605718)
(0 -0.176997 0.643221)
(0 -0.0978876 0.583618)
(0 -0.489789 0.683548)
(0 -0.158356 0.545491)
(0 -0.901055 0.780126)
(0 -0.146783 0.498163)
(0 -1.35839 0.959867)
(0 -0.328163 0.641606)
(0 -1.51148 1.29236)
(0 0.0385966 0.593653)
(0 -0.18465 0.631814)
(0 -0.113253 0.571133)
(0 -0.506432 0.672911)
(0 -0.188548 0.531892)
(0 -0.924597 0.770824)
(0 -0.198653 0.479614)
(0 -1.39241 0.959533)
(0 -0.395888 0.597702)
(0 -1.54691 1.28657)
(0 0.0347704 0.581041)
(0 -0.192085 0.619732)
(0 -0.128308 0.558146)
(0 -0.52255 0.661319)
(0 -0.218107 0.518017)
(0 -0.947245 0.760026)
(0 -0.249158 0.461529)
(0 -1.42414 0.955691)
(0 -0.46004 0.555722)
(0 -1.57883 1.2806)
(0 0.0310383 0.567811)
(0 -0.199283 0.606832)
(0 -0.143019 0.544657)
(0 -0.538122 0.648876)
(0 -0.246984 0.503718)
(0 -0.968988 0.747837)
(0 -0.298213 0.443825)
(0 -1.45379 0.9484)
(0 -0.521183 0.516194)
(0 -1.60986 1.27365)
(0 0.0274208 0.553906)
(0 -0.206241 0.593178)
(0 -0.157388 0.530582)
(0 -0.553125 0.635436)
(0 -0.27513 0.489119)
(0 -0.989841 0.734186)
(0 -0.34575 0.426424)
(0 -1.48157 0.937936)
(0 -0.579776 0.479243)
(0 -1.64186 1.26483)
)
;

boundaryField
{
    fuel
    {
        type            fixedValue;
        value           uniform (0 0 0.1055);
    }
    wall
    {
        type            slip;
    }
    outlet
    {
        type            pressureInletOutletVelocity;
        value           nonuniform List<vector> 
24
(
(0 1.22836 0)
(0 1.50258 0)
(0 1.45516 0)
(0 1.29793 0)
(0 1.11187 0)
(0 0.903121 0)
(0 0.666419 0)
(0 0.398439 0)
(0 0.111822 0)
(0 -0.171156 0)
(0 -0.422904 1.40615)
(0 -0.644278 1.37568)
(0 -0.843874 1.36049)
(0 -1.01231 1.34866)
(0 -1.15036 1.33612)
(0 -1.26125 1.32477)
(0 -1.34848 1.315)
(0 -1.41635 1.30612)
(0 -1.46926 1.29869)
(0 -1.51148 1.29236)
(0 -1.54691 1.28657)
(0 -1.57883 1.2806)
(0 -1.60986 1.27365)
(0 -1.64186 1.26483)
)
;
    }
    frontAndBack
    {
        type            empty;
    }
    procBoundary3to0
    {
        type            processor;
        value           nonuniform List<vector> 10((0 0.0239161 0.539398) (0 -0.212933 0.578754) (0 -0.171356 0.515973) (0 -0.567551 0.621101) (0 -0.302496 0.47413) (0 -1.00977 0.719194) (0 -0.391725 0.409301) (0 -1.50762 0.924404) (0 -0.636145 0.445076) (0 -1.67595 1.25379));
    }
    procBoundary3to2
    {
        type            processor;
        value           nonuniform List<vector> 
25
(
(0 -0.00206002 0.50798)
(0 0.012146 0.703324)
(0 0.0314952 0.735314)
(0 0.0489497 0.724363)
(0 0.0667759 0.718184)
(0 0.0829708 0.716378)
(0 0.097698 0.714092)
(0 0.111115 0.710455)
(0 0.123394 0.705889)
(0 0.134715 0.700672)
(0 0.0414192 0.698833)
(0 0.0414192 0.698833)
(0 0.0452017 0.692738)
(0 0.0485779 0.686029)
(0 0.0516253 0.678708)
(0 0.0544076 0.67077)
(0 0.0569758 0.662207)
(0 0.0593699 0.653017)
(0 0.0616247 0.643192)
(0 0.063767 0.632726)
(0 0.0658173 0.621611)
(0 0.0677914 0.609857)
(0 0.0697004 0.597475)
(0 0.0715536 0.584433)
(0 0.0733617 0.570693)
)
;
    }
}


// ************************************************************************* //
