/*--------------------------------*- C++ -*----------------------------------*\
| =========                 |                                                 |
| \\      /  F ield         | OpenFOAM: The Open Source CFD Toolbox           |
|  \\    /   O peration     | Version:  dev                                   |
|   \\  /    A nd           | Web:      www.OpenFOAM.org                      |
|    \\/     M anipulation  |                                                 |
\*---------------------------------------------------------------------------*/
FoamFile
{
    version     2.0;
    format      ascii;
    class       volScalarField;
    location    "0.1";
    object      A3-1;
}
// * * * * * * * * * * * * * * * * * * * * * * * * * * * * * * * * * * * * * //

dimensions      [0 0 0 0 0 0 0];

internalField   nonuniform List<scalar> 
25
(
1.51781e-16
1.42866e-16
1.33191e-16
1.22614e-16
1.11892e-16
1.0084e-16
8.97215e-17
7.86377e-17
6.77023e-17
5.69891e-17
4.72298e-17
3.81683e-17
2.99684e-17
2.27432e-17
1.65693e-17
1.1495e-17
7.51217e-18
4.56461e-18
2.5398e-18
1.27268e-18
5.6648e-19
2.24525e-19
8.27382e-20
3.08386e-20
1.10296e-20
)
;

boundaryField
{
    wall
    {
        type            zeroGradient;
    }
    fuel
    {
        type            fixedValue;
        value           nonuniform 0();
    }
    outlet
    {
        type            inletOutlet;
        inletValue      uniform 0;
        value           uniform 1.10296e-20;
    }
    procBoundary3to2
    {
        type            processor;
        value           uniform 1.59937e-16;
    }
}


// ************************************************************************* //
