/*--------------------------------*- C++ -*----------------------------------*\
| =========                 |                                                 |
| \\      /  F ield         | OpenFOAM: The Open Source CFD Toolbox           |
|  \\    /   O peration     | Version:  dev                                   |
|   \\  /    A nd           | Web:      www.OpenFOAM.org                      |
|    \\/     M anipulation  |                                                 |
\*---------------------------------------------------------------------------*/
FoamFile
{
    version     2.0;
    format      ascii;
    class       volScalarField;
    location    "0.1";
    object      AR;
}
// * * * * * * * * * * * * * * * * * * * * * * * * * * * * * * * * * * * * * //

dimensions      [0 0 0 0 0 0 0];

internalField   nonuniform List<scalar> 
25
(
0.108271
0.103142
0.0980552
0.0930101
0.0878879
0.0830627
0.0782964
0.0736118
0.0689212
0.0644182
0.0599856
0.0556254
0.0513356
0.0471042
0.0429152
0.0387039
0.0345192
0.0303879
0.0262269
0.0224139
0.0183912
0.0144447
0.0101817
0.00613244
0.00286066
)
;

boundaryField
{
    wall
    {
        type            zeroGradient;
    }
    fuel
    {
        type            fixedValue;
        value           nonuniform 0();
    }
    outlet
    {
        type            inletOutlet;
        inletValue      uniform 0;
        value           uniform 0.00286066;
    }
    procBoundary3to2
    {
        type            processor;
        value           uniform 0.113432;
    }
}


// ************************************************************************* //
