/*--------------------------------*- C++ -*----------------------------------*\
| =========                 |                                                 |
| \\      /  F ield         | OpenFOAM: The Open Source CFD Toolbox           |
|  \\    /   O peration     | Version:  dev                                   |
|   \\  /    A nd           | Web:      www.OpenFOAM.org                      |
|    \\/     M anipulation  |                                                 |
\*---------------------------------------------------------------------------*/
FoamFile
{
    version     2.0;
    format      ascii;
    class       volScalarField;
    location    "0.1";
    object      C;
}
// * * * * * * * * * * * * * * * * * * * * * * * * * * * * * * * * * * * * * //

dimensions      [0 0 0 0 0 0 0];

internalField   nonuniform List<scalar> 
25
(
6.97307e-12
6.63198e-12
6.24977e-12
5.81903e-12
5.37183e-12
4.89944e-12
4.42128e-12
3.94714e-12
3.48662e-12
3.06132e-12
2.70993e-12
2.42602e-12
2.21358e-12
2.06619e-12
1.96904e-12
1.90188e-12
1.84279e-12
1.772e-12
1.67473e-12
1.54242e-12
1.37208e-12
1.16429e-12
9.20555e-13
6.40808e-13
3.20191e-13
)
;

boundaryField
{
    wall
    {
        type            zeroGradient;
    }
    fuel
    {
        type            fixedValue;
        value           nonuniform 0();
    }
    outlet
    {
        type            inletOutlet;
        inletValue      uniform 0;
        value           uniform 3.20191e-13;
    }
    procBoundary3to2
    {
        type            processor;
        value           uniform 7.28518e-12;
    }
}


// ************************************************************************* //
