/*--------------------------------*- C++ -*----------------------------------*\
| =========                 |                                                 |
| \\      /  F ield         | OpenFOAM: The Open Source CFD Toolbox           |
|  \\    /   O peration     | Version:  dev                                   |
|   \\  /    A nd           | Web:      www.OpenFOAM.org                      |
|    \\/     M anipulation  |                                                 |
\*---------------------------------------------------------------------------*/
FoamFile
{
    version     2.0;
    format      ascii;
    class       volScalarField;
    location    "0.1";
    object      i-C4H3;
}
// * * * * * * * * * * * * * * * * * * * * * * * * * * * * * * * * * * * * * //

dimensions      [0 0 0 0 0 0 0];

internalField   nonuniform List<scalar> 
25
(
1.20937e-15
9.51794e-16
7.36955e-16
5.58025e-16
4.20227e-16
3.11026e-16
2.26827e-16
1.62708e-16
1.14055e-16
7.76731e-17
5.24673e-17
3.45877e-17
2.22401e-17
1.39331e-17
8.49306e-18
5.0308e-18
2.89327e-18
1.61607e-18
8.79098e-19
4.68583e-19
2.46838e-19
1.29228e-19
6.68642e-20
3.34193e-20
1.41276e-20
)
;

boundaryField
{
    wall
    {
        type            zeroGradient;
    }
    fuel
    {
        type            fixedValue;
        value           nonuniform 0();
    }
    outlet
    {
        type            inletOutlet;
        inletValue      uniform 0;
        value           uniform 1.41276e-20;
    }
    procBoundary3to2
    {
        type            processor;
        value           uniform 1.5265e-15;
    }
}


// ************************************************************************* //
