/*--------------------------------*- C++ -*----------------------------------*\
| =========                 |                                                 |
| \\      /  F ield         | OpenFOAM: The Open Source CFD Toolbox           |
|  \\    /   O peration     | Version:  dev                                   |
|   \\  /    A nd           | Web:      www.OpenFOAM.org                      |
|    \\/     M anipulation  |                                                 |
\*---------------------------------------------------------------------------*/
FoamFile
{
    version     2.0;
    format      ascii;
    class       volScalarField;
    location    "0.055";
    object      A1C2H-;
}
// * * * * * * * * * * * * * * * * * * * * * * * * * * * * * * * * * * * * * //

dimensions      [0 0 0 0 0 0 0];

internalField   nonuniform List<scalar> 
250
(
4.65506e-07
4.65507e-07
4.65571e-07
4.65453e-07
4.65777e-07
4.65347e-07
4.66311e-07
4.65559e-07
4.71839e-07
4.73808e-07
9.83947e-08
6.76136e-07
6.76103e-07
6.76284e-07
6.75932e-07
6.76742e-07
6.75707e-07
6.78091e-07
6.78013e-07
7.00222e-07
7.14726e-07
5.22516e-07
4.5682e-07
4.56747e-07
4.57051e-07
4.56462e-07
4.57727e-07
4.5612e-07
4.59612e-07
4.59298e-07
4.88908e-07
5.01477e-07
3.26978e-07
2.70515e-07
2.70422e-07
2.70779e-07
2.70091e-07
2.71551e-07
2.69654e-07
2.7365e-07
2.72501e-07
3.02569e-07
3.11929e-07
1.50405e-07
1.62801e-07
1.62709e-07
1.63057e-07
1.62389e-07
1.63809e-07
1.61925e-07
1.65875e-07
1.64112e-07
1.92368e-07
1.99993e-07
5.79188e-08
1.03843e-07
1.03759e-07
1.04074e-07
1.03475e-07
1.04748e-07
1.03038e-07
1.06635e-07
1.0461e-07
1.25648e-07
1.38061e-07
2.90622e-08
6.80092e-08
6.79407e-08
6.82084e-08
6.77037e-08
6.88076e-08
6.73182e-08
7.07214e-08
6.88082e-08
8.94127e-08
9.82543e-08
1.85077e-08
4.83367e-08
4.8275e-08
4.85096e-08
4.80762e-08
4.90214e-08
4.77466e-08
5.0748e-08
4.90215e-08
6.41227e-08
7.46431e-08
1.54059e-08
3.51471e-08
3.50975e-08
3.53001e-08
3.49412e-08
3.57252e-08
3.46623e-08
3.71711e-08
3.53602e-08
4.95132e-08
5.96812e-08
1.58855e-08
2.64172e-08
2.63807e-08
2.65364e-08
2.62663e-08
2.68647e-08
2.60554e-08
2.80648e-08
2.66772e-08
3.92543e-08
5.08391e-08
1.91292e-08
2.06366e-08
2.07588e-08
2.05523e-08
2.10146e-08
2.03938e-08
2.20128e-08
2.09542e-08
3.13121e-08
4.43136e-08
2.57689e-08
1.67086e-08
1.68062e-08
1.66456e-08
1.70082e-08
1.6526e-08
1.78432e-08
1.70372e-08
2.5676e-08
3.90308e-08
3.72648e-08
1.39196e-08
1.39992e-08
1.38715e-08
1.41615e-08
1.37807e-08
1.48661e-08
1.42534e-08
2.1582e-08
3.49579e-08
5.44019e-08
1.18627e-08
1.19291e-08
1.1825e-08
1.20619e-08
1.17557e-08
1.26633e-08
1.21987e-08
1.85284e-08
3.15966e-08
7.69494e-08
1.02893e-08
1.03459e-08
1.0259e-08
1.04565e-08
1.02057e-08
1.0976e-08
1.06255e-08
1.61808e-08
2.90105e-08
1.01505e-07
9.04511e-09
9.09455e-09
9.02015e-09
9.18804e-09
8.97894e-09
9.64188e-09
9.37983e-09
1.43157e-08
2.67054e-08
1.2267e-07
8.03269e-09
8.07713e-09
8.01179e-09
8.15715e-09
7.98002e-09
8.55727e-09
8.36407e-09
1.27851e-08
2.43936e-08
1.35917e-07
7.18917e-09
7.23071e-09
7.17151e-09
7.29974e-09
7.14732e-09
7.65462e-09
7.5154e-09
1.14926e-08
2.23834e-08
1.39554e-07
6.47278e-09
6.51379e-09
6.45782e-09
6.57344e-09
6.43996e-09
6.88889e-09
6.79216e-09
1.03748e-08
2.0278e-08
1.34725e-07
5.85484e-09
5.89815e-09
5.84218e-09
5.94944e-09
5.82992e-09
6.22903e-09
6.16556e-09
9.39145e-09
1.82564e-08
1.24113e-07
5.31455e-09
5.36389e-09
5.30395e-09
5.40731e-09
5.29698e-09
5.65267e-09
5.61415e-09
8.51591e-09
1.64639e-08
1.10533e-07
4.89166e-09
4.89589e-09
4.88098e-09
4.93139e-09
4.87519e-09
5.14204e-09
5.16926e-09
7.72962e-09
1.46603e-08
9.61531e-08
4.52176e-09
4.53103e-09
4.51093e-09
4.56294e-09
4.50522e-09
4.75301e-09
4.77608e-09
7.01703e-09
1.30535e-08
8.23186e-08
4.16932e-09
4.17991e-09
4.15996e-09
4.20708e-09
4.15751e-09
4.37709e-09
4.40849e-09
6.36309e-09
1.15063e-08
6.96822e-08
)
;

boundaryField
{
    fuel
    {
        type            fixedValue;
        value           uniform 0;
    }
    wall
    {
        type            zeroGradient;
    }
    outlet
    {
        type            zeroGradient;
    }
    frontAndBack
    {
        type            empty;
    }
    procBoundary3to0
    {
        type            processor;
        value           nonuniform List<scalar> 10(3.88641e-09 3.89791e-09 3.87787e-09 3.92164e-09 3.87693e-09 4.07316e-09 4.10743e-09 5.75337e-09 1.01072e-08 5.85577e-08);
    }
    procBoundary3to2
    {
        type            processor;
        value           nonuniform List<scalar> 
25
(
4.65502e-07
6.76118e-07
4.56796e-07
2.70485e-07
1.6277e-07
1.03814e-07
6.79872e-08
4.83164e-08
3.51381e-08
2.64131e-08
2.06645e-08
2.06645e-08
1.6732e-08
1.39394e-08
1.18798e-08
1.03044e-08
9.0587e-09
8.04514e-09
7.20069e-09
6.48338e-09
5.8643e-09
5.32237e-09
4.89868e-09
4.52873e-09
4.17506e-09
)
;
    }
}


// ************************************************************************* //
