/*--------------------------------*- C++ -*----------------------------------*\
| =========                 |                                                 |
| \\      /  F ield         | OpenFOAM: The Open Source CFD Toolbox           |
|  \\    /   O peration     | Version:  dev                                   |
|   \\  /    A nd           | Web:      www.OpenFOAM.org                      |
|    \\/     M anipulation  |                                                 |
\*---------------------------------------------------------------------------*/
FoamFile
{
    version     2.0;
    format      ascii;
    class       volScalarField;
    location    "0.055";
    object      A2C2HA*;
}
// * * * * * * * * * * * * * * * * * * * * * * * * * * * * * * * * * * * * * //

dimensions      [0 0 0 0 0 0 0];

internalField   nonuniform List<scalar> 
250
(
7.29993e-10
7.29986e-10
7.30109e-10
7.29868e-10
7.30502e-10
7.29678e-10
7.31728e-10
7.31388e-10
7.51344e-10
7.66202e-10
4.9337e-11
6.69999e-10
6.69945e-10
6.70167e-10
6.69743e-10
6.70661e-10
6.69579e-10
6.7237e-10
6.74507e-10
7.11145e-10
7.40946e-10
1.60142e-10
3.10667e-10
3.10598e-10
3.10857e-10
3.10368e-10
3.11386e-10
3.10151e-10
3.13008e-10
3.14053e-10
3.44969e-10
3.66118e-10
7.33478e-11
1.47437e-10
1.47374e-10
1.47606e-10
1.47167e-10
1.48091e-10
1.46915e-10
1.49515e-10
1.4943e-10
1.73272e-10
1.89008e-10
3.28567e-11
7.9638e-11
7.95872e-11
7.97777e-11
7.94147e-11
8.01904e-11
7.91724e-11
8.14048e-11
8.07784e-11
9.98389e-11
1.12231e-10
1.61542e-11
4.86737e-11
4.86323e-11
4.87894e-11
4.84923e-11
4.91316e-11
4.82784e-11
5.01546e-11
4.93319e-11
6.26954e-11
7.5655e-11
1.1529e-11
3.15979e-11
3.15658e-11
3.16934e-11
3.14547e-11
3.19843e-11
3.12727e-11
3.29603e-11
3.21621e-11
4.42506e-11
5.3682e-11
1.0429e-11
2.26019e-11
2.25737e-11
2.26837e-11
2.24822e-11
2.29286e-11
2.23287e-11
2.37903e-11
2.30603e-11
3.19021e-11
4.08914e-11
1.14322e-11
1.66163e-11
1.65936e-11
1.66889e-11
1.65215e-11
1.68925e-11
1.63915e-11
1.76122e-11
1.68278e-11
2.48353e-11
3.27593e-11
1.44947e-11
1.26013e-11
1.25844e-11
1.26588e-11
1.25311e-11
1.2818e-11
1.24316e-11
1.3418e-11
1.28147e-11
1.98337e-11
2.79024e-11
2.01341e-11
9.88235e-12
9.94171e-12
9.84252e-12
1.00674e-11
9.76658e-12
1.05693e-11
1.01104e-11
1.58966e-11
2.42731e-11
2.8806e-11
7.99277e-12
8.04078e-12
7.96265e-12
8.14101e-12
7.90473e-12
8.56228e-12
8.2184e-12
1.30522e-11
2.13145e-11
4.02987e-11
6.62923e-12
6.66859e-12
6.60613e-12
6.74943e-12
6.56196e-12
7.10478e-12
6.85237e-12
1.09545e-11
1.90415e-11
5.35053e-11
5.61617e-12
5.64893e-12
5.59814e-12
5.71495e-12
5.56447e-12
6.01688e-12
5.83692e-12
9.37461e-12
1.71974e-11
6.77849e-11
4.84196e-12
4.86974e-12
4.82762e-12
4.92439e-12
4.80199e-12
5.18334e-12
5.06016e-12
8.15614e-12
1.58154e-11
8.21391e-11
4.23376e-12
4.25787e-12
4.22214e-12
4.30375e-12
4.20271e-12
4.52822e-12
4.44884e-12
7.19054e-12
1.46208e-11
9.52432e-11
3.74301e-12
3.76461e-12
3.73345e-12
3.80367e-12
3.71884e-12
4.00035e-12
3.95401e-12
6.40311e-12
1.34533e-11
1.05405e-10
3.33669e-12
3.35693e-12
3.32874e-12
3.39057e-12
3.31795e-12
3.56454e-12
3.54251e-12
5.74308e-12
1.24474e-11
1.11012e-10
2.99191e-12
3.01205e-12
2.98526e-12
3.04128e-12
2.97759e-12
3.19621e-12
3.1914e-12
5.17543e-12
1.1382e-11
1.11307e-10
2.6925e-12
2.71404e-12
2.68692e-12
2.7395e-12
2.68194e-12
2.8778e-12
2.88447e-12
4.67676e-12
1.03307e-11
1.06721e-10
2.42663e-12
2.45151e-12
2.42199e-12
2.47353e-12
2.41951e-12
2.59642e-12
2.60963e-12
4.23081e-12
9.36545e-12
9.85081e-11
2.21321e-12
2.21597e-12
2.20845e-12
2.23456e-12
2.20644e-12
2.34197e-12
2.38197e-12
3.82583e-12
8.35873e-12
8.81619e-11
2.02043e-12
2.02618e-12
2.01551e-12
2.04346e-12
2.01336e-12
2.1422e-12
2.1741e-12
3.45216e-12
7.43215e-12
7.69834e-11
1.82977e-12
1.83652e-12
1.82551e-12
1.85188e-12
1.82489e-12
1.94224e-12
1.97232e-12
3.10093e-12
6.51572e-12
6.5887e-11
)
;

boundaryField
{
    fuel
    {
        type            fixedValue;
        value           uniform 0;
    }
    wall
    {
        type            zeroGradient;
    }
    outlet
    {
        type            zeroGradient;
    }
    frontAndBack
    {
        type            empty;
    }
    procBoundary3to0
    {
        type            processor;
        value           nonuniform List<scalar> 10(1.67037e-12 1.67784e-12 1.66644e-12 1.69182e-12 1.66641e-12 1.77404e-12 1.80037e-12 2.76422e-12 5.66905e-12 5.55107e-11);
    }
    procBoundary3to2
    {
        type            processor;
        value           nonuniform List<scalar> 
25
(
7.29982e-10
6.69973e-10
3.10643e-10
1.47415e-10
7.96208e-11
4.86601e-11
3.15884e-11
2.25936e-11
1.66131e-11
1.26004e-11
9.89548e-12
9.89548e-12
8.00417e-12
6.63887e-12
5.62443e-12
4.84916e-12
4.24017e-12
3.74883e-12
3.34206e-12
2.99686e-12
2.69695e-12
2.43037e-12
2.21666e-12
2.02397e-12
1.83278e-12
)
;
    }
}


// ************************************************************************* //
