/*--------------------------------*- C++ -*----------------------------------*\
| =========                 |                                                 |
| \\      /  F ield         | OpenFOAM: The Open Source CFD Toolbox           |
|  \\    /   O peration     | Version:  dev                                   |
|   \\  /    A nd           | Web:      www.OpenFOAM.org                      |
|    \\/     M anipulation  |                                                 |
\*---------------------------------------------------------------------------*/
FoamFile
{
    version     2.0;
    format      ascii;
    class       volScalarField;
    location    "0.055";
    object      A3-4;
}
// * * * * * * * * * * * * * * * * * * * * * * * * * * * * * * * * * * * * * //

dimensions      [0 0 0 0 0 0 0];

internalField   nonuniform List<scalar> 
250
(
4.38909e-09
4.38327e-09
4.38519e-09
4.38288e-09
4.38291e-09
4.38382e-09
4.38622e-09
4.41997e-09
4.6977e-09
6.81754e-09
6.74352e-11
5.0406e-09
5.03913e-09
5.03866e-09
5.0389e-09
5.0382e-09
5.03859e-09
5.04315e-09
5.09882e-09
5.57474e-09
9.63279e-09
8.45781e-11
3.98735e-09
3.98704e-09
3.98693e-09
3.98687e-09
3.98737e-09
3.98751e-09
3.9922e-09
4.05067e-09
4.56233e-09
9.17468e-09
5.70637e-11
2.79727e-09
2.79718e-09
2.79755e-09
2.79696e-09
2.79788e-09
2.79781e-09
2.80155e-09
2.85338e-09
3.31847e-09
7.6784e-09
3.31103e-11
1.92437e-09
1.92427e-09
1.92485e-09
1.92402e-09
1.92497e-09
1.92479e-09
1.92696e-09
1.96947e-09
2.3686e-09
6.19915e-09
1.93682e-11
1.32424e-09
1.32403e-09
1.32483e-09
1.32368e-09
1.32481e-09
1.32468e-09
1.32594e-09
1.37192e-09
1.73494e-09
5.01014e-09
1.22521e-11
9.6646e-10
9.66242e-10
9.6697e-10
9.65927e-10
9.66873e-10
9.66746e-10
9.64723e-10
1.0059e-09
1.32626e-09
4.10303e-09
8.93238e-12
7.23612e-10
7.23304e-10
7.24127e-10
7.22934e-10
7.24037e-10
7.24193e-10
7.31399e-10
7.70544e-10
1.0432e-09
3.40999e-09
8.04288e-12
5.70523e-10
5.70216e-10
5.70975e-10
5.6987e-10
5.70861e-10
5.7107e-10
5.76292e-10
6.04562e-10
8.60035e-10
2.87028e-09
9.56523e-12
4.50023e-10
4.49743e-10
4.50385e-10
4.49443e-10
4.50271e-10
4.50555e-10
4.54443e-10
4.80646e-10
7.17395e-10
2.44047e-09
1.45736e-11
3.73429e-10
3.74021e-10
3.73149e-10
3.739e-10
3.74235e-10
3.77311e-10
4.0186e-10
6.04761e-10
2.09164e-09
2.57284e-11
3.09943e-10
3.10456e-10
3.09694e-10
3.10345e-10
3.10734e-10
3.13527e-10
3.38112e-10
5.26638e-10
1.80417e-09
4.31547e-11
2.61773e-10
2.62218e-10
2.61552e-10
2.62119e-10
2.62555e-10
2.64978e-10
2.87746e-10
4.58399e-10
1.56378e-09
6.28786e-11
2.24396e-10
2.24781e-10
2.242e-10
2.24698e-10
2.25172e-10
2.27332e-10
2.48359e-10
3.98276e-10
1.36164e-09
8.25145e-11
1.94794e-10
1.95127e-10
1.94618e-10
1.95062e-10
1.95566e-10
1.9754e-10
2.16902e-10
3.53282e-10
1.16174e-09
1.01226e-10
1.70887e-10
1.71175e-10
1.70727e-10
1.71129e-10
1.71655e-10
1.73488e-10
1.91251e-10
3.09751e-10
9.94273e-10
1.17977e-10
1.51211e-10
1.51462e-10
1.51065e-10
1.51435e-10
1.51977e-10
1.53689e-10
1.69958e-10
2.71798e-10
8.63293e-10
1.31362e-10
1.34725e-10
1.34944e-10
1.34591e-10
1.34936e-10
1.35485e-10
1.37092e-10
1.51979e-10
2.38536e-10
7.46238e-10
1.40638e-10
1.20674e-10
1.20866e-10
1.20551e-10
1.20877e-10
1.21426e-10
1.22941e-10
1.36562e-10
2.09092e-10
6.42458e-10
1.46253e-10
1.08511e-10
1.08679e-10
1.08398e-10
1.08707e-10
1.09249e-10
1.1068e-10
1.23163e-10
1.86062e-10
5.50863e-10
1.49315e-10
9.78254e-11
9.79719e-11
9.77221e-11
9.8016e-11
9.85423e-11
9.98974e-11
1.11359e-10
1.65166e-10
4.70112e-10
1.50917e-10
8.82969e-11
8.84227e-11
8.82046e-11
8.84813e-11
8.89834e-11
9.02682e-11
1.00829e-10
1.45577e-10
3.92986e-10
1.51673e-10
8.0674e-11
8.07861e-11
8.05894e-11
8.08531e-11
8.13345e-11
8.25378e-11
9.13247e-11
1.2833e-10
3.31172e-10
1.51893e-10
7.35524e-11
7.36768e-11
7.34771e-11
7.37598e-11
7.42401e-11
7.53664e-11
8.36963e-11
1.1321e-10
2.79231e-10
1.51359e-10
)
;

boundaryField
{
    fuel
    {
        type            fixedValue;
        value           uniform 0;
    }
    wall
    {
        type            zeroGradient;
    }
    outlet
    {
        type            zeroGradient;
    }
    frontAndBack
    {
        type            empty;
    }
    procBoundary3to0
    {
        type            processor;
        value           nonuniform List<scalar> 10(6.7377e-11 6.74941e-11 6.73103e-11 6.75834e-11 6.80395e-11 6.9087e-11 7.61828e-11 1.01312e-10 2.35781e-10 1.49795e-10);
    }
    procBoundary3to2
    {
        type            processor;
        value           nonuniform List<scalar> 
25
(
4.38349e-09
5.03862e-09
3.98749e-09
2.79789e-09
1.925e-09
1.32482e-09
9.66928e-10
7.24086e-10
5.70941e-10
4.50374e-10
3.73671e-10
3.73671e-10
3.10145e-10
2.61935e-10
2.24521e-10
1.94882e-10
1.70942e-10
1.51238e-10
1.34726e-10
1.20655e-10
1.08475e-10
9.7776e-11
8.82379e-11
8.06096e-11
7.34774e-11
)
;
    }
}


// ************************************************************************* //
