/*--------------------------------*- C++ -*----------------------------------*\
| =========                 |                                                 |
| \\      /  F ield         | OpenFOAM: The Open Source CFD Toolbox           |
|  \\    /   O peration     | Version:  dev                                   |
|   \\  /    A nd           | Web:      www.OpenFOAM.org                      |
|    \\/     M anipulation  |                                                 |
\*---------------------------------------------------------------------------*/
FoamFile
{
    version     2.0;
    format      ascii;
    class       volScalarField;
    location    "0.055";
    object      C2O;
}
// * * * * * * * * * * * * * * * * * * * * * * * * * * * * * * * * * * * * * //

dimensions      [0 0 0 0 0 0 0];

internalField   nonuniform List<scalar> 
1989
(
1.58944e-08
1.58906e-08
1.58867e-08
1.58809e-08
1.58794e-08
1.58758e-08
1.58754e-08
1.5873e-08
1.58734e-08
1.58774e-08
1.58772e-08
1.58716e-08
1.58716e-08
1.58714e-08
1.58714e-08
1.58716e-08
1.58716e-08
1.58772e-08
1.58773e-08
1.58733e-08
1.58729e-08
1.58753e-08
1.58756e-08
1.58792e-08
1.58807e-08
1.58863e-08
1.58904e-08
1.58941e-08
1.59036e-08
1.59193e-08
1.59425e-08
1.59709e-08
1.6017e-08
1.60676e-08
1.61563e-08
1.62602e-08
1.63874e-08
1.65911e-08
1.67033e-08
1.54029e-08
1.52985e-08
1.51108e-08
1.49934e-08
1.48992e-08
1.48184e-08
1.47723e-08
1.47306e-08
1.47048e-08
1.46831e-08
1.46685e-08
1.46604e-08
1.46564e-08
1.4653e-08
1.46479e-08
1.46466e-08
1.46434e-08
1.46431e-08
1.4641e-08
1.46414e-08
1.46446e-08
1.46444e-08
1.46398e-08
1.46397e-08
1.46395e-08
1.46395e-08
1.46397e-08
1.46397e-08
1.46444e-08
1.46445e-08
1.46413e-08
1.46409e-08
1.4643e-08
1.46433e-08
1.46465e-08
1.46478e-08
1.46528e-08
1.46562e-08
1.46601e-08
1.46686e-08
1.46837e-08
1.47051e-08
1.47306e-08
1.47722e-08
1.48182e-08
1.4899e-08
1.4993e-08
1.51102e-08
1.52982e-08
1.54023e-08
1.41997e-08
1.41024e-08
1.39304e-08
1.38221e-08
1.37373e-08
1.36634e-08
1.3622e-08
1.35841e-08
1.35611e-08
1.35413e-08
1.35268e-08
1.35195e-08
1.35155e-08
1.35126e-08
1.35081e-08
1.3507e-08
1.35042e-08
1.3504e-08
1.35022e-08
1.35026e-08
1.3505e-08
1.3505e-08
1.35011e-08
1.35011e-08
1.35009e-08
1.35009e-08
1.35011e-08
1.35011e-08
1.35049e-08
1.35049e-08
1.35025e-08
1.35021e-08
1.35039e-08
1.35041e-08
1.35069e-08
1.3508e-08
1.35124e-08
1.35153e-08
1.35192e-08
1.35267e-08
1.35419e-08
1.35614e-08
1.35841e-08
1.36219e-08
1.36633e-08
1.37371e-08
1.38217e-08
1.39299e-08
1.41021e-08
1.41991e-08
1.30756e-08
1.29832e-08
1.28254e-08
1.2725e-08
1.26485e-08
1.25803e-08
1.25432e-08
1.25085e-08
1.24884e-08
1.24708e-08
1.24552e-08
1.24486e-08
1.24447e-08
1.24422e-08
1.24383e-08
1.24374e-08
1.24349e-08
1.24348e-08
1.24334e-08
1.24338e-08
1.24355e-08
1.24356e-08
1.24325e-08
1.24324e-08
1.24322e-08
1.24322e-08
1.24324e-08
1.24324e-08
1.24356e-08
1.24354e-08
1.24337e-08
1.24333e-08
1.24347e-08
1.24348e-08
1.24373e-08
1.24382e-08
1.24421e-08
1.24446e-08
1.24484e-08
1.24551e-08
1.24711e-08
1.24886e-08
1.25084e-08
1.25431e-08
1.25801e-08
1.26482e-08
1.27246e-08
1.28248e-08
1.29829e-08
1.3075e-08
1.20453e-08
1.1959e-08
1.1815e-08
1.17232e-08
1.16546e-08
1.15916e-08
1.15589e-08
1.15271e-08
1.15096e-08
1.14942e-08
1.14771e-08
1.14712e-08
1.14674e-08
1.14652e-08
1.14619e-08
1.14611e-08
1.1459e-08
1.14589e-08
1.14577e-08
1.14582e-08
1.14592e-08
1.14596e-08
1.1457e-08
1.14569e-08
1.14567e-08
1.14567e-08
1.14569e-08
1.14569e-08
1.14595e-08
1.14592e-08
1.14581e-08
1.14577e-08
1.14588e-08
1.14589e-08
1.1461e-08
1.14618e-08
1.14652e-08
1.14672e-08
1.14709e-08
1.14769e-08
1.14946e-08
1.15098e-08
1.1527e-08
1.15588e-08
1.15915e-08
1.16543e-08
1.17228e-08
1.18144e-08
1.19587e-08
1.20448e-08
1.10824e-08
1.09992e-08
1.0865e-08
1.07797e-08
1.07171e-08
1.06588e-08
1.06293e-08
1.06e-08
1.05847e-08
1.05717e-08
1.05704e-08
1.05651e-08
1.05615e-08
1.05596e-08
1.05567e-08
1.05561e-08
1.05542e-08
1.05542e-08
1.05532e-08
1.05536e-08
1.05543e-08
1.05547e-08
1.05525e-08
1.05525e-08
1.05523e-08
1.05523e-08
1.05524e-08
1.05525e-08
1.05546e-08
1.05542e-08
1.05535e-08
1.05531e-08
1.05541e-08
1.05541e-08
1.0556e-08
1.05566e-08
1.05596e-08
1.05613e-08
1.05649e-08
1.05702e-08
1.05719e-08
1.05848e-08
1.06e-08
1.06293e-08
1.06587e-08
1.07169e-08
1.07794e-08
1.08645e-08
1.0999e-08
1.10819e-08
1.01971e-08
1.01194e-08
9.99673e-09
9.91863e-09
9.86255e-09
9.80887e-09
9.78278e-09
9.75589e-09
9.74268e-09
9.73171e-09
9.72898e-09
9.72423e-09
9.72075e-09
9.7191e-09
9.71656e-09
9.71603e-09
9.71436e-09
9.71435e-09
9.71347e-09
9.71384e-09
9.71427e-09
9.71462e-09
9.71286e-09
9.71283e-09
9.71269e-09
9.71268e-09
9.71281e-09
9.71282e-09
9.71457e-09
9.7142e-09
9.71379e-09
9.71339e-09
9.71427e-09
9.71427e-09
9.71593e-09
9.71647e-09
9.71916e-09
9.72064e-09
9.72401e-09
9.72877e-09
9.73191e-09
9.7428e-09
9.75585e-09
9.78271e-09
9.80872e-09
9.86231e-09
9.91834e-09
9.99607e-09
1.01195e-08
1.01967e-08
9.37521e-09
9.30268e-09
9.18391e-09
9.10785e-09
9.05618e-09
9.00663e-09
8.98331e-09
8.95858e-09
8.94705e-09
8.93735e-09
8.9335e-09
8.92918e-09
8.92588e-09
8.92441e-09
8.92208e-09
8.92162e-09
8.92009e-09
8.92009e-09
8.91927e-09
8.91961e-09
8.91988e-09
8.92019e-09
8.91872e-09
8.9187e-09
8.91858e-09
8.91857e-09
8.91868e-09
8.91869e-09
8.92014e-09
8.91982e-09
8.91956e-09
8.91919e-09
8.92003e-09
8.92e-09
8.92153e-09
8.922e-09
8.92446e-09
8.92578e-09
8.92899e-09
8.9333e-09
8.93748e-09
8.94713e-09
8.95854e-09
8.98324e-09
9.00649e-09
9.05595e-09
9.10759e-09
9.18347e-09
9.3025e-09
9.37484e-09
8.59619e-09
8.52675e-09
8.41816e-09
8.34779e-09
8.30156e-09
8.25629e-09
8.23562e-09
8.21315e-09
8.20318e-09
8.19467e-09
8.19028e-09
8.18638e-09
8.18326e-09
8.18195e-09
8.17983e-09
8.17944e-09
8.17803e-09
8.17804e-09
8.17725e-09
8.17756e-09
8.17772e-09
8.17797e-09
8.17677e-09
8.17676e-09
8.17665e-09
8.17664e-09
8.17675e-09
8.17674e-09
8.17793e-09
8.17766e-09
8.17752e-09
8.17719e-09
8.17798e-09
8.17795e-09
8.17935e-09
8.17975e-09
8.18198e-09
8.18317e-09
8.1862e-09
8.1901e-09
8.19476e-09
8.20324e-09
8.21311e-09
8.23555e-09
8.25615e-09
8.30133e-09
8.34756e-09
8.41782e-09
8.52653e-09
8.59587e-09
7.86896e-09
7.80442e-09
7.70644e-09
7.65369e-09
7.61229e-09
7.57052e-09
7.55225e-09
7.53165e-09
7.52301e-09
7.51528e-09
7.51071e-09
7.50717e-09
7.50422e-09
7.50305e-09
7.50108e-09
7.50075e-09
7.49944e-09
7.49947e-09
7.49871e-09
7.49899e-09
7.49906e-09
7.49927e-09
7.49828e-09
7.49829e-09
7.49818e-09
7.49818e-09
7.49827e-09
7.49825e-09
7.49922e-09
7.49901e-09
7.49895e-09
7.49865e-09
7.49942e-09
7.49936e-09
7.50067e-09
7.50101e-09
7.50306e-09
7.50413e-09
7.50701e-09
7.51056e-09
7.51532e-09
7.52305e-09
7.5316e-09
7.55218e-09
7.57039e-09
7.61208e-09
7.65347e-09
7.70614e-09
7.80424e-09
7.86868e-09
7.20438e-09
7.14422e-09
7.05538e-09
7.0066e-09
6.96959e-09
6.93099e-09
6.91489e-09
6.896e-09
6.8885e-09
6.88136e-09
6.87684e-09
6.87364e-09
6.87087e-09
6.86982e-09
6.86798e-09
6.86772e-09
6.86649e-09
6.86654e-09
6.86581e-09
6.86607e-09
6.86607e-09
6.86624e-09
6.86543e-09
6.86545e-09
6.86536e-09
6.86535e-09
6.86544e-09
6.86541e-09
6.8662e-09
6.86602e-09
6.86604e-09
6.86576e-09
6.86649e-09
6.86642e-09
6.86764e-09
6.86791e-09
6.86981e-09
6.87078e-09
6.8735e-09
6.87673e-09
6.88134e-09
6.88851e-09
6.89595e-09
6.91482e-09
6.93086e-09
6.9694e-09
7.0064e-09
7.05512e-09
7.14407e-09
7.20413e-09
6.58482e-09
6.52895e-09
6.44832e-09
6.40199e-09
6.37053e-09
6.33478e-09
6.32066e-09
6.30336e-09
6.29683e-09
6.29018e-09
6.28588e-09
6.283e-09
6.28041e-09
6.27948e-09
6.27777e-09
6.27756e-09
6.27642e-09
6.27648e-09
6.2758e-09
6.27604e-09
6.27598e-09
6.27613e-09
6.27547e-09
6.27549e-09
6.27541e-09
6.2754e-09
6.27548e-09
6.27545e-09
6.27609e-09
6.27594e-09
6.27601e-09
6.27575e-09
6.27644e-09
6.27635e-09
6.27749e-09
6.27771e-09
6.27946e-09
6.28033e-09
6.28287e-09
6.2858e-09
6.29013e-09
6.29683e-09
6.30331e-09
6.32058e-09
6.33467e-09
6.37037e-09
6.40181e-09
6.44809e-09
6.52882e-09
6.5846e-09
6.00781e-09
5.95617e-09
5.88299e-09
5.84045e-09
5.8103e-09
5.77972e-09
5.76741e-09
5.75161e-09
5.74594e-09
5.73975e-09
5.73575e-09
5.73318e-09
5.73079e-09
5.72997e-09
5.72839e-09
5.72822e-09
5.72718e-09
5.72725e-09
5.72662e-09
5.72684e-09
5.72674e-09
5.72687e-09
5.72633e-09
5.72637e-09
5.72629e-09
5.72628e-09
5.72635e-09
5.72631e-09
5.72684e-09
5.7267e-09
5.72681e-09
5.72657e-09
5.72721e-09
5.72712e-09
5.72816e-09
5.72833e-09
5.72993e-09
5.73071e-09
5.73306e-09
5.73571e-09
5.73967e-09
5.74592e-09
5.75156e-09
5.76733e-09
5.77961e-09
5.81017e-09
5.84029e-09
5.88279e-09
5.95606e-09
6.0076e-09
5.47154e-09
5.42412e-09
5.35771e-09
5.31901e-09
5.29229e-09
5.2634e-09
5.252e-09
5.23695e-09
5.23169e-09
5.22572e-09
5.22192e-09
5.21946e-09
5.21717e-09
5.21639e-09
5.21489e-09
5.21472e-09
5.21373e-09
5.2138e-09
5.21319e-09
5.21339e-09
5.21326e-09
5.21338e-09
5.21291e-09
5.21294e-09
5.21287e-09
5.21286e-09
5.21293e-09
5.21289e-09
5.21335e-09
5.21323e-09
5.21336e-09
5.21315e-09
5.21376e-09
5.21368e-09
5.21467e-09
5.21483e-09
5.21636e-09
5.2171e-09
5.21935e-09
5.22186e-09
5.2256e-09
5.23163e-09
5.23686e-09
5.25189e-09
5.26326e-09
5.2922e-09
5.31885e-09
5.35753e-09
5.42402e-09
5.47135e-09
4.97478e-09
4.93161e-09
4.87133e-09
4.83658e-09
4.81299e-09
4.7866e-09
4.77671e-09
4.76298e-09
4.7584e-09
4.75288e-09
4.74949e-09
4.74728e-09
4.7452e-09
4.74452e-09
4.74315e-09
4.74302e-09
4.74212e-09
4.7422e-09
4.74165e-09
4.74183e-09
4.74168e-09
4.74179e-09
4.7414e-09
4.74144e-09
4.74137e-09
4.74137e-09
4.74143e-09
4.74138e-09
4.74176e-09
4.74165e-09
4.7418e-09
4.74161e-09
4.74216e-09
4.74207e-09
4.74297e-09
4.7431e-09
4.74448e-09
4.74514e-09
4.74719e-09
4.74943e-09
4.75277e-09
4.75833e-09
4.76289e-09
4.7766e-09
4.78647e-09
4.81292e-09
4.83643e-09
4.87118e-09
4.93152e-09
4.97461e-09
4.51664e-09
4.47744e-09
4.42366e-09
4.39242e-09
4.37176e-09
4.34781e-09
4.3393e-09
4.32684e-09
4.32287e-09
4.31783e-09
4.31482e-09
4.31287e-09
4.311e-09
4.31041e-09
4.30917e-09
4.30908e-09
4.30827e-09
4.30835e-09
4.30785e-09
4.30802e-09
4.30786e-09
4.30796e-09
4.30764e-09
4.30768e-09
4.30762e-09
4.30762e-09
4.30767e-09
4.30762e-09
4.30794e-09
4.30783e-09
4.30799e-09
4.30781e-09
4.30832e-09
4.30822e-09
4.30903e-09
4.30913e-09
4.31037e-09
4.31094e-09
4.31278e-09
4.31477e-09
4.31772e-09
4.3228e-09
4.32675e-09
4.3392e-09
4.34769e-09
4.3717e-09
4.39229e-09
4.42352e-09
4.47736e-09
4.51649e-09
4.09599e-09
4.05901e-09
4.01057e-09
3.98187e-09
3.96349e-09
3.94168e-09
3.93422e-09
3.92284e-09
3.91935e-09
3.91476e-09
3.91209e-09
3.91034e-09
3.90866e-09
3.90814e-09
3.90702e-09
3.90695e-09
3.90622e-09
3.9063e-09
3.90585e-09
3.906e-09
3.90583e-09
3.90593e-09
3.90567e-09
3.90571e-09
3.90566e-09
3.90565e-09
3.9057e-09
3.90565e-09
3.9059e-09
3.9058e-09
3.90597e-09
3.90581e-09
3.90627e-09
3.90617e-09
3.9069e-09
3.90698e-09
3.9081e-09
3.90861e-09
3.91026e-09
3.91204e-09
3.91466e-09
3.91928e-09
3.92275e-09
3.93412e-09
3.94157e-09
3.96343e-09
3.98176e-09
4.01044e-09
4.05894e-09
4.09585e-09
3.71365e-09
3.68015e-09
3.63814e-09
3.6125e-09
3.59661e-09
3.57716e-09
3.57085e-09
3.56062e-09
3.55765e-09
3.55354e-09
3.55123e-09
3.5497e-09
3.54822e-09
3.54778e-09
3.54679e-09
3.54674e-09
3.5461e-09
3.54618e-09
3.54578e-09
3.54592e-09
3.54575e-09
3.54584e-09
3.54563e-09
3.54567e-09
3.54563e-09
3.54562e-09
3.54566e-09
3.54562e-09
3.54582e-09
3.54573e-09
3.54589e-09
3.54575e-09
3.54615e-09
3.54606e-09
3.5467e-09
3.54675e-09
3.54774e-09
3.54818e-09
3.54963e-09
3.55118e-09
3.55344e-09
3.55757e-09
3.56054e-09
3.57076e-09
3.57706e-09
3.59655e-09
3.6124e-09
3.63803e-09
3.68008e-09
3.71353e-09
3.36848e-09
3.33831e-09
3.29978e-09
3.27672e-09
3.26288e-09
3.24561e-09
3.24022e-09
3.23102e-09
3.22847e-09
3.22482e-09
3.22283e-09
3.22149e-09
3.2202e-09
3.21982e-09
3.21895e-09
3.21892e-09
3.21835e-09
3.21844e-09
3.21809e-09
3.21821e-09
3.21806e-09
3.21814e-09
3.21796e-09
3.218e-09
3.21796e-09
3.21796e-09
3.218e-09
3.21795e-09
3.21812e-09
3.21803e-09
3.21818e-09
3.21806e-09
3.21841e-09
3.21832e-09
3.21889e-09
3.21892e-09
3.21979e-09
3.22016e-09
3.22143e-09
3.22279e-09
3.22474e-09
3.2284e-09
3.23094e-09
3.24013e-09
3.24551e-09
3.26281e-09
3.27663e-09
3.2997e-09
3.33826e-09
3.36837e-09
3.05976e-09
3.03286e-09
2.99982e-09
2.97964e-09
2.96788e-09
2.95278e-09
2.94832e-09
2.94014e-09
2.93802e-09
2.93483e-09
2.93314e-09
2.93199e-09
2.93089e-09
2.93057e-09
2.92982e-09
2.92981e-09
2.92932e-09
2.9294e-09
2.92909e-09
2.92921e-09
2.92906e-09
2.92914e-09
2.929e-09
2.92903e-09
2.929e-09
2.929e-09
2.92903e-09
2.92898e-09
2.92912e-09
2.92904e-09
2.92918e-09
2.92907e-09
2.92937e-09
2.92928e-09
2.92978e-09
2.92979e-09
2.93054e-09
2.93085e-09
2.93194e-09
2.93311e-09
2.93476e-09
2.93795e-09
2.94007e-09
2.94824e-09
2.9527e-09
2.96781e-09
2.97956e-09
2.99974e-09
3.03282e-09
3.05967e-09
2.78652e-09
2.76275e-09
2.7347e-09
2.71726e-09
2.70738e-09
2.69434e-09
2.6907e-09
2.68345e-09
2.68171e-09
2.67896e-09
2.67755e-09
2.67658e-09
2.67564e-09
2.67539e-09
2.67474e-09
2.67474e-09
2.67432e-09
2.6744e-09
2.67414e-09
2.67424e-09
2.67411e-09
2.67418e-09
2.67406e-09
2.6741e-09
2.67407e-09
2.67407e-09
2.67409e-09
2.67405e-09
2.67417e-09
2.67409e-09
2.67422e-09
2.67411e-09
2.67437e-09
2.67429e-09
2.67471e-09
2.67471e-09
2.67536e-09
2.6756e-09
2.67653e-09
2.67752e-09
2.6789e-09
2.68165e-09
2.68339e-09
2.69063e-09
2.69427e-09
2.70732e-09
2.71719e-09
2.73463e-09
2.76271e-09
2.78644e-09
2.54744e-09
2.52658e-09
2.50305e-09
2.4882e-09
2.48e-09
2.46887e-09
2.46594e-09
2.45954e-09
2.45814e-09
2.45579e-09
2.45463e-09
2.45381e-09
2.45303e-09
2.45283e-09
2.45229e-09
2.4523e-09
2.45194e-09
2.45202e-09
2.45179e-09
2.45189e-09
2.45177e-09
2.45184e-09
2.45174e-09
2.45177e-09
2.45175e-09
2.45175e-09
2.45177e-09
2.45173e-09
2.45182e-09
2.45175e-09
2.45186e-09
2.45177e-09
2.45199e-09
2.45191e-09
2.45227e-09
2.45226e-09
2.4528e-09
2.453e-09
2.45377e-09
2.4546e-09
2.45574e-09
2.45808e-09
2.45948e-09
2.46588e-09
2.4688e-09
2.47994e-09
2.48814e-09
2.50299e-09
2.52655e-09
2.54737e-09
2.3406e-09
2.32281e-09
2.30328e-09
2.29073e-09
2.28402e-09
2.27463e-09
2.27233e-09
2.26667e-09
2.26556e-09
2.26359e-09
2.26264e-09
2.26196e-09
2.26132e-09
2.26116e-09
2.26071e-09
2.26073e-09
2.26043e-09
2.2605e-09
2.26031e-09
2.2604e-09
2.2603e-09
2.26035e-09
2.26028e-09
2.26031e-09
2.26029e-09
2.26028e-09
2.2603e-09
2.26027e-09
2.26034e-09
2.26028e-09
2.26037e-09
2.26029e-09
2.26047e-09
2.2604e-09
2.2607e-09
2.26068e-09
2.26113e-09
2.26129e-09
2.26192e-09
2.26262e-09
2.26354e-09
2.2655e-09
2.26662e-09
2.27228e-09
2.27458e-09
2.28397e-09
2.29068e-09
2.30323e-09
2.32278e-09
2.34053e-09
2.16416e-09
2.14878e-09
2.13238e-09
2.1217e-09
2.11616e-09
2.10828e-09
2.10648e-09
2.10279e-09
2.10193e-09
2.10029e-09
2.09954e-09
2.09898e-09
2.09846e-09
2.09833e-09
2.09796e-09
2.09799e-09
2.09774e-09
2.09781e-09
2.09765e-09
2.09773e-09
2.09764e-09
2.09769e-09
2.09763e-09
2.09766e-09
2.09764e-09
2.09764e-09
2.09765e-09
2.09762e-09
2.09768e-09
2.09763e-09
2.0977e-09
2.09763e-09
2.09778e-09
2.09772e-09
2.09796e-09
2.09794e-09
2.09831e-09
2.09843e-09
2.09894e-09
2.09951e-09
2.10025e-09
2.10188e-09
2.10274e-09
2.10643e-09
2.10823e-09
2.11611e-09
2.12166e-09
2.13233e-09
2.14876e-09
2.16411e-09
2.01595e-09
2.00315e-09
1.98979e-09
1.98098e-09
1.97654e-09
1.97006e-09
1.9687e-09
1.96561e-09
1.96495e-09
1.96361e-09
1.96302e-09
1.96256e-09
1.96215e-09
1.96206e-09
1.96176e-09
1.96178e-09
1.96158e-09
1.96164e-09
1.96152e-09
1.96158e-09
1.96151e-09
1.96156e-09
1.96151e-09
1.96153e-09
1.96152e-09
1.96152e-09
1.96153e-09
1.9615e-09
1.96155e-09
1.9615e-09
1.96156e-09
1.9615e-09
1.96162e-09
1.96156e-09
1.96176e-09
1.96173e-09
1.96203e-09
1.96212e-09
1.96253e-09
1.96299e-09
1.96357e-09
1.96491e-09
1.96556e-09
1.96865e-09
1.97002e-09
1.9765e-09
1.98094e-09
1.98976e-09
2.00313e-09
2.0159e-09
1.89345e-09
1.88289e-09
1.87214e-09
1.86476e-09
1.86112e-09
1.85573e-09
1.85468e-09
1.85209e-09
1.85158e-09
1.85047e-09
1.85e-09
1.84963e-09
1.84929e-09
1.84922e-09
1.84898e-09
1.84901e-09
1.84885e-09
1.8489e-09
1.8488e-09
1.84885e-09
1.84879e-09
1.84883e-09
1.8488e-09
1.84882e-09
1.84881e-09
1.84881e-09
1.84881e-09
1.84879e-09
1.84882e-09
1.84878e-09
1.84883e-09
1.84878e-09
1.84888e-09
1.84882e-09
1.84899e-09
1.84896e-09
1.8492e-09
1.84927e-09
1.84959e-09
1.84998e-09
1.85044e-09
1.85154e-09
1.85205e-09
1.85464e-09
1.85569e-09
1.86109e-09
1.86472e-09
1.87211e-09
1.88287e-09
1.89341e-09
1.79278e-09
1.78404e-09
1.77547e-09
1.7695e-09
1.76661e-09
1.76232e-09
1.76151e-09
1.75942e-09
1.75903e-09
1.75815e-09
1.75779e-09
1.75749e-09
1.75723e-09
1.75718e-09
1.75699e-09
1.75702e-09
1.75689e-09
1.75694e-09
1.75686e-09
1.7569e-09
1.75686e-09
1.75689e-09
1.75687e-09
1.75688e-09
1.75688e-09
1.75687e-09
1.75688e-09
1.75686e-09
1.75688e-09
1.75685e-09
1.75689e-09
1.75684e-09
1.75692e-09
1.75687e-09
1.757e-09
1.75697e-09
1.75716e-09
1.75721e-09
1.75746e-09
1.75776e-09
1.75812e-09
1.75899e-09
1.75938e-09
1.76148e-09
1.76229e-09
1.76657e-09
1.76947e-09
1.77544e-09
1.78403e-09
1.79274e-09
1.71224e-09
1.70524e-09
1.69849e-09
1.6938e-09
1.69151e-09
1.68816e-09
1.68753e-09
1.68587e-09
1.68557e-09
1.68489e-09
1.68461e-09
1.68438e-09
1.68418e-09
1.68414e-09
1.684e-09
1.68402e-09
1.68392e-09
1.68396e-09
1.6839e-09
1.68394e-09
1.68391e-09
1.68393e-09
1.68391e-09
1.68393e-09
1.68392e-09
1.68392e-09
1.68393e-09
1.68391e-09
1.68393e-09
1.6839e-09
1.68392e-09
1.68389e-09
1.68394e-09
1.6839e-09
1.684e-09
1.68398e-09
1.68412e-09
1.68416e-09
1.68435e-09
1.68458e-09
1.68486e-09
1.68554e-09
1.68584e-09
1.6875e-09
1.68813e-09
1.69148e-09
1.69377e-09
1.69847e-09
1.70523e-09
1.71221e-09
1.65038e-09
1.64479e-09
1.63951e-09
1.63578e-09
1.63397e-09
1.63135e-09
1.63087e-09
1.62955e-09
1.62932e-09
1.62879e-09
1.62857e-09
1.62839e-09
1.62824e-09
1.62822e-09
1.62811e-09
1.62812e-09
1.62805e-09
1.62808e-09
1.62804e-09
1.62807e-09
1.62805e-09
1.62807e-09
1.62806e-09
1.62807e-09
1.62807e-09
1.62807e-09
1.62807e-09
1.62805e-09
1.62807e-09
1.62804e-09
1.62806e-09
1.62803e-09
1.62807e-09
1.62804e-09
1.62811e-09
1.62809e-09
1.6282e-09
1.62822e-09
1.62837e-09
1.62855e-09
1.62876e-09
1.62929e-09
1.62952e-09
1.63085e-09
1.63133e-09
1.63395e-09
1.63576e-09
1.63949e-09
1.64475e-09
1.65037e-09
1.60337e-09
1.5989e-09
1.59478e-09
1.59184e-09
1.59041e-09
1.58837e-09
1.588e-09
1.58696e-09
1.58678e-09
1.58636e-09
1.58619e-09
1.58606e-09
1.58594e-09
1.58592e-09
1.58583e-09
1.58585e-09
1.5858e-09
1.58582e-09
1.58579e-09
1.58582e-09
1.5858e-09
1.58582e-09
1.58581e-09
1.58582e-09
1.58582e-09
1.58582e-09
1.58582e-09
1.58581e-09
1.58581e-09
1.58579e-09
1.5858e-09
1.58578e-09
1.58581e-09
1.58578e-09
1.58583e-09
1.58582e-09
1.5859e-09
1.58592e-09
1.58603e-09
1.58617e-09
1.58633e-09
1.58675e-09
1.58693e-09
1.58797e-09
1.58835e-09
1.59039e-09
1.59182e-09
1.59476e-09
1.59884e-09
1.60339e-09
1.56864e-09
1.56501e-09
1.56181e-09
1.55949e-09
1.55834e-09
1.55676e-09
1.55645e-09
1.55564e-09
1.55549e-09
1.55516e-09
1.55504e-09
1.55493e-09
1.55484e-09
1.55482e-09
1.55476e-09
1.55477e-09
1.55474e-09
1.55476e-09
1.55473e-09
1.55476e-09
1.55475e-09
1.55476e-09
1.55476e-09
1.55477e-09
1.55477e-09
1.55477e-09
1.55477e-09
1.55475e-09
1.55476e-09
1.55474e-09
1.55475e-09
1.55472e-09
1.55474e-09
1.55472e-09
1.55476e-09
1.55474e-09
1.55481e-09
1.55482e-09
1.55491e-09
1.55501e-09
1.55514e-09
1.55546e-09
1.55561e-09
1.55643e-09
1.55674e-09
1.55832e-09
1.55947e-09
1.56179e-09
1.56493e-09
1.56868e-09
1.5435e-09
1.54057e-09
1.53802e-09
1.53619e-09
1.53525e-09
1.53404e-09
1.53376e-09
1.53313e-09
1.533e-09
1.53275e-09
1.53264e-09
1.53256e-09
1.53249e-09
1.53248e-09
1.53243e-09
1.53244e-09
1.53241e-09
1.53243e-09
1.53242e-09
1.53244e-09
1.53243e-09
1.53244e-09
1.53244e-09
1.53245e-09
1.53245e-09
1.53245e-09
1.53245e-09
1.53244e-09
1.53244e-09
1.53242e-09
1.53243e-09
1.53241e-09
1.53242e-09
1.5324e-09
1.53243e-09
1.53241e-09
1.53246e-09
1.53247e-09
1.53254e-09
1.53262e-09
1.53272e-09
1.53297e-09
1.5331e-09
1.53374e-09
1.53401e-09
1.53523e-09
1.53617e-09
1.53801e-09
1.54051e-09
1.54353e-09
1.52582e-09
1.52347e-09
1.52154e-09
1.52007e-09
1.51927e-09
1.51832e-09
1.51807e-09
1.51757e-09
1.51746e-09
1.51726e-09
1.51717e-09
1.5171e-09
1.51705e-09
1.51704e-09
1.517e-09
1.51701e-09
1.51699e-09
1.51701e-09
1.517e-09
1.51701e-09
1.51701e-09
1.51702e-09
1.51702e-09
1.51703e-09
1.51703e-09
1.51703e-09
1.51703e-09
1.51702e-09
1.51702e-09
1.517e-09
1.517e-09
1.51699e-09
1.517e-09
1.51698e-09
1.517e-09
1.51699e-09
1.51702e-09
1.51703e-09
1.51708e-09
1.51715e-09
1.51724e-09
1.51744e-09
1.51755e-09
1.51805e-09
1.5183e-09
1.51925e-09
1.52005e-09
1.52152e-09
1.52343e-09
1.52583e-09
1.51384e-09
1.51189e-09
1.51029e-09
1.50908e-09
1.50839e-09
1.50763e-09
1.50741e-09
1.507e-09
1.5069e-09
1.50673e-09
1.50666e-09
1.5066e-09
1.50656e-09
1.50655e-09
1.50652e-09
1.50653e-09
1.50651e-09
1.50653e-09
1.50652e-09
1.50653e-09
1.50653e-09
1.50655e-09
1.50655e-09
1.50655e-09
1.50656e-09
1.50655e-09
1.50655e-09
1.50654e-09
1.50654e-09
1.50653e-09
1.50653e-09
1.50651e-09
1.50652e-09
1.5065e-09
1.50651e-09
1.50651e-09
1.50653e-09
1.50654e-09
1.50658e-09
1.50664e-09
1.50671e-09
1.50687e-09
1.50698e-09
1.50739e-09
1.50761e-09
1.50838e-09
1.50906e-09
1.51027e-09
1.51186e-09
1.51384e-09
1.50575e-09
1.50409e-09
1.50274e-09
1.50172e-09
1.50111e-09
1.50049e-09
1.50027e-09
1.49995e-09
1.49984e-09
1.49971e-09
1.49964e-09
1.49959e-09
1.49956e-09
1.49955e-09
1.49952e-09
1.49953e-09
1.49952e-09
1.49953e-09
1.49953e-09
1.49954e-09
1.49954e-09
1.49955e-09
1.49955e-09
1.49956e-09
1.49956e-09
1.49956e-09
1.49956e-09
1.49955e-09
1.49955e-09
1.49953e-09
1.49953e-09
1.49952e-09
1.49952e-09
1.49951e-09
1.49952e-09
1.49951e-09
1.49953e-09
1.49954e-09
1.49957e-09
1.49962e-09
1.49969e-09
1.49982e-09
1.49992e-09
1.50025e-09
1.50047e-09
1.5011e-09
1.5017e-09
1.50272e-09
1.50408e-09
1.50574e-09
1.50034e-09
1.4989e-09
1.49772e-09
1.49684e-09
1.4963e-09
1.49578e-09
1.49557e-09
1.49529e-09
1.49519e-09
1.49507e-09
1.49502e-09
1.49497e-09
1.49494e-09
1.49493e-09
1.49491e-09
1.49492e-09
1.49491e-09
1.49492e-09
1.49492e-09
1.49493e-09
1.49493e-09
1.49494e-09
1.49494e-09
1.49495e-09
1.49495e-09
1.49495e-09
1.49495e-09
1.49494e-09
1.49494e-09
1.49492e-09
1.49492e-09
1.49491e-09
1.49491e-09
1.4949e-09
1.4949e-09
1.4949e-09
1.49491e-09
1.49492e-09
1.49495e-09
1.495e-09
1.49505e-09
1.49517e-09
1.49527e-09
1.49555e-09
1.49576e-09
1.49628e-09
1.49683e-09
1.49771e-09
1.49888e-09
1.50033e-09
1.49674e-09
1.49546e-09
1.49442e-09
1.49365e-09
1.49315e-09
1.4927e-09
1.4925e-09
1.49226e-09
1.49216e-09
1.49206e-09
1.492e-09
1.49196e-09
1.49194e-09
1.49193e-09
1.49191e-09
1.49191e-09
1.49191e-09
1.49192e-09
1.49192e-09
1.49193e-09
1.49193e-09
1.49194e-09
1.49194e-09
1.49195e-09
1.49195e-09
1.49195e-09
1.49195e-09
1.49194e-09
1.49193e-09
1.49192e-09
1.49192e-09
1.49191e-09
1.49191e-09
1.4919e-09
1.4919e-09
1.4919e-09
1.49191e-09
1.49192e-09
1.49195e-09
1.49199e-09
1.49204e-09
1.49214e-09
1.49224e-09
1.49248e-09
1.49268e-09
1.49313e-09
1.49363e-09
1.49441e-09
1.49545e-09
1.49674e-09
1.49439e-09
1.49322e-09
1.49228e-09
1.49158e-09
1.49112e-09
1.49072e-09
1.49052e-09
1.49031e-09
1.49022e-09
1.49013e-09
1.49008e-09
1.49004e-09
1.49001e-09
1.49e-09
1.48999e-09
1.48999e-09
1.48999e-09
1.48999e-09
1.48999e-09
1.49e-09
1.49001e-09
1.49002e-09
1.49002e-09
1.49003e-09
1.49003e-09
1.49003e-09
1.49002e-09
1.49002e-09
1.49001e-09
1.49e-09
1.49e-09
1.48999e-09
1.48998e-09
1.48998e-09
1.48998e-09
1.48998e-09
1.48999e-09
1.49e-09
1.49002e-09
1.49006e-09
1.49011e-09
1.4902e-09
1.4903e-09
1.49051e-09
1.49071e-09
1.4911e-09
1.49157e-09
1.49227e-09
1.49321e-09
1.49438e-09
1.4929e-09
1.49182e-09
1.49095e-09
1.4903e-09
1.48986e-09
1.4895e-09
1.48931e-09
1.48912e-09
1.48903e-09
1.48894e-09
1.48889e-09
1.48886e-09
1.48883e-09
1.48882e-09
1.48881e-09
1.48881e-09
1.48881e-09
1.48881e-09
1.48881e-09
1.48882e-09
1.48883e-09
1.48884e-09
1.48884e-09
1.48885e-09
1.48885e-09
1.48885e-09
1.48884e-09
1.48884e-09
1.48883e-09
1.48882e-09
1.48882e-09
1.48881e-09
1.4888e-09
1.4888e-09
1.4888e-09
1.4888e-09
1.48881e-09
1.48882e-09
1.48884e-09
1.48887e-09
1.48892e-09
1.48901e-09
1.4891e-09
1.48929e-09
1.48949e-09
1.48985e-09
1.49029e-09
1.49094e-09
1.49181e-09
1.49289e-09
1.49212e-09
1.49108e-09
1.49025e-09
1.48964e-09
1.48921e-09
1.48888e-09
1.48869e-09
1.48851e-09
1.48842e-09
1.48833e-09
1.48829e-09
1.48825e-09
1.48823e-09
1.48822e-09
1.4882e-09
1.48821e-09
1.4882e-09
1.48821e-09
1.48821e-09
1.48822e-09
1.48822e-09
1.48823e-09
1.48823e-09
1.48824e-09
1.48824e-09
1.48824e-09
1.48824e-09
1.48823e-09
1.48823e-09
1.48822e-09
1.48821e-09
1.4882e-09
1.4882e-09
1.48819e-09
1.48819e-09
1.48819e-09
1.4882e-09
1.48821e-09
1.48823e-09
1.48827e-09
1.48832e-09
1.4884e-09
1.48849e-09
1.48867e-09
1.48886e-09
1.4892e-09
1.48963e-09
1.49024e-09
1.49107e-09
1.49211e-09
)
;

boundaryField
{
    fuel
    {
        type            fixedValue;
        value           nonuniform 0();
    }
    wall
    {
        type            zeroGradient;
    }
    outlet
    {
        type            zeroGradient;
    }
    frontAndBack
    {
        type            empty;
    }
    procBoundary3to2
    {
        type            processor;
        value           nonuniform List<scalar> 
51
(
1.72291e-08
1.72257e-08
1.72211e-08
1.72147e-08
1.7213e-08
1.7209e-08
1.72085e-08
1.7206e-08
1.72063e-08
1.72112e-08
1.72111e-08
1.72043e-08
1.72044e-08
1.72042e-08
1.72041e-08
1.72044e-08
1.72043e-08
1.7211e-08
1.72111e-08
1.72061e-08
1.72059e-08
1.72084e-08
1.72089e-08
1.72128e-08
1.72146e-08
1.72208e-08
1.72255e-08
1.72287e-08
1.72394e-08
1.72561e-08
1.72813e-08
1.73126e-08
1.73633e-08
1.74189e-08
1.75159e-08
1.76307e-08
1.77688e-08
1.79888e-08
1.81092e-08
1.6704e-08
1.65915e-08
1.6388e-08
1.62607e-08
1.61566e-08
1.60679e-08
1.60173e-08
1.59711e-08
1.59425e-08
1.59189e-08
1.59037e-08
1.59037e-08
)
;
    }
}


// ************************************************************************* //
