/*--------------------------------*- C++ -*----------------------------------*\
| =========                 |                                                 |
| \\      /  F ield         | OpenFOAM: The Open Source CFD Toolbox           |
|  \\    /   O peration     | Version:  dev                                   |
|   \\  /    A nd           | Web:      www.OpenFOAM.org                      |
|    \\/     M anipulation  |                                                 |
\*---------------------------------------------------------------------------*/
FoamFile
{
    version     2.0;
    format      ascii;
    class       volScalarField;
    location    "0.055";
    object      C5H4OH;
}
// * * * * * * * * * * * * * * * * * * * * * * * * * * * * * * * * * * * * * //

dimensions      [0 0 0 0 0 0 0];

internalField   nonuniform List<scalar> 
250
(
7.92732e-09
7.92807e-09
7.92374e-09
7.9267e-09
7.9245e-09
7.92315e-09
7.92694e-09
7.96176e-09
8.26606e-09
1.09899e-08
1.13815e-08
4.58997e-09
4.58837e-09
4.58682e-09
4.58788e-09
4.5894e-09
4.58925e-09
4.59172e-09
4.61831e-09
4.84672e-09
6.97205e-09
1.92067e-08
2.33397e-09
2.3335e-09
2.33319e-09
2.3333e-09
2.33399e-09
2.33376e-09
2.33526e-09
2.3531e-09
2.50149e-09
3.98445e-09
2.04922e-08
1.22166e-09
1.22149e-09
1.22159e-09
1.22137e-09
1.22187e-09
1.22161e-09
1.22241e-09
1.23443e-09
1.33325e-09
2.39695e-09
1.85876e-08
7.04437e-10
7.04338e-10
7.04538e-10
7.04249e-10
7.04625e-10
7.04395e-10
7.04586e-10
7.12597e-10
7.82292e-10
1.59399e-09
1.53279e-08
4.40833e-10
4.40729e-10
4.40995e-10
4.40619e-10
4.41002e-10
4.4085e-10
4.40845e-10
4.50738e-10
5.1166e-10
1.1608e-09
1.17441e-08
3.09994e-10
3.09903e-10
3.10133e-10
3.0981e-10
3.10105e-10
3.0998e-10
3.08946e-10
3.17497e-10
3.68355e-10
9.02515e-10
8.32447e-09
2.30597e-10
2.30486e-10
2.30741e-10
2.30376e-10
2.30711e-10
2.30691e-10
2.32594e-10
2.40859e-10
2.80904e-10
7.32147e-10
5.2831e-09
1.83208e-10
1.831e-10
1.83335e-10
1.82996e-10
1.83294e-10
1.83299e-10
1.84576e-10
1.89915e-10
2.2833e-10
6.1015e-10
2.97885e-09
1.46508e-10
1.46401e-10
1.46603e-10
1.46308e-10
1.46558e-10
1.46593e-10
1.47483e-10
1.52606e-10
1.89012e-10
5.1764e-10
1.85297e-09
1.22927e-10
1.23118e-10
1.22839e-10
1.23067e-10
1.23122e-10
1.23788e-10
1.28736e-10
1.58571e-10
4.44431e-10
1.50157e-09
1.02861e-10
1.0303e-10
1.0278e-10
1.02978e-10
1.03055e-10
1.03662e-10
1.08969e-10
1.37701e-10
3.84644e-10
1.49337e-09
8.71444e-11
8.72932e-11
8.70712e-11
8.72426e-11
8.73379e-11
8.78512e-11
9.28932e-11
1.19594e-10
3.34608e-10
1.56907e-09
7.45845e-11
7.47143e-11
7.45181e-11
7.46662e-11
7.47765e-11
7.52246e-11
7.99832e-11
1.03775e-10
2.92273e-10
1.52148e-09
6.44107e-11
6.45227e-11
6.43505e-11
6.44787e-11
6.46006e-11
6.50029e-11
6.94647e-11
9.21044e-11
2.50361e-10
1.29437e-09
5.60902e-11
5.6186e-11
5.60355e-11
5.61469e-11
5.62772e-11
5.6646e-11
6.07979e-11
8.09372e-11
2.15094e-10
9.56106e-10
4.92351e-11
4.9316e-11
4.9185e-11
4.92828e-11
4.94182e-11
4.97596e-11
5.36025e-11
7.13213e-11
1.87512e-10
6.25176e-10
4.35525e-11
4.36202e-11
4.35065e-11
4.3593e-11
4.37307e-11
4.40498e-11
4.75909e-11
6.30105e-11
1.63101e-10
3.87402e-10
3.88164e-11
3.88723e-11
3.87741e-11
3.88513e-11
3.89883e-11
3.92894e-11
4.25425e-11
5.57649e-11
1.41756e-10
2.48351e-10
3.4849e-11
3.48943e-11
3.481e-11
3.48791e-11
3.50127e-11
3.52992e-11
3.82856e-11
5.02003e-11
1.23178e-10
1.72696e-10
3.15072e-11
3.15428e-11
3.14717e-11
3.15331e-11
3.16606e-11
3.19352e-11
3.46788e-11
4.52361e-11
1.06983e-10
1.30149e-10
2.86735e-11
2.86998e-11
2.86415e-11
2.86951e-11
2.88137e-11
2.90789e-11
3.16084e-11
4.06612e-11
9.17146e-11
1.04371e-10
2.65479e-11
2.65673e-11
2.65182e-11
2.65658e-11
2.66768e-11
2.69284e-11
2.89825e-11
3.67102e-11
7.95127e-11
8.76047e-11
2.46943e-11
2.47142e-11
2.46673e-11
2.47178e-11
2.48268e-11
2.50669e-11
2.70148e-11
3.33265e-11
6.92406e-11
7.59981e-11
)
;

boundaryField
{
    fuel
    {
        type            fixedValue;
        value           uniform 0;
    }
    wall
    {
        type            zeroGradient;
    }
    outlet
    {
        type            zeroGradient;
    }
    frontAndBack
    {
        type            empty;
    }
    procBoundary3to0
    {
        type            processor;
        value           nonuniform List<scalar> 10(2.32174e-11 2.32327e-11 2.31928e-11 2.32387e-11 2.33394e-11 2.35678e-11 2.52056e-11 3.07611e-11 6.06333e-11 6.74038e-11);
    }
    procBoundary3to2
    {
        type            processor;
        value           nonuniform List<scalar> 
25
(
7.92747e-09
4.59043e-09
2.3342e-09
1.22186e-09
7.04599e-10
4.40981e-10
3.10107e-10
2.30718e-10
1.83316e-10
1.46591e-10
1.23032e-10
1.23032e-10
1.02941e-10
8.72096e-11
7.46374e-11
6.44521e-11
5.61208e-11
4.92558e-11
4.35646e-11
3.88213e-11
3.48479e-11
3.15017e-11
2.86648e-11
2.65374e-11
2.4681e-11
)
;
    }
}


// ************************************************************************* //
