/*--------------------------------*- C++ -*----------------------------------*\
| =========                 |                                                 |
| \\      /  F ield         | OpenFOAM: The Open Source CFD Toolbox           |
|  \\    /   O peration     | Version:  dev                                   |
|   \\  /    A nd           | Web:      www.OpenFOAM.org                      |
|    \\/     M anipulation  |                                                 |
\*---------------------------------------------------------------------------*/
FoamFile
{
    version     2.0;
    format      ascii;
    class       volScalarField;
    location    "0.055";
    object      CO;
}
// * * * * * * * * * * * * * * * * * * * * * * * * * * * * * * * * * * * * * //

dimensions      [0 0 0 0 0 0 0];

internalField   nonuniform List<scalar> 
250
(
0.135758
0.135758
0.135758
0.135758
0.135759
0.135757
0.135755
0.135714
0.135507
0.135136
0.110606
0.157972
0.157972
0.15797
0.157974
0.157965
0.157974
0.157946
0.157911
0.157501
0.157192
0.154312
0.163925
0.163926
0.163922
0.163929
0.163912
0.163933
0.163873
0.163849
0.163194
0.162782
0.169083
0.166634
0.166635
0.166628
0.166641
0.166611
0.166649
0.166549
0.166541
0.165602
0.165006
0.175314
0.1684
0.168401
0.168391
0.168409
0.168368
0.168422
0.168278
0.168291
0.167052
0.166193
0.178871
0.169785
0.169787
0.169774
0.169797
0.169743
0.169814
0.169625
0.169661
0.168228
0.166923
0.180036
0.171082
0.171085
0.171068
0.171098
0.171028
0.171119
0.170867
0.170924
0.169155
0.167501
0.180053
0.172161
0.172164
0.172144
0.17218
0.172097
0.172205
0.171901
0.171978
0.17012
0.167967
0.179238
0.173243
0.173248
0.173222
0.173265
0.173168
0.173294
0.172944
0.173073
0.170916
0.168407
0.177818
0.174295
0.174298
0.174271
0.174316
0.174214
0.174346
0.173963
0.174095
0.171695
0.168806
0.175957
0.175285
0.175256
0.175302
0.175196
0.175332
0.174924
0.175054
0.17253
0.169245
0.173756
0.176214
0.176184
0.176231
0.176122
0.176261
0.175833
0.175957
0.17333
0.169767
0.171375
0.177091
0.177059
0.177108
0.176997
0.177136
0.176695
0.176809
0.174093
0.170331
0.169042
0.177919
0.177887
0.177937
0.177825
0.177963
0.177514
0.177613
0.174823
0.17095
0.166835
0.178702
0.17867
0.178719
0.178608
0.178744
0.178292
0.178371
0.175524
0.171543
0.164877
0.179442
0.179409
0.179458
0.179348
0.17948
0.17903
0.179087
0.176202
0.172168
0.163272
0.180139
0.180106
0.180155
0.180047
0.180174
0.17973
0.179763
0.176861
0.172881
0.162082
0.180795
0.180761
0.18081
0.180704
0.180826
0.180392
0.180399
0.177505
0.173561
0.161324
0.181411
0.181374
0.181425
0.181321
0.181438
0.181016
0.180997
0.178135
0.174321
0.160989
0.181988
0.181946
0.182001
0.181897
0.18201
0.181604
0.181559
0.178752
0.175092
0.161043
0.182527
0.182476
0.182539
0.182432
0.182542
0.182155
0.182086
0.179352
0.175808
0.161441
0.182966
0.182963
0.182979
0.182926
0.182982
0.182673
0.182529
0.179934
0.176562
0.162134
0.18336
0.183352
0.183374
0.183318
0.183377
0.183079
0.182932
0.180497
0.177266
0.163069
0.18374
0.183731
0.183752
0.183702
0.183752
0.183479
0.183313
0.181044
0.177977
0.164199
)
;

boundaryField
{
    fuel
    {
        type            fixedValue;
        value           uniform 0;
    }
    wall
    {
        type            zeroGradient;
    }
    outlet
    {
        type            zeroGradient;
    }
    frontAndBack
    {
        type            empty;
    }
    procBoundary3to0
    {
        type            processor;
        value           nonuniform List<scalar> 10(0.184037 0.184028 0.184049 0.184004 0.184047 0.1838 0.183619 0.181576 0.178653 0.16547);
    }
    procBoundary3to2
    {
        type            processor;
        value           nonuniform List<scalar> 
25
(
0.135758
0.157972
0.163926
0.166634
0.1684
0.169785
0.171082
0.172161
0.173243
0.174293
0.175281
0.175281
0.176208
0.177084
0.177912
0.178694
0.179433
0.180129
0.180785
0.181401
0.181979
0.182518
0.182958
0.183352
0.183734
)
;
    }
}


// ************************************************************************* //
