/*--------------------------------*- C++ -*----------------------------------*\
| =========                 |                                                 |
| \\      /  F ield         | OpenFOAM: The Open Source CFD Toolbox           |
|  \\    /   O peration     | Version:  dev                                   |
|   \\  /    A nd           | Web:      www.OpenFOAM.org                      |
|    \\/     M anipulation  |                                                 |
\*---------------------------------------------------------------------------*/
FoamFile
{
    version     2.0;
    format      ascii;
    class       volScalarField;
    location    "0.055";
    object      CO2;
}
// * * * * * * * * * * * * * * * * * * * * * * * * * * * * * * * * * * * * * //

dimensions      [0 0 0 0 0 0 0];

internalField   nonuniform List<scalar> 
1989
(
0.0486802
0.0486804
0.0486805
0.0486806
0.0486807
0.0486807
0.0486807
0.0486808
0.0486808
0.0486807
0.0486807
0.0486808
0.0486807
0.0486807
0.0486807
0.0486807
0.0486807
0.0486807
0.0486807
0.0486808
0.0486808
0.0486807
0.0486807
0.0486806
0.0486806
0.0486805
0.0486803
0.0486802
0.04868
0.0486797
0.0486793
0.0486787
0.0486779
0.0486769
0.0486755
0.0486736
0.0486714
0.0486683
0.0486664
0.0486748
0.0486764
0.048679
0.0486809
0.0486825
0.0486836
0.0486845
0.0486852
0.0486857
0.048686
0.0486863
0.0486865
0.0486866
0.0486867
0.0486868
0.0486868
0.0486869
0.0486869
0.0486869
0.0486869
0.0486868
0.0486868
0.0486869
0.0486869
0.0486869
0.0486869
0.0486869
0.0486869
0.0486868
0.0486868
0.0486869
0.0486869
0.0486869
0.0486869
0.0486868
0.0486867
0.0486867
0.0486865
0.0486864
0.0486862
0.048686
0.0486856
0.0486851
0.0486845
0.0486836
0.0486825
0.0486808
0.0486789
0.0486763
0.0486748
0.0486802
0.0486814
0.0486835
0.048685
0.0486864
0.0486873
0.048688
0.0486885
0.048689
0.0486893
0.0486895
0.0486896
0.0486897
0.0486898
0.0486899
0.0486899
0.04869
0.04869
0.04869
0.04869
0.0486899
0.0486899
0.04869
0.04869
0.0486899
0.0486899
0.0486899
0.04869
0.0486899
0.0486899
0.04869
0.04869
0.04869
0.04869
0.0486899
0.0486899
0.0486898
0.0486897
0.0486896
0.0486894
0.0486892
0.0486889
0.0486885
0.048688
0.0486872
0.0486863
0.0486849
0.0486834
0.0486814
0.0486801
0.0486825
0.0486834
0.0486849
0.0486861
0.0486873
0.0486879
0.0486885
0.0486889
0.0486893
0.0486895
0.0486897
0.0486898
0.0486899
0.04869
0.04869
0.0486901
0.0486901
0.0486901
0.0486901
0.0486901
0.04869
0.04869
0.04869
0.04869
0.04869
0.04869
0.04869
0.04869
0.04869
0.04869
0.0486901
0.0486901
0.0486901
0.0486901
0.04869
0.04869
0.0486899
0.0486899
0.0486898
0.0486896
0.0486895
0.0486892
0.0486889
0.0486885
0.0486879
0.0486872
0.0486861
0.0486849
0.0486833
0.0486824
0.0486817
0.0486824
0.0486834
0.0486842
0.0486851
0.0486856
0.0486861
0.0486863
0.0486866
0.0486868
0.0486869
0.048687
0.0486871
0.0486872
0.0486872
0.0486872
0.0486872
0.0486872
0.0486872
0.0486872
0.0486872
0.0486872
0.0486872
0.0486872
0.0486871
0.0486871
0.0486872
0.0486872
0.0486871
0.0486872
0.0486872
0.0486872
0.0486872
0.0486872
0.0486872
0.0486872
0.0486871
0.0486871
0.048687
0.0486869
0.0486868
0.0486866
0.0486863
0.048686
0.0486855
0.0486851
0.0486842
0.0486833
0.0486823
0.0486817
0.048678
0.0486783
0.0486788
0.0486794
0.04868
0.0486802
0.0486806
0.0486807
0.048681
0.0486811
0.0486813
0.0486813
0.0486814
0.0486814
0.0486815
0.0486815
0.0486815
0.0486815
0.0486815
0.0486815
0.0486814
0.0486814
0.0486814
0.0486814
0.0486814
0.0486814
0.0486814
0.0486814
0.0486814
0.0486814
0.0486815
0.0486815
0.0486815
0.0486815
0.0486815
0.0486814
0.0486814
0.0486814
0.0486813
0.0486812
0.048681
0.0486809
0.0486807
0.0486805
0.0486801
0.0486799
0.0486793
0.0486787
0.0486782
0.048678
0.0486715
0.0486714
0.0486715
0.0486717
0.0486721
0.0486721
0.0486724
0.0486724
0.0486726
0.0486727
0.0486728
0.0486729
0.0486729
0.0486729
0.0486729
0.048673
0.0486729
0.048673
0.0486729
0.0486729
0.0486729
0.0486728
0.0486728
0.0486728
0.0486728
0.0486728
0.0486728
0.0486728
0.0486728
0.0486728
0.0486729
0.0486729
0.0486729
0.0486729
0.0486729
0.0486729
0.0486729
0.0486729
0.0486728
0.0486728
0.0486726
0.0486726
0.0486724
0.0486723
0.048672
0.048672
0.0486716
0.0486714
0.0486714
0.0486714
0.0486621
0.0486617
0.0486612
0.0486611
0.0486613
0.0486611
0.0486613
0.0486612
0.0486613
0.0486614
0.0486614
0.0486615
0.0486615
0.0486615
0.0486615
0.0486615
0.0486615
0.0486615
0.0486615
0.0486614
0.0486614
0.0486614
0.0486614
0.0486613
0.0486613
0.0486613
0.0486613
0.0486614
0.0486614
0.0486614
0.0486614
0.0486614
0.0486615
0.0486615
0.0486615
0.0486615
0.0486615
0.0486614
0.0486614
0.0486614
0.0486613
0.0486613
0.0486611
0.0486612
0.048661
0.0486612
0.048661
0.0486612
0.0486617
0.048662
0.0486498
0.0486491
0.0486482
0.0486477
0.0486477
0.0486473
0.0486474
0.0486472
0.0486473
0.0486473
0.0486473
0.0486474
0.0486473
0.0486474
0.0486473
0.0486474
0.0486473
0.0486473
0.0486473
0.0486473
0.0486472
0.0486472
0.0486472
0.0486472
0.0486471
0.0486471
0.0486471
0.0486472
0.0486472
0.0486472
0.0486472
0.0486473
0.0486473
0.0486473
0.0486473
0.0486473
0.0486473
0.0486473
0.0486473
0.0486473
0.0486473
0.0486473
0.0486472
0.0486473
0.0486472
0.0486476
0.0486477
0.0486481
0.048649
0.0486497
0.0486348
0.0486338
0.0486325
0.0486321
0.0486319
0.0486313
0.0486313
0.0486311
0.0486311
0.048631
0.048631
0.048631
0.048631
0.048631
0.048631
0.048631
0.0486309
0.0486309
0.0486309
0.0486309
0.0486308
0.0486308
0.0486308
0.0486308
0.0486307
0.0486307
0.0486307
0.0486308
0.0486308
0.0486308
0.0486309
0.0486309
0.0486309
0.0486309
0.048631
0.048631
0.048631
0.048631
0.048631
0.048631
0.048631
0.0486311
0.048631
0.0486313
0.0486312
0.0486318
0.048632
0.0486324
0.0486337
0.0486347
0.0486176
0.0486163
0.0486147
0.048614
0.0486136
0.0486129
0.0486128
0.0486125
0.0486125
0.0486124
0.0486124
0.0486123
0.0486123
0.0486123
0.0486122
0.0486122
0.0486122
0.0486122
0.0486121
0.0486121
0.0486121
0.048612
0.048612
0.048612
0.048612
0.048612
0.048612
0.048612
0.048612
0.048612
0.0486121
0.0486121
0.0486122
0.0486122
0.0486122
0.0486122
0.0486123
0.0486123
0.0486123
0.0486123
0.0486123
0.0486125
0.0486124
0.0486128
0.0486128
0.0486136
0.048614
0.0486146
0.0486163
0.0486175
0.0485981
0.0485966
0.0485946
0.0485936
0.0485932
0.0485923
0.0485921
0.0485917
0.0485917
0.0485915
0.0485914
0.0485914
0.0485914
0.0485913
0.0485913
0.0485913
0.0485912
0.0485912
0.0485912
0.0485911
0.0485911
0.048591
0.048591
0.048591
0.048591
0.048591
0.048591
0.048591
0.048591
0.0485911
0.0485911
0.0485911
0.0485912
0.0485912
0.0485912
0.0485913
0.0485913
0.0485913
0.0485914
0.0485914
0.0485915
0.0485916
0.0485916
0.0485921
0.0485922
0.0485931
0.0485936
0.0485945
0.0485965
0.048598
0.0485764
0.0485746
0.0485723
0.0485711
0.0485704
0.0485695
0.0485693
0.0485688
0.0485687
0.0485685
0.0485684
0.0485684
0.0485683
0.0485683
0.0485682
0.0485682
0.0485681
0.0485681
0.0485681
0.048568
0.048568
0.048568
0.0485679
0.0485679
0.0485679
0.0485679
0.0485679
0.0485679
0.0485679
0.048568
0.048568
0.048568
0.0485681
0.0485681
0.0485682
0.0485682
0.0485683
0.0485683
0.0485683
0.0485684
0.0485685
0.0485687
0.0485687
0.0485692
0.0485694
0.0485704
0.0485711
0.0485722
0.0485745
0.0485763
0.0485526
0.0485505
0.048548
0.0485466
0.0485458
0.0485447
0.0485444
0.0485438
0.0485437
0.0485434
0.0485433
0.0485432
0.0485431
0.0485431
0.048543
0.048543
0.0485429
0.0485429
0.0485428
0.0485428
0.0485428
0.0485427
0.0485427
0.0485427
0.0485426
0.0485426
0.0485426
0.0485427
0.0485427
0.0485427
0.0485428
0.0485428
0.0485429
0.0485429
0.048543
0.048543
0.0485431
0.0485431
0.0485432
0.0485433
0.0485434
0.0485436
0.0485437
0.0485443
0.0485446
0.0485457
0.0485465
0.0485479
0.0485505
0.0485525
0.0485269
0.0485246
0.0485217
0.0485202
0.0485193
0.048518
0.0485177
0.048517
0.0485169
0.0485166
0.0485165
0.0485164
0.0485163
0.0485163
0.0485162
0.0485162
0.0485161
0.048516
0.048516
0.0485159
0.0485159
0.0485158
0.0485158
0.0485158
0.0485157
0.0485157
0.0485158
0.0485158
0.0485158
0.0485159
0.0485159
0.048516
0.048516
0.048516
0.0485161
0.0485161
0.0485162
0.0485163
0.0485164
0.0485165
0.0485166
0.0485168
0.048517
0.0485177
0.048518
0.0485193
0.0485202
0.0485217
0.0485245
0.0485268
0.0484993
0.0484968
0.0484938
0.0484921
0.0484911
0.0484897
0.0484894
0.0484886
0.0484885
0.0484882
0.048488
0.0484879
0.0484878
0.0484878
0.0484877
0.0484876
0.0484875
0.0484875
0.0484874
0.0484874
0.0484873
0.0484873
0.0484873
0.0484872
0.0484872
0.0484872
0.0484872
0.0484872
0.0484873
0.0484873
0.0484874
0.0484874
0.0484875
0.0484875
0.0484876
0.0484876
0.0484877
0.0484878
0.0484879
0.048488
0.0484881
0.0484884
0.0484886
0.0484893
0.0484897
0.0484911
0.0484921
0.0484937
0.0484968
0.0484993
0.0484701
0.0484673
0.048464
0.0484621
0.048461
0.0484595
0.0484591
0.0484583
0.0484581
0.0484578
0.0484576
0.0484575
0.0484574
0.0484573
0.0484572
0.0484572
0.0484571
0.048457
0.048457
0.0484569
0.0484569
0.0484568
0.0484568
0.0484567
0.0484567
0.0484567
0.0484567
0.0484568
0.0484568
0.0484568
0.0484569
0.0484569
0.048457
0.048457
0.0484571
0.0484572
0.0484573
0.0484573
0.0484574
0.0484575
0.0484577
0.048458
0.0484582
0.0484591
0.0484594
0.048461
0.0484621
0.0484639
0.0484672
0.04847
0.0484395
0.0484364
0.048433
0.048431
0.0484299
0.0484282
0.0484278
0.0484269
0.0484267
0.0484264
0.0484262
0.048426
0.0484259
0.0484259
0.0484257
0.0484257
0.0484256
0.0484256
0.0484255
0.0484255
0.0484254
0.0484253
0.0484253
0.0484253
0.0484252
0.0484252
0.0484252
0.0484253
0.0484253
0.0484254
0.0484254
0.0484255
0.0484255
0.0484256
0.0484257
0.0484257
0.0484258
0.0484259
0.048426
0.0484261
0.0484263
0.0484267
0.0484268
0.0484277
0.0484281
0.0484298
0.0484309
0.0484329
0.0484363
0.0484394
0.0484074
0.0484041
0.0484005
0.0483983
0.0483971
0.0483953
0.0483949
0.0483939
0.0483937
0.0483933
0.0483931
0.048393
0.0483929
0.0483928
0.0483927
0.0483926
0.0483925
0.0483925
0.0483924
0.0483924
0.0483923
0.0483923
0.0483922
0.0483922
0.0483921
0.0483921
0.0483921
0.0483922
0.0483922
0.0483923
0.0483923
0.0483924
0.0483925
0.0483925
0.0483926
0.0483926
0.0483928
0.0483928
0.048393
0.0483931
0.0483933
0.0483937
0.0483939
0.0483948
0.0483953
0.048397
0.0483982
0.0484004
0.0484041
0.0484073
0.0483742
0.0483707
0.048367
0.0483647
0.0483634
0.0483616
0.0483612
0.0483602
0.04836
0.0483596
0.0483594
0.0483592
0.048359
0.048359
0.0483588
0.0483588
0.0483587
0.0483587
0.0483586
0.0483585
0.0483585
0.0483584
0.0483583
0.0483583
0.0483583
0.0483583
0.0483583
0.0483583
0.0483584
0.0483584
0.0483585
0.0483585
0.0483586
0.0483587
0.0483588
0.0483588
0.0483589
0.048359
0.0483591
0.0483593
0.0483595
0.0483599
0.0483601
0.0483611
0.0483616
0.0483634
0.0483646
0.0483669
0.0483706
0.0483741
0.0483399
0.0483362
0.0483325
0.0483301
0.0483288
0.048327
0.0483265
0.0483254
0.0483252
0.0483248
0.0483246
0.0483244
0.0483243
0.0483242
0.0483241
0.048324
0.0483239
0.0483239
0.0483238
0.0483237
0.0483236
0.0483236
0.0483235
0.0483235
0.0483235
0.0483235
0.0483235
0.0483235
0.0483236
0.0483236
0.0483237
0.0483237
0.0483238
0.0483239
0.048324
0.048324
0.0483242
0.0483242
0.0483244
0.0483245
0.0483247
0.0483252
0.0483254
0.0483265
0.0483269
0.0483287
0.04833
0.0483324
0.0483361
0.0483398
0.0483047
0.0483008
0.0482971
0.0482946
0.0482933
0.0482915
0.048291
0.0482899
0.0482896
0.0482892
0.048289
0.0482888
0.0482887
0.0482886
0.0482884
0.0482884
0.0482883
0.0482882
0.0482881
0.0482881
0.048288
0.0482879
0.0482879
0.0482878
0.0482878
0.0482878
0.0482878
0.0482879
0.0482879
0.048288
0.0482881
0.0482881
0.0482882
0.0482882
0.0482883
0.0482884
0.0482885
0.0482886
0.0482888
0.0482889
0.0482891
0.0482896
0.0482898
0.0482909
0.0482914
0.0482932
0.0482945
0.048297
0.0483007
0.0483046
0.0482686
0.0482647
0.0482609
0.0482584
0.0482571
0.0482552
0.0482548
0.0482536
0.0482533
0.0482529
0.0482527
0.0482525
0.0482523
0.0482522
0.0482521
0.048252
0.0482519
0.0482519
0.0482518
0.0482517
0.0482516
0.0482516
0.0482515
0.0482515
0.0482514
0.0482514
0.0482515
0.0482515
0.0482516
0.0482516
0.0482517
0.0482517
0.0482518
0.0482519
0.048252
0.048252
0.0482522
0.0482523
0.0482524
0.0482526
0.0482528
0.0482533
0.0482535
0.0482547
0.0482551
0.048257
0.0482583
0.0482608
0.0482646
0.0482685
0.0482319
0.0482278
0.0482239
0.0482213
0.04822
0.0482181
0.0482177
0.0482167
0.0482165
0.048216
0.0482158
0.0482156
0.0482154
0.0482153
0.0482152
0.0482151
0.048215
0.0482149
0.0482148
0.0482148
0.0482147
0.0482147
0.0482146
0.0482145
0.0482145
0.0482145
0.0482145
0.0482146
0.0482146
0.0482147
0.0482148
0.0482148
0.0482149
0.048215
0.0482151
0.0482151
0.0482153
0.0482154
0.0482155
0.0482157
0.0482159
0.0482164
0.0482166
0.0482176
0.048218
0.0482199
0.0482212
0.0482239
0.0482277
0.0482318
0.0481946
0.0481905
0.0481867
0.048184
0.0481827
0.0481808
0.0481804
0.0481793
0.0481791
0.0481787
0.0481784
0.0481782
0.0481781
0.048178
0.0481778
0.0481777
0.0481776
0.0481776
0.0481775
0.0481774
0.0481773
0.0481773
0.0481772
0.0481771
0.0481771
0.0481771
0.0481771
0.0481772
0.0481772
0.0481773
0.0481774
0.0481774
0.0481775
0.0481776
0.0481777
0.0481778
0.0481779
0.048178
0.0481782
0.0481784
0.0481786
0.048179
0.0481793
0.0481803
0.0481807
0.0481826
0.0481839
0.0481866
0.0481904
0.0481945
0.048157
0.0481528
0.048149
0.0481463
0.0481449
0.0481429
0.0481426
0.0481415
0.0481413
0.0481408
0.0481406
0.0481403
0.0481402
0.0481401
0.0481399
0.0481398
0.0481397
0.0481397
0.0481395
0.0481395
0.0481394
0.0481393
0.0481393
0.0481392
0.0481392
0.0481392
0.0481392
0.0481392
0.0481393
0.0481394
0.0481395
0.0481395
0.0481396
0.0481397
0.0481398
0.0481399
0.04814
0.0481401
0.0481403
0.0481405
0.0481407
0.0481412
0.0481414
0.0481425
0.0481429
0.0481448
0.0481462
0.0481489
0.0481527
0.0481569
0.0481187
0.0481144
0.0481106
0.0481079
0.0481065
0.0481046
0.0481042
0.0481031
0.0481029
0.0481024
0.0481022
0.0481019
0.0481018
0.0481017
0.0481015
0.0481014
0.0481013
0.0481012
0.0481011
0.0481011
0.048101
0.0481009
0.0481008
0.0481008
0.0481007
0.0481007
0.0481008
0.0481008
0.0481009
0.0481009
0.048101
0.0481011
0.0481012
0.0481012
0.0481014
0.0481014
0.0481016
0.0481017
0.0481019
0.0481021
0.0481023
0.0481028
0.048103
0.0481041
0.0481045
0.0481064
0.0481077
0.0481105
0.0481142
0.0481185
0.04808
0.0480757
0.0480721
0.0480693
0.048068
0.0480661
0.0480657
0.0480646
0.0480644
0.0480639
0.0480637
0.0480634
0.0480633
0.0480632
0.048063
0.0480629
0.0480628
0.0480627
0.0480626
0.0480625
0.0480624
0.0480624
0.0480623
0.0480623
0.0480622
0.0480622
0.0480622
0.0480623
0.0480624
0.0480624
0.0480625
0.0480626
0.0480627
0.0480627
0.0480629
0.0480629
0.0480631
0.0480632
0.0480634
0.0480636
0.0480638
0.0480643
0.0480645
0.0480656
0.048066
0.0480679
0.0480692
0.048072
0.0480756
0.0480799
0.0480419
0.0480377
0.0480341
0.0480314
0.0480301
0.0480282
0.0480278
0.0480267
0.0480265
0.048026
0.0480258
0.0480255
0.0480254
0.0480253
0.0480251
0.048025
0.0480249
0.0480248
0.0480247
0.0480246
0.0480245
0.0480245
0.0480244
0.0480243
0.0480243
0.0480243
0.0480243
0.0480244
0.0480244
0.0480245
0.0480246
0.0480246
0.0480248
0.0480248
0.048025
0.048025
0.0480252
0.0480253
0.0480255
0.0480257
0.0480259
0.0480264
0.0480266
0.0480277
0.0480281
0.04803
0.0480313
0.048034
0.0480376
0.0480418
0.0480041
0.0479999
0.0479964
0.0479937
0.0479924
0.0479906
0.0479902
0.0479891
0.0479889
0.0479884
0.0479881
0.0479879
0.0479877
0.0479876
0.0479874
0.0479874
0.0479872
0.0479871
0.047987
0.047987
0.0479869
0.0479868
0.0479867
0.0479867
0.0479866
0.0479866
0.0479867
0.0479867
0.0479868
0.0479868
0.0479869
0.047987
0.0479871
0.0479872
0.0479873
0.0479874
0.0479875
0.0479877
0.0479878
0.0479881
0.0479883
0.0479888
0.047989
0.0479901
0.0479905
0.0479923
0.0479936
0.0479963
0.0479997
0.048004
0.0479667
0.0479625
0.0479591
0.0479564
0.0479551
0.0479534
0.047953
0.0479519
0.0479517
0.0479512
0.0479509
0.0479507
0.0479505
0.0479504
0.0479502
0.0479501
0.04795
0.0479499
0.0479498
0.0479497
0.0479496
0.0479496
0.0479495
0.0479494
0.0479494
0.0479494
0.0479494
0.0479495
0.0479496
0.0479496
0.0479497
0.0479498
0.0479499
0.0479499
0.0479501
0.0479502
0.0479503
0.0479505
0.0479506
0.0479509
0.0479511
0.0479516
0.0479518
0.0479529
0.0479533
0.047955
0.0479563
0.047959
0.0479623
0.0479666
0.0479295
0.0479255
0.0479222
0.0479195
0.0479183
0.0479166
0.0479161
0.0479151
0.0479149
0.0479144
0.0479141
0.0479139
0.0479137
0.0479136
0.0479134
0.0479133
0.0479132
0.0479131
0.047913
0.0479129
0.0479128
0.0479128
0.0479127
0.0479126
0.0479126
0.0479126
0.0479126
0.0479127
0.0479127
0.0479128
0.0479129
0.047913
0.0479131
0.0479131
0.0479133
0.0479134
0.0479135
0.0479136
0.0479138
0.0479141
0.0479143
0.0479148
0.047915
0.047916
0.0479164
0.0479181
0.0479194
0.047922
0.0479253
0.0479295
0.0478931
0.0478892
0.0478863
0.0478837
0.0478825
0.0478809
0.0478804
0.0478794
0.0478792
0.0478787
0.0478785
0.0478782
0.047878
0.0478779
0.0478778
0.0478777
0.0478775
0.0478774
0.0478773
0.0478772
0.0478771
0.0478771
0.047877
0.0478769
0.0478769
0.0478769
0.0478769
0.047877
0.047877
0.0478771
0.0478772
0.0478773
0.0478774
0.0478775
0.0478776
0.0478777
0.0478778
0.047878
0.0478781
0.0478784
0.0478786
0.0478791
0.0478793
0.0478803
0.0478807
0.0478824
0.0478836
0.0478862
0.047889
0.047893
0.0478582
0.0478545
0.0478516
0.0478491
0.0478479
0.0478463
0.0478459
0.0478449
0.0478447
0.0478442
0.047844
0.0478438
0.0478436
0.0478434
0.0478433
0.0478432
0.047843
0.047843
0.0478428
0.0478428
0.0478427
0.0478426
0.0478425
0.0478424
0.0478424
0.0478424
0.0478424
0.0478425
0.0478426
0.0478426
0.0478427
0.0478428
0.0478429
0.047843
0.0478431
0.0478432
0.0478434
0.0478435
0.0478437
0.0478439
0.0478441
0.0478446
0.0478448
0.0478458
0.0478462
0.0478478
0.047849
0.0478515
0.0478543
0.0478581
0.0478248
0.0478213
0.0478185
0.0478161
0.0478149
0.0478134
0.047813
0.047812
0.0478118
0.0478113
0.0478111
0.0478108
0.0478107
0.0478105
0.0478104
0.0478102
0.0478101
0.04781
0.0478099
0.0478098
0.0478097
0.0478097
0.0478096
0.0478095
0.0478095
0.0478095
0.0478095
0.0478096
0.0478096
0.0478097
0.0478098
0.0478099
0.04781
0.0478101
0.0478102
0.0478103
0.0478104
0.0478106
0.0478107
0.047811
0.0478112
0.0478116
0.0478119
0.0478128
0.0478132
0.0478148
0.0478159
0.0478184
0.0478211
0.0478247
0.0477935
0.0477901
0.0477874
0.0477851
0.0477839
0.0477825
0.047782
0.0477811
0.0477809
0.0477804
0.0477802
0.04778
0.0477798
0.0477796
0.0477795
0.0477794
0.0477792
0.0477791
0.047779
0.047779
0.0477789
0.0477788
0.0477787
0.0477786
0.0477786
0.0477786
0.0477786
0.0477787
0.0477787
0.0477788
0.0477789
0.047779
0.0477791
0.0477792
0.0477793
0.0477794
0.0477796
0.0477797
0.0477799
0.0477801
0.0477803
0.0477807
0.047781
0.0477819
0.0477823
0.0477838
0.0477849
0.0477873
0.0477899
0.0477934
0.0477649
0.0477616
0.047759
0.0477568
0.0477556
0.0477543
0.0477538
0.0477529
0.0477527
0.0477522
0.047752
0.0477518
0.0477516
0.0477514
0.0477513
0.0477512
0.047751
0.0477509
0.0477508
0.0477507
0.0477507
0.0477506
0.0477505
0.0477504
0.0477504
0.0477504
0.0477504
0.0477505
0.0477505
0.0477506
0.0477507
0.0477508
0.0477509
0.047751
0.0477511
0.0477512
0.0477513
0.0477515
0.0477517
0.0477519
0.0477521
0.0477525
0.0477528
0.0477536
0.0477541
0.0477555
0.0477566
0.0477588
0.0477614
0.0477647
0.0477398
0.0477366
0.0477342
0.047732
0.0477309
0.0477296
0.0477291
0.0477283
0.047728
0.0477276
0.0477274
0.0477271
0.047727
0.0477268
0.0477267
0.0477265
0.0477264
0.0477263
0.0477262
0.0477261
0.047726
0.0477259
0.0477259
0.0477258
0.0477257
0.0477257
0.0477258
0.0477258
0.0477259
0.047726
0.0477261
0.0477261
0.0477263
0.0477263
0.0477265
0.0477266
0.0477267
0.0477269
0.047727
0.0477273
0.0477275
0.0477279
0.0477281
0.047729
0.0477295
0.0477307
0.0477319
0.047734
0.0477364
0.0477396
0.0477197
0.0477167
0.0477143
0.0477122
0.0477111
0.0477099
0.0477094
0.0477086
0.0477083
0.0477079
0.0477077
0.0477075
0.0477073
0.0477071
0.047707
0.0477069
0.0477067
0.0477066
0.0477065
0.0477064
0.0477063
0.0477063
0.0477062
0.0477061
0.047706
0.047706
0.0477061
0.0477061
0.0477062
0.0477063
0.0477064
0.0477065
0.0477066
0.0477067
0.0477068
0.0477069
0.047707
0.0477072
0.0477073
0.0477076
0.0477078
0.0477082
0.0477085
0.0477092
0.0477097
0.0477109
0.0477121
0.0477141
0.0477165
0.0477195
0.0477071
0.0477041
0.0477017
0.0476998
0.0476986
0.0476975
0.0476969
0.0476962
0.0476959
0.0476955
0.0476953
0.0476951
0.0476949
0.0476947
0.0476946
0.0476945
0.0476943
0.0476942
0.0476941
0.047694
0.0476939
0.0476939
0.0476938
0.0476937
0.0476937
0.0476937
0.0476937
0.0476938
0.0476938
0.0476939
0.047694
0.0476941
0.0476942
0.0476943
0.0476944
0.0476945
0.0476946
0.0476948
0.047695
0.0476952
0.0476954
0.0476958
0.0476961
0.0476968
0.0476973
0.0476985
0.0476996
0.0477015
0.0477039
0.0477069
)
;

boundaryField
{
    fuel
    {
        type            fixedValue;
        value           nonuniform 0();
    }
    wall
    {
        type            zeroGradient;
    }
    outlet
    {
        type            zeroGradient;
    }
    frontAndBack
    {
        type            empty;
    }
    procBoundary3to2
    {
        type            processor;
        value           nonuniform List<scalar> 
51
(
0.048671
0.0486711
0.0486713
0.0486714
0.0486715
0.0486715
0.0486716
0.0486716
0.0486716
0.0486715
0.0486715
0.0486716
0.0486716
0.0486716
0.0486716
0.0486716
0.0486716
0.0486715
0.0486715
0.0486716
0.0486716
0.0486715
0.0486715
0.0486714
0.0486714
0.0486712
0.0486711
0.0486709
0.0486707
0.0486703
0.0486699
0.0486692
0.0486683
0.0486672
0.0486656
0.0486633
0.0486608
0.0486571
0.0486549
0.0486664
0.0486684
0.0486714
0.0486736
0.0486756
0.048677
0.048678
0.0486787
0.0486793
0.0486797
0.04868
0.04868
)
;
    }
}


// ************************************************************************* //
