/*--------------------------------*- C++ -*----------------------------------*\
| =========                 |                                                 |
| \\      /  F ield         | OpenFOAM: The Open Source CFD Toolbox           |
|  \\    /   O peration     | Version:  dev                                   |
|   \\  /    A nd           | Web:      www.OpenFOAM.org                      |
|    \\/     M anipulation  |                                                 |
\*---------------------------------------------------------------------------*/
FoamFile
{
    version     2.0;
    format      ascii;
    class       volScalarField;
    location    "0.055";
    object      HCCO;
}
// * * * * * * * * * * * * * * * * * * * * * * * * * * * * * * * * * * * * * //

dimensions      [0 0 0 0 0 0 0];

internalField   nonuniform List<scalar> 
1989
(
5.69465e-08
5.69287e-08
5.69099e-08
5.68825e-08
5.68749e-08
5.68576e-08
5.68555e-08
5.68442e-08
5.68458e-08
5.68657e-08
5.68646e-08
5.68368e-08
5.68365e-08
5.68355e-08
5.68354e-08
5.68364e-08
5.68366e-08
5.68643e-08
5.68653e-08
5.68455e-08
5.68439e-08
5.68551e-08
5.68573e-08
5.68747e-08
5.68823e-08
5.69088e-08
5.69283e-08
5.69456e-08
5.69907e-08
5.70639e-08
5.71711e-08
5.73039e-08
5.75151e-08
5.77501e-08
5.81556e-08
5.86391e-08
5.92211e-08
6.01561e-08
6.06704e-08
5.49961e-08
5.45127e-08
5.36417e-08
5.30985e-08
5.26557e-08
5.22825e-08
5.20661e-08
5.18731e-08
5.17507e-08
5.16496e-08
5.15814e-08
5.15423e-08
5.15237e-08
5.15074e-08
5.1483e-08
5.14763e-08
5.14607e-08
5.14589e-08
5.14487e-08
5.14506e-08
5.14667e-08
5.14658e-08
5.14422e-08
5.14417e-08
5.14408e-08
5.14407e-08
5.14417e-08
5.1442e-08
5.14656e-08
5.14664e-08
5.14503e-08
5.14484e-08
5.14586e-08
5.14604e-08
5.14761e-08
5.14828e-08
5.15066e-08
5.15234e-08
5.15415e-08
5.1582e-08
5.16533e-08
5.1753e-08
5.18736e-08
5.20664e-08
5.22825e-08
5.26551e-08
5.30976e-08
5.36398e-08
5.45118e-08
5.49939e-08
4.97149e-08
4.9261e-08
4.84569e-08
4.79518e-08
4.75496e-08
4.72061e-08
4.70095e-08
4.68332e-08
4.67235e-08
4.66306e-08
4.65621e-08
4.65269e-08
4.65082e-08
4.64941e-08
4.64727e-08
4.6467e-08
4.64531e-08
4.64517e-08
4.64429e-08
4.6445e-08
4.64575e-08
4.64572e-08
4.64372e-08
4.64367e-08
4.64358e-08
4.64358e-08
4.64366e-08
4.64371e-08
4.6457e-08
4.64573e-08
4.64448e-08
4.64427e-08
4.64514e-08
4.64529e-08
4.64668e-08
4.64725e-08
4.64937e-08
4.65079e-08
4.65261e-08
4.65625e-08
4.66339e-08
4.67256e-08
4.68339e-08
4.70099e-08
4.72061e-08
4.75491e-08
4.7951e-08
4.8455e-08
4.92604e-08
4.9713e-08
4.47673e-08
4.43349e-08
4.35938e-08
4.31237e-08
4.27589e-08
4.24406e-08
4.22638e-08
4.21017e-08
4.2005e-08
4.19221e-08
4.18496e-08
4.18177e-08
4.17993e-08
4.17869e-08
4.17685e-08
4.17635e-08
4.17516e-08
4.17504e-08
4.17434e-08
4.17454e-08
4.17545e-08
4.17552e-08
4.17383e-08
4.17378e-08
4.1737e-08
4.17369e-08
4.17378e-08
4.17382e-08
4.1755e-08
4.17543e-08
4.17452e-08
4.17432e-08
4.17502e-08
4.17513e-08
4.17633e-08
4.17683e-08
4.1787e-08
4.17991e-08
4.18169e-08
4.18497e-08
4.19247e-08
4.20068e-08
4.21023e-08
4.22642e-08
4.24406e-08
4.27584e-08
4.31228e-08
4.35919e-08
4.43342e-08
4.47654e-08
4.02381e-08
3.98333e-08
3.9156e-08
3.8726e-08
3.83982e-08
3.81046e-08
3.7948e-08
3.77996e-08
3.77153e-08
3.76433e-08
3.75641e-08
3.75355e-08
3.75178e-08
3.75071e-08
3.74913e-08
3.74871e-08
3.74768e-08
3.74759e-08
3.74703e-08
3.74723e-08
3.74786e-08
3.74799e-08
3.74658e-08
3.74653e-08
3.74645e-08
3.74645e-08
3.74653e-08
3.74657e-08
3.74797e-08
3.74784e-08
3.74721e-08
3.74701e-08
3.74757e-08
3.74766e-08
3.74869e-08
3.74911e-08
3.75075e-08
3.75176e-08
3.75347e-08
3.75639e-08
3.76455e-08
3.77169e-08
3.78001e-08
3.79484e-08
3.81046e-08
3.83977e-08
3.87251e-08
3.91544e-08
3.98326e-08
4.02365e-08
3.60267e-08
3.56384e-08
3.50095e-08
3.46114e-08
3.43134e-08
3.40428e-08
3.39022e-08
3.37662e-08
3.36927e-08
3.36321e-08
3.36233e-08
3.35978e-08
3.35809e-08
3.35716e-08
3.3558e-08
3.35544e-08
3.35455e-08
3.35448e-08
3.35401e-08
3.35419e-08
3.35463e-08
3.35478e-08
3.35361e-08
3.35357e-08
3.35349e-08
3.35349e-08
3.35356e-08
3.3536e-08
3.35477e-08
3.35461e-08
3.35418e-08
3.35398e-08
3.35446e-08
3.35453e-08
3.35542e-08
3.35579e-08
3.35722e-08
3.35807e-08
3.35971e-08
3.36229e-08
3.3634e-08
3.36941e-08
3.37668e-08
3.39026e-08
3.40428e-08
3.4313e-08
3.46107e-08
3.5008e-08
3.5638e-08
3.60252e-08
3.21924e-08
3.18324e-08
3.12607e-08
3.0899e-08
3.06332e-08
3.03863e-08
3.02625e-08
3.01392e-08
3.00762e-08
3.00257e-08
3.00111e-08
2.99883e-08
2.99722e-08
2.99642e-08
2.99523e-08
2.99493e-08
2.99413e-08
2.99408e-08
2.99365e-08
2.99383e-08
2.99413e-08
2.99427e-08
2.9933e-08
2.99326e-08
2.9932e-08
2.99319e-08
2.99326e-08
2.99329e-08
2.99426e-08
2.99411e-08
2.99381e-08
2.99363e-08
2.99407e-08
2.99411e-08
2.99491e-08
2.99522e-08
2.99649e-08
2.99721e-08
2.99877e-08
3.00105e-08
3.00273e-08
3.00775e-08
3.01397e-08
3.02628e-08
3.03863e-08
3.06328e-08
3.08983e-08
3.12584e-08
3.18331e-08
3.21911e-08
2.86826e-08
2.83501e-08
2.78048e-08
2.74582e-08
2.72164e-08
2.69917e-08
2.68821e-08
2.67705e-08
2.67162e-08
2.66722e-08
2.66533e-08
2.66328e-08
2.66176e-08
2.66105e-08
2.65998e-08
2.65972e-08
2.65899e-08
2.65896e-08
2.65856e-08
2.65871e-08
2.65894e-08
2.65906e-08
2.65825e-08
2.65822e-08
2.65815e-08
2.65815e-08
2.65821e-08
2.65824e-08
2.65904e-08
2.65892e-08
2.6587e-08
2.65854e-08
2.65894e-08
2.65898e-08
2.6597e-08
2.65997e-08
2.66111e-08
2.66175e-08
2.66322e-08
2.66527e-08
2.66736e-08
2.67172e-08
2.67709e-08
2.68824e-08
2.69917e-08
2.7216e-08
2.74576e-08
2.78034e-08
2.83499e-08
2.86815e-08
2.54175e-08
2.51048e-08
2.46134e-08
2.42985e-08
2.40852e-08
2.38834e-08
2.37876e-08
2.36882e-08
2.36419e-08
2.3604e-08
2.35833e-08
2.3565e-08
2.35508e-08
2.35446e-08
2.35349e-08
2.35327e-08
2.35262e-08
2.35259e-08
2.35222e-08
2.35235e-08
2.35252e-08
2.3526e-08
2.35194e-08
2.35192e-08
2.35186e-08
2.35186e-08
2.35191e-08
2.35193e-08
2.35259e-08
2.3525e-08
2.35234e-08
2.3522e-08
2.35258e-08
2.3526e-08
2.35326e-08
2.35349e-08
2.3545e-08
2.35507e-08
2.35644e-08
2.35827e-08
2.36051e-08
2.36428e-08
2.36886e-08
2.37879e-08
2.38834e-08
2.40847e-08
2.4298e-08
2.46124e-08
2.51043e-08
2.54166e-08
2.24396e-08
2.21546e-08
2.17194e-08
2.14844e-08
2.12966e-08
2.11146e-08
2.10312e-08
2.09422e-08
2.09028e-08
2.0869e-08
2.0848e-08
2.08317e-08
2.08185e-08
2.0813e-08
2.08042e-08
2.08024e-08
2.07964e-08
2.07962e-08
2.07927e-08
2.07939e-08
2.0795e-08
2.07957e-08
2.07903e-08
2.07901e-08
2.07896e-08
2.07896e-08
2.07901e-08
2.07902e-08
2.07956e-08
2.07949e-08
2.07939e-08
2.07926e-08
2.07961e-08
2.07963e-08
2.08022e-08
2.08042e-08
2.08134e-08
2.08184e-08
2.08312e-08
2.08476e-08
2.08698e-08
2.09035e-08
2.09425e-08
2.10314e-08
2.11145e-08
2.12962e-08
2.1484e-08
2.17186e-08
2.21542e-08
2.24388e-08
1.97915e-08
1.95318e-08
1.91461e-08
1.89343e-08
1.87699e-08
1.86058e-08
1.85337e-08
1.84543e-08
1.84207e-08
1.83902e-08
1.83699e-08
1.83554e-08
1.83433e-08
1.83384e-08
1.83305e-08
1.83289e-08
1.83235e-08
1.83234e-08
1.83201e-08
1.83212e-08
1.83219e-08
1.83224e-08
1.8318e-08
1.83179e-08
1.83174e-08
1.83174e-08
1.83178e-08
1.83179e-08
1.83223e-08
1.83218e-08
1.83211e-08
1.832e-08
1.83233e-08
1.83233e-08
1.83288e-08
1.83304e-08
1.83386e-08
1.83432e-08
1.8355e-08
1.83697e-08
1.83906e-08
1.84213e-08
1.84546e-08
1.85339e-08
1.86058e-08
1.87696e-08
1.8934e-08
1.91453e-08
1.95315e-08
1.97908e-08
1.7396e-08
1.71607e-08
1.68193e-08
1.66243e-08
1.64868e-08
1.6339e-08
1.6277e-08
1.62063e-08
1.61777e-08
1.61499e-08
1.6131e-08
1.61183e-08
1.61072e-08
1.61029e-08
1.60957e-08
1.60944e-08
1.60895e-08
1.60895e-08
1.60865e-08
1.60875e-08
1.60878e-08
1.60882e-08
1.60847e-08
1.60846e-08
1.60842e-08
1.60842e-08
1.60846e-08
1.60846e-08
1.60881e-08
1.60877e-08
1.60874e-08
1.60864e-08
1.60894e-08
1.60894e-08
1.60943e-08
1.60956e-08
1.6103e-08
1.61071e-08
1.61179e-08
1.61309e-08
1.61501e-08
1.61781e-08
1.62066e-08
1.62771e-08
1.6339e-08
1.64865e-08
1.6624e-08
1.68187e-08
1.71605e-08
1.73953e-08
1.52347e-08
1.5023e-08
1.47212e-08
1.45472e-08
1.44198e-08
1.42962e-08
1.42432e-08
1.41805e-08
1.41561e-08
1.41308e-08
1.41137e-08
1.41026e-08
1.40925e-08
1.40888e-08
1.40823e-08
1.40812e-08
1.40769e-08
1.40769e-08
1.40743e-08
1.40751e-08
1.40752e-08
1.40755e-08
1.40727e-08
1.40727e-08
1.40723e-08
1.40723e-08
1.40726e-08
1.40726e-08
1.40754e-08
1.40751e-08
1.40751e-08
1.40742e-08
1.40769e-08
1.40768e-08
1.40812e-08
1.40822e-08
1.40888e-08
1.40924e-08
1.41023e-08
1.41138e-08
1.41309e-08
1.41565e-08
1.41807e-08
1.42433e-08
1.42961e-08
1.44197e-08
1.45469e-08
1.47207e-08
1.50228e-08
1.52341e-08
1.32899e-08
1.31006e-08
1.2834e-08
1.26801e-08
1.25698e-08
1.24568e-08
1.24092e-08
1.23514e-08
1.23294e-08
1.23057e-08
1.22898e-08
1.22795e-08
1.22702e-08
1.22667e-08
1.22607e-08
1.22597e-08
1.22557e-08
1.22558e-08
1.22533e-08
1.2254e-08
1.22539e-08
1.22542e-08
1.22518e-08
1.22518e-08
1.22515e-08
1.22515e-08
1.22518e-08
1.22517e-08
1.22541e-08
1.22538e-08
1.2254e-08
1.22532e-08
1.22557e-08
1.22557e-08
1.22597e-08
1.22607e-08
1.22668e-08
1.22701e-08
1.22793e-08
1.22898e-08
1.23055e-08
1.23295e-08
1.23514e-08
1.24091e-08
1.24566e-08
1.25698e-08
1.26798e-08
1.28336e-08
1.31005e-08
1.32894e-08
1.15441e-08
1.13763e-08
1.11404e-08
1.10059e-08
1.09107e-08
1.08103e-08
1.07697e-08
1.07185e-08
1.06996e-08
1.06782e-08
1.06643e-08
1.06552e-08
1.0647e-08
1.06439e-08
1.06386e-08
1.06378e-08
1.06343e-08
1.06343e-08
1.06322e-08
1.06328e-08
1.06325e-08
1.06328e-08
1.06308e-08
1.06309e-08
1.06306e-08
1.06306e-08
1.06309e-08
1.06308e-08
1.06327e-08
1.06324e-08
1.06327e-08
1.06321e-08
1.06343e-08
1.06342e-08
1.06377e-08
1.06386e-08
1.0644e-08
1.06469e-08
1.0655e-08
1.06643e-08
1.0678e-08
1.06996e-08
1.07185e-08
1.07697e-08
1.08101e-08
1.09108e-08
1.10056e-08
1.114e-08
1.13762e-08
1.15437e-08
9.98033e-09
9.8316e-09
9.62596e-09
9.50804e-09
9.42645e-09
9.33759e-09
9.30325e-09
9.25787e-09
9.24166e-09
9.22249e-09
9.21047e-09
9.20258e-09
9.19528e-09
9.19266e-09
9.18795e-09
9.1873e-09
9.1842e-09
9.1843e-09
9.18238e-09
9.18293e-09
9.18255e-09
9.1828e-09
9.18125e-09
9.1813e-09
9.18106e-09
9.18105e-09
9.18128e-09
9.18121e-09
9.18275e-09
9.18249e-09
9.18288e-09
9.18232e-09
9.18425e-09
9.18414e-09
9.18725e-09
9.18792e-09
9.19267e-09
9.19522e-09
9.20241e-09
9.21044e-09
9.22236e-09
9.24168e-09
9.25784e-09
9.30315e-09
9.33739e-09
9.42645e-09
9.5078e-09
9.62568e-09
9.83147e-09
9.97993e-09
8.58079e-09
8.44403e-09
8.26322e-09
8.15752e-09
8.08649e-09
8.00745e-09
7.97791e-09
7.9374e-09
7.92334e-09
7.90622e-09
7.89573e-09
7.88881e-09
7.88238e-09
7.88008e-09
7.87591e-09
7.87536e-09
7.87263e-09
7.87274e-09
7.87105e-09
7.87151e-09
7.87105e-09
7.87128e-09
7.87006e-09
7.87013e-09
7.86991e-09
7.8699e-09
7.87011e-09
7.87002e-09
7.87124e-09
7.871e-09
7.87147e-09
7.87099e-09
7.8727e-09
7.87258e-09
7.87532e-09
7.87589e-09
7.88008e-09
7.88233e-09
7.88867e-09
7.89571e-09
7.90608e-09
7.92332e-09
7.93735e-09
7.9778e-09
8.00726e-09
8.08646e-09
8.1573e-09
8.26297e-09
8.44391e-09
8.58044e-09
7.33484e-09
7.21306e-09
7.05896e-09
6.96613e-09
6.90565e-09
6.83645e-09
6.8117e-09
6.77587e-09
6.76395e-09
6.74887e-09
6.73991e-09
6.73394e-09
6.72836e-09
6.7264e-09
6.72276e-09
6.72233e-09
6.71995e-09
6.72008e-09
6.7186e-09
6.719e-09
6.71852e-09
6.71873e-09
6.71775e-09
6.71783e-09
6.71764e-09
6.71764e-09
6.71782e-09
6.71772e-09
6.71869e-09
6.71847e-09
6.71896e-09
6.71855e-09
6.72003e-09
6.7199e-09
6.72229e-09
6.72274e-09
6.7264e-09
6.72832e-09
6.73382e-09
6.73989e-09
6.74875e-09
6.76391e-09
6.77581e-09
6.81159e-09
6.83627e-09
6.90559e-09
6.96595e-09
7.05874e-09
7.21295e-09
7.33454e-09
6.2266e-09
6.11837e-09
5.98004e-09
5.8978e-09
5.84588e-09
5.78534e-09
5.76441e-09
5.73263e-09
5.72247e-09
5.70924e-09
5.7016e-09
5.69643e-09
5.69162e-09
5.68994e-09
5.68677e-09
5.68641e-09
5.68435e-09
5.68448e-09
5.68319e-09
5.68355e-09
5.68307e-09
5.68326e-09
5.68247e-09
5.68255e-09
5.68239e-09
5.68238e-09
5.68254e-09
5.68245e-09
5.68323e-09
5.68302e-09
5.6835e-09
5.68315e-09
5.68443e-09
5.68431e-09
5.68638e-09
5.68675e-09
5.68993e-09
5.69158e-09
5.69633e-09
5.70158e-09
5.70914e-09
5.72242e-09
5.73257e-09
5.76431e-09
5.78518e-09
5.84581e-09
5.89764e-09
5.97988e-09
6.11831e-09
6.22634e-09
5.2435e-09
5.14786e-09
5.03044e-09
4.9591e-09
4.91537e-09
4.86298e-09
4.84571e-09
4.81767e-09
4.80919e-09
4.79773e-09
4.7913e-09
4.78688e-09
4.78278e-09
4.78137e-09
4.77864e-09
4.77836e-09
4.77659e-09
4.77672e-09
4.77561e-09
4.77592e-09
4.77545e-09
4.77563e-09
4.775e-09
4.77508e-09
4.77494e-09
4.77493e-09
4.77507e-09
4.77498e-09
4.7756e-09
4.77542e-09
4.77587e-09
4.77557e-09
4.77667e-09
4.77654e-09
4.77834e-09
4.77862e-09
4.78137e-09
4.78275e-09
4.78679e-09
4.79128e-09
4.79764e-09
4.80913e-09
4.8176e-09
4.84562e-09
4.86285e-09
4.91529e-09
4.95896e-09
5.0303e-09
5.14781e-09
5.24328e-09
4.37445e-09
4.29038e-09
4.1914e-09
4.13006e-09
4.09355e-09
4.04857e-09
4.03449e-09
4.00976e-09
4.00277e-09
3.99293e-09
3.98757e-09
3.98383e-09
3.98036e-09
3.97919e-09
3.97685e-09
3.97665e-09
3.97513e-09
3.97527e-09
3.97431e-09
3.97458e-09
3.97414e-09
3.97431e-09
3.9738e-09
3.97388e-09
3.97376e-09
3.97375e-09
3.97387e-09
3.97378e-09
3.97428e-09
3.97411e-09
3.97453e-09
3.97427e-09
3.97522e-09
3.97509e-09
3.97662e-09
3.97684e-09
3.97919e-09
3.98034e-09
3.98375e-09
3.98757e-09
3.99286e-09
4.00272e-09
4.00969e-09
4.0344e-09
4.04845e-09
4.09347e-09
4.12995e-09
4.19128e-09
4.29034e-09
4.37426e-09
3.60993e-09
3.53639e-09
3.45374e-09
3.40163e-09
3.37148e-09
3.33321e-09
3.32192e-09
3.30012e-09
3.29446e-09
3.28609e-09
3.28168e-09
3.27853e-09
3.27563e-09
3.27467e-09
3.27269e-09
3.27254e-09
3.27125e-09
3.27139e-09
3.27057e-09
3.2708e-09
3.27041e-09
3.27055e-09
3.27015e-09
3.27022e-09
3.27012e-09
3.27011e-09
3.27021e-09
3.27013e-09
3.27053e-09
3.27038e-09
3.27076e-09
3.27053e-09
3.27134e-09
3.27122e-09
3.27252e-09
3.27268e-09
3.27467e-09
3.27561e-09
3.27845e-09
3.28168e-09
3.28603e-09
3.29441e-09
3.30006e-09
3.32185e-09
3.33311e-09
3.37141e-09
3.40153e-09
3.45364e-09
3.53636e-09
3.60977e-09
2.94117e-09
2.87861e-09
2.81032e-09
2.76635e-09
2.74182e-09
2.70964e-09
2.7008e-09
2.68153e-09
2.67704e-09
2.67001e-09
2.66643e-09
2.6638e-09
2.66141e-09
2.66064e-09
2.65898e-09
2.65887e-09
2.65779e-09
2.65792e-09
2.65723e-09
2.65743e-09
2.65708e-09
2.6572e-09
2.65688e-09
2.65695e-09
2.65686e-09
2.65686e-09
2.65694e-09
2.65687e-09
2.65718e-09
2.65705e-09
2.65739e-09
2.6572e-09
2.65787e-09
2.65776e-09
2.65886e-09
2.65897e-09
2.66064e-09
2.6614e-09
2.66373e-09
2.66643e-09
2.66997e-09
2.67699e-09
2.68148e-09
2.70074e-09
2.70956e-09
2.74176e-09
2.76627e-09
2.81024e-09
2.87859e-09
2.94103e-09
2.3623e-09
2.30862e-09
2.25172e-09
2.21449e-09
2.1945e-09
2.16764e-09
2.16078e-09
2.14805e-09
2.14458e-09
2.13877e-09
2.13591e-09
2.13373e-09
2.1318e-09
2.13119e-09
2.12982e-09
2.12975e-09
2.12885e-09
2.12896e-09
2.12839e-09
2.12856e-09
2.12826e-09
2.12837e-09
2.12811e-09
2.12817e-09
2.1281e-09
2.12809e-09
2.12816e-09
2.1281e-09
2.12835e-09
2.12824e-09
2.12853e-09
2.12837e-09
2.12893e-09
2.12882e-09
2.12973e-09
2.12981e-09
2.13119e-09
2.13179e-09
2.13368e-09
2.13591e-09
2.13873e-09
2.14454e-09
2.14801e-09
2.16073e-09
2.16757e-09
2.19444e-09
2.21443e-09
2.25165e-09
2.3086e-09
2.36219e-09
1.86819e-09
1.82402e-09
1.77824e-09
1.74775e-09
1.73204e-09
1.71015e-09
1.70507e-09
1.69444e-09
1.69183e-09
1.6871e-09
1.68486e-09
1.68309e-09
1.68156e-09
1.68108e-09
1.67997e-09
1.67993e-09
1.67919e-09
1.6793e-09
1.67883e-09
1.67897e-09
1.67871e-09
1.6788e-09
1.67861e-09
1.67865e-09
1.6786e-09
1.67859e-09
1.67865e-09
1.6786e-09
1.67879e-09
1.6787e-09
1.67894e-09
1.67881e-09
1.67927e-09
1.67917e-09
1.67991e-09
1.67997e-09
1.68109e-09
1.68155e-09
1.68305e-09
1.68486e-09
1.68707e-09
1.69179e-09
1.6944e-09
1.70503e-09
1.71009e-09
1.73199e-09
1.74769e-09
1.77819e-09
1.82401e-09
1.8681e-09
1.45339e-09
1.41765e-09
1.38153e-09
1.35641e-09
1.34396e-09
1.32603e-09
1.32227e-09
1.31343e-09
1.31147e-09
1.30763e-09
1.30588e-09
1.30445e-09
1.30323e-09
1.30286e-09
1.30196e-09
1.30193e-09
1.30133e-09
1.30142e-09
1.30104e-09
1.30116e-09
1.30094e-09
1.30102e-09
1.30086e-09
1.3009e-09
1.30086e-09
1.30085e-09
1.3009e-09
1.30085e-09
1.30101e-09
1.30093e-09
1.30113e-09
1.30102e-09
1.3014e-09
1.30132e-09
1.30192e-09
1.30195e-09
1.30286e-09
1.30323e-09
1.30441e-09
1.30588e-09
1.30761e-09
1.31144e-09
1.3134e-09
1.32224e-09
1.32598e-09
1.34392e-09
1.35637e-09
1.38149e-09
1.41764e-09
1.45331e-09
1.10746e-09
1.07876e-09
1.05081e-09
1.03101e-09
1.02152e-09
1.00762e-09
1.00491e-09
9.97896e-10
9.96473e-10
9.93482e-10
9.92169e-10
9.91056e-10
9.90131e-10
9.89844e-10
9.8915e-10
9.89127e-10
9.88667e-10
9.88734e-10
9.88437e-10
9.88527e-10
9.88355e-10
9.88416e-10
9.883e-10
9.88332e-10
9.88296e-10
9.88294e-10
9.88329e-10
9.88294e-10
9.88408e-10
9.88345e-10
9.88507e-10
9.88425e-10
9.88714e-10
9.88652e-10
9.8912e-10
9.89146e-10
9.89845e-10
9.90126e-10
9.91034e-10
9.92167e-10
9.93466e-10
9.96451e-10
9.97871e-10
1.00488e-09
1.00759e-09
1.02149e-09
1.03097e-09
1.05078e-09
1.07877e-09
1.10738e-09
8.26142e-10
8.04139e-10
7.83036e-10
7.67993e-10
7.60939e-10
7.50443e-10
7.48523e-10
7.43111e-10
7.42101e-10
7.39831e-10
7.3887e-10
7.38023e-10
7.37337e-10
7.3712e-10
7.36599e-10
7.36581e-10
7.36234e-10
7.36284e-10
7.3606e-10
7.36126e-10
7.35995e-10
7.36041e-10
7.35955e-10
7.3598e-10
7.35952e-10
7.35951e-10
7.35978e-10
7.35951e-10
7.36035e-10
7.35987e-10
7.36112e-10
7.36051e-10
7.36269e-10
7.36223e-10
7.36576e-10
7.36596e-10
7.37122e-10
7.37333e-10
7.38007e-10
7.38868e-10
7.39819e-10
7.42085e-10
7.43092e-10
7.48507e-10
7.50419e-10
7.60915e-10
7.67968e-10
7.83015e-10
8.04133e-10
8.26093e-10
6.05066e-10
5.88453e-10
5.72835e-10
5.61432e-10
5.56348e-10
5.4847e-10
5.47208e-10
5.43039e-10
5.42368e-10
5.40658e-10
5.39967e-10
5.39343e-10
5.38837e-10
5.38679e-10
5.38292e-10
5.38281e-10
5.38022e-10
5.3806e-10
5.37893e-10
5.37942e-10
5.37843e-10
5.37877e-10
5.37815e-10
5.37834e-10
5.37813e-10
5.37812e-10
5.37832e-10
5.37812e-10
5.37873e-10
5.37837e-10
5.37931e-10
5.37886e-10
5.38049e-10
5.38014e-10
5.38277e-10
5.3829e-10
5.3868e-10
5.38834e-10
5.39333e-10
5.39964e-10
5.40649e-10
5.42355e-10
5.43025e-10
5.47196e-10
5.48452e-10
5.5633e-10
5.61414e-10
5.72819e-10
5.88397e-10
6.05078e-10
4.31462e-10
4.19174e-10
4.07908e-10
3.99475e-10
3.95918e-10
3.90153e-10
3.89363e-10
3.86231e-10
3.85807e-10
3.84549e-10
3.84067e-10
3.83613e-10
3.83242e-10
3.83128e-10
3.82843e-10
3.82836e-10
3.82644e-10
3.82673e-10
3.82549e-10
3.82585e-10
3.82511e-10
3.82537e-10
3.82492e-10
3.82506e-10
3.8249e-10
3.8249e-10
3.82505e-10
3.82489e-10
3.82534e-10
3.82507e-10
3.82578e-10
3.82544e-10
3.82665e-10
3.82638e-10
3.82833e-10
3.82841e-10
3.83129e-10
3.83241e-10
3.83607e-10
3.84064e-10
3.84542e-10
3.85798e-10
3.8622e-10
3.89355e-10
3.9014e-10
3.95905e-10
3.99462e-10
4.07896e-10
4.19067e-10
4.31533e-10
2.97825e-10
2.88966e-10
2.81098e-10
2.75055e-10
2.72659e-10
2.68576e-10
2.68111e-10
2.65832e-10
2.65583e-10
2.64686e-10
2.64363e-10
2.64045e-10
2.63788e-10
2.63708e-10
2.63509e-10
2.63505e-10
2.63371e-10
2.63391e-10
2.63304e-10
2.63329e-10
2.63277e-10
2.63296e-10
2.63264e-10
2.63274e-10
2.63263e-10
2.63263e-10
2.63273e-10
2.63263e-10
2.63293e-10
2.63274e-10
2.63325e-10
2.63301e-10
2.63386e-10
2.63367e-10
2.63503e-10
2.63508e-10
2.63709e-10
2.63787e-10
2.64041e-10
2.64361e-10
2.64681e-10
2.65576e-10
2.65825e-10
2.68106e-10
2.68567e-10
2.7265e-10
2.75046e-10
2.81089e-10
2.88813e-10
2.9795e-10
1.97281e-10
1.91235e-10
1.8589e-10
1.81783e-10
1.80225e-10
1.77493e-10
1.77215e-10
1.7565e-10
1.75509e-10
1.749e-10
1.74695e-10
1.7448e-10
1.74312e-10
1.74258e-10
1.74127e-10
1.74124e-10
1.74035e-10
1.74048e-10
1.73991e-10
1.74007e-10
1.73973e-10
1.73985e-10
1.73964e-10
1.73971e-10
1.73964e-10
1.73963e-10
1.7397e-10
1.73963e-10
1.73983e-10
1.73971e-10
1.74004e-10
1.73989e-10
1.74045e-10
1.74033e-10
1.74122e-10
1.74126e-10
1.74258e-10
1.74311e-10
1.74479e-10
1.74692e-10
1.74897e-10
1.75504e-10
1.75645e-10
1.77211e-10
1.77487e-10
1.80219e-10
1.81777e-10
1.85884e-10
1.91136e-10
1.97362e-10
1.25022e-10
1.21201e-10
1.1825e-10
1.15579e-10
1.14626e-10
1.12884e-10
1.12727e-10
1.11698e-10
1.11627e-10
1.11232e-10
1.11108e-10
1.10971e-10
1.10866e-10
1.10831e-10
1.10749e-10
1.10747e-10
1.10691e-10
1.10699e-10
1.10663e-10
1.10673e-10
1.10652e-10
1.1066e-10
1.10646e-10
1.10651e-10
1.10646e-10
1.10646e-10
1.1065e-10
1.10646e-10
1.10659e-10
1.10651e-10
1.10672e-10
1.10662e-10
1.10698e-10
1.1069e-10
1.10746e-10
1.10749e-10
1.10832e-10
1.10865e-10
1.1097e-10
1.11107e-10
1.11231e-10
1.11624e-10
1.11694e-10
1.12725e-10
1.12881e-10
1.14622e-10
1.15575e-10
1.18247e-10
1.21152e-10
1.2506e-10
7.63864e-11
7.40795e-11
7.23077e-11
7.0674e-11
7.01209e-11
6.90238e-11
6.8989e-11
6.835e-11
6.83191e-11
6.80766e-11
6.80058e-11
6.79224e-11
6.78605e-11
6.78393e-11
6.77908e-11
6.77895e-11
6.77564e-11
6.77613e-11
6.774e-11
6.77458e-11
6.77331e-11
6.77377e-11
6.77299e-11
6.77324e-11
6.77297e-11
6.77296e-11
6.77322e-11
6.77295e-11
6.77371e-11
6.77324e-11
6.77449e-11
6.77392e-11
6.77604e-11
6.77558e-11
6.7789e-11
6.77908e-11
6.78396e-11
6.78604e-11
6.7922e-11
6.8005e-11
6.80754e-11
6.83173e-11
6.8348e-11
6.89875e-11
6.90216e-11
7.01184e-11
7.06717e-11
7.23055e-11
7.40566e-11
7.64024e-11
4.51192e-11
4.38004e-11
4.27989e-11
4.18522e-11
4.15468e-11
4.09199e-11
4.09071e-11
4.05337e-11
4.05217e-11
4.03807e-11
4.03427e-11
4.02944e-11
4.02601e-11
4.02476e-11
4.02207e-11
4.02197e-11
4.02013e-11
4.02039e-11
4.0192e-11
4.01952e-11
4.01881e-11
4.01906e-11
4.01863e-11
4.01877e-11
4.01862e-11
4.01861e-11
4.01876e-11
4.01861e-11
4.01903e-11
4.01877e-11
4.01946e-11
4.01916e-11
4.02034e-11
4.0201e-11
4.02194e-11
4.02208e-11
4.02478e-11
4.02601e-11
4.02942e-11
4.03422e-11
4.038e-11
4.05206e-11
4.05325e-11
4.09062e-11
4.09186e-11
4.15453e-11
4.18509e-11
4.27977e-11
4.37908e-11
4.51252e-11
2.61283e-11
2.541e-11
2.48718e-11
2.43514e-11
2.41887e-11
2.38493e-11
2.38435e-11
2.36372e-11
2.36327e-11
2.35548e-11
2.35352e-11
2.35084e-11
2.34904e-11
2.34831e-11
2.3469e-11
2.34682e-11
2.34585e-11
2.34597e-11
2.34535e-11
2.3455e-11
2.34513e-11
2.34526e-11
2.34503e-11
2.3451e-11
2.34502e-11
2.34501e-11
2.3451e-11
2.34502e-11
2.34524e-11
2.34511e-11
2.34547e-11
2.34532e-11
2.34595e-11
2.34584e-11
2.3468e-11
2.34691e-11
2.34832e-11
2.34904e-11
2.35083e-11
2.35349e-11
2.35544e-11
2.36321e-11
2.36365e-11
2.3843e-11
2.38485e-11
2.41878e-11
2.43506e-11
2.48711e-11
2.54063e-11
2.61302e-11
1.53081e-11
1.49306e-11
1.4651e-11
1.43774e-11
1.4291e-11
1.41155e-11
1.41104e-11
1.40021e-11
1.39995e-11
1.39582e-11
1.39481e-11
1.39337e-11
1.39245e-11
1.39203e-11
1.39132e-11
1.39124e-11
1.39075e-11
1.3908e-11
1.39048e-11
1.39055e-11
1.39036e-11
1.39042e-11
1.3903e-11
1.39034e-11
1.3903e-11
1.39029e-11
1.39033e-11
1.3903e-11
1.39041e-11
1.39035e-11
1.39054e-11
1.39047e-11
1.39079e-11
1.39075e-11
1.39124e-11
1.39132e-11
1.39204e-11
1.39245e-11
1.39336e-11
1.3948e-11
1.3958e-11
1.39992e-11
1.40017e-11
1.41101e-11
1.41151e-11
1.42905e-11
1.4377e-11
1.46507e-11
1.49292e-11
1.53085e-11
9.91846e-12
9.72019e-12
9.57278e-12
9.43216e-12
9.38211e-12
9.29389e-12
9.2863e-12
9.23153e-12
9.22818e-12
9.20673e-12
9.20091e-12
9.19301e-12
9.18812e-12
9.18554e-12
9.18181e-12
9.18114e-12
9.17861e-12
9.17865e-12
9.177e-12
9.17722e-12
9.17624e-12
9.17649e-12
9.17585e-12
9.176e-12
9.17576e-12
9.17575e-12
9.17598e-12
9.17581e-12
9.17643e-12
9.17618e-12
9.17715e-12
9.17693e-12
9.17857e-12
9.17861e-12
9.18111e-12
9.18185e-12
9.18557e-12
9.18815e-12
9.19299e-12
9.20086e-12
9.20663e-12
9.22802e-12
9.23134e-12
9.28611e-12
9.29364e-12
9.38182e-12
9.43189e-12
9.57257e-12
9.71967e-12
9.91844e-12
8.51974e-12
8.39768e-12
8.30256e-12
8.22151e-12
8.18229e-12
8.13332e-12
8.12066e-12
8.09071e-12
8.08497e-12
8.07236e-12
8.06753e-12
8.06235e-12
8.05892e-12
8.05688e-12
8.05439e-12
8.05362e-12
8.05196e-12
8.05174e-12
8.05064e-12
8.05064e-12
8.04996e-12
8.05003e-12
8.04958e-12
8.04964e-12
8.04946e-12
8.04945e-12
8.04963e-12
8.04956e-12
8.05e-12
8.04992e-12
8.0506e-12
8.0506e-12
8.0517e-12
8.05194e-12
8.0536e-12
8.05441e-12
8.05689e-12
8.05893e-12
8.06233e-12
8.06749e-12
8.07229e-12
8.08486e-12
8.09057e-12
8.12051e-12
8.13312e-12
8.18204e-12
8.22127e-12
8.30235e-12
8.39741e-12
8.51956e-12
1.00009e-11
9.88329e-12
9.78723e-12
9.71348e-12
9.66849e-12
9.62543e-12
9.60652e-12
9.58054e-12
9.5719e-12
9.56015e-12
9.55436e-12
9.54906e-12
9.5453e-12
9.54292e-12
9.54028e-12
9.53921e-12
9.53745e-12
9.53703e-12
9.53586e-12
9.53572e-12
9.53496e-12
9.53494e-12
9.53444e-12
9.53446e-12
9.53425e-12
9.53424e-12
9.53445e-12
9.53442e-12
9.53491e-12
9.53491e-12
9.53567e-12
9.53581e-12
9.53698e-12
9.53742e-12
9.53918e-12
9.54028e-12
9.54292e-12
9.5453e-12
9.54904e-12
9.55431e-12
9.56007e-12
9.57178e-12
9.58039e-12
9.60632e-12
9.62518e-12
9.66819e-12
9.71316e-12
9.78695e-12
9.883e-12
1.00006e-11
)
;

boundaryField
{
    fuel
    {
        type            fixedValue;
        value           nonuniform 0();
    }
    wall
    {
        type            zeroGradient;
    }
    outlet
    {
        type            zeroGradient;
    }
    frontAndBack
    {
        type            empty;
    }
    procBoundary3to2
    {
        type            processor;
        value           nonuniform List<scalar> 
51
(
6.27525e-08
6.27361e-08
6.27145e-08
6.26845e-08
6.2676e-08
6.26572e-08
6.26546e-08
6.26425e-08
6.26436e-08
6.26675e-08
6.26666e-08
6.2634e-08
6.2634e-08
6.2633e-08
6.26329e-08
6.26339e-08
6.26338e-08
6.26663e-08
6.26671e-08
6.26433e-08
6.26421e-08
6.26543e-08
6.26568e-08
6.26757e-08
6.26842e-08
6.27134e-08
6.27357e-08
6.27516e-08
6.28014e-08
6.28783e-08
6.29931e-08
6.31374e-08
6.33673e-08
6.36216e-08
6.40599e-08
6.45867e-08
6.52105e-08
6.62072e-08
6.67529e-08
6.0673e-08
6.01577e-08
5.92232e-08
5.86405e-08
5.81565e-08
5.77508e-08
5.75159e-08
5.73042e-08
5.71703e-08
5.70615e-08
5.69908e-08
5.69908e-08
)
;
    }
}


// ************************************************************************* //
