/*--------------------------------*- C++ -*----------------------------------*\
| =========                 |                                                 |
| \\      /  F ield         | OpenFOAM: The Open Source CFD Toolbox           |
|  \\    /   O peration     | Version:  dev                                   |
|   \\  /    A nd           | Web:      www.OpenFOAM.org                      |
|    \\/     M anipulation  |                                                 |
\*---------------------------------------------------------------------------*/
FoamFile
{
    version     2.0;
    format      ascii;
    class       volScalarField;
    location    "0.055";
    object      HCO;
}
// * * * * * * * * * * * * * * * * * * * * * * * * * * * * * * * * * * * * * //

dimensions      [0 0 0 0 0 0 0];

internalField   nonuniform List<scalar> 
25
(
3.9034e-08
3.81865e-08
3.74939e-08
3.69133e-08
3.65332e-08
3.62337e-08
3.61335e-08
3.62242e-08
3.65386e-08
3.7089e-08
3.79056e-08
3.90407e-08
4.05754e-08
4.26371e-08
4.54351e-08
4.93064e-08
5.48468e-08
6.30836e-08
7.57356e-08
9.49931e-08
1.20896e-07
1.4528e-07
1.51043e-07
1.26754e-07
6.78456e-08
)
;

boundaryField
{
    wall
    {
        type            zeroGradient;
    }
    fuel
    {
        type            fixedValue;
        value           nonuniform 0();
    }
    outlet
    {
        type            inletOutlet;
        inletValue      uniform 0;
        value           uniform 0;
    }
    procBoundary3to2
    {
        type            processor;
        value           uniform 4.00215e-08;
    }
}


// ************************************************************************* //
