/*--------------------------------*- C++ -*----------------------------------*\
| =========                 |                                                 |
| \\      /  F ield         | OpenFOAM: The Open Source CFD Toolbox           |
|  \\    /   O peration     | Version:  dev                                   |
|   \\  /    A nd           | Web:      www.OpenFOAM.org                      |
|    \\/     M anipulation  |                                                 |
\*---------------------------------------------------------------------------*/
FoamFile
{
    version     2.0;
    format      ascii;
    class       volScalarField;
    location    "0.055";
    object      n-A1C2H2;
}
// * * * * * * * * * * * * * * * * * * * * * * * * * * * * * * * * * * * * * //

dimensions      [0 0 0 0 0 0 0];

internalField   nonuniform List<scalar> 
250
(
5.23225e-09
5.24492e-09
5.23188e-09
5.24381e-09
5.24182e-09
5.24057e-09
5.24407e-09
5.26743e-09
5.47691e-09
7.49091e-09
1.86659e-11
2.77761e-09
2.77933e-09
2.77631e-09
2.77889e-09
2.77952e-09
2.7794e-09
2.78125e-09
2.79842e-09
2.94515e-09
4.32418e-09
1.70647e-10
1.40533e-09
1.40562e-09
1.40495e-09
1.40545e-09
1.40574e-09
1.40566e-09
1.40682e-09
1.41926e-09
1.52206e-09
2.55598e-09
4.23441e-10
7.35455e-10
7.3547e-10
7.35404e-10
7.35393e-10
7.3564e-10
7.35543e-10
7.36252e-10
7.45205e-10
8.18807e-10
1.63593e-09
6.43893e-10
4.14269e-10
4.14236e-10
4.14311e-10
4.14184e-10
4.14385e-10
4.14296e-10
4.14594e-10
4.2079e-10
4.74753e-10
1.14415e-09
7.39846e-10
2.46629e-10
2.46575e-10
2.46714e-10
2.46511e-10
2.46729e-10
2.46679e-10
2.46832e-10
2.53921e-10
3.00409e-10
8.63129e-10
7.22375e-10
1.6306e-10
1.63013e-10
1.63132e-10
1.62961e-10
1.63125e-10
1.63085e-10
1.62559e-10
1.68465e-10
2.06621e-10
6.87185e-10
7.25117e-10
1.13383e-10
1.13327e-10
1.13458e-10
1.13266e-10
1.1345e-10
1.13471e-10
1.14728e-10
1.20146e-10
1.49651e-10
5.66701e-10
9.2493e-10
8.51012e-11
8.50511e-11
8.51652e-11
8.49968e-11
8.51519e-11
8.51835e-11
8.60223e-11
8.94549e-11
1.16334e-10
4.77736e-10
1.43192e-09
6.47906e-11
6.47497e-11
6.48406e-11
6.47043e-11
6.48269e-11
6.48714e-11
6.54528e-11
6.85485e-11
9.26874e-11
4.07832e-10
1.98555e-09
5.28181e-11
5.28988e-11
5.27765e-11
5.28841e-11
5.29363e-11
5.3375e-11
5.62219e-11
7.55831e-11
3.50307e-10
2.39793e-09
4.35266e-11
4.35943e-11
4.349e-11
4.3581e-11
4.36412e-11
4.40287e-11
4.68917e-11
6.46161e-11
3.0128e-10
2.36859e-09
3.68327e-11
3.68901e-11
3.68001e-11
3.68786e-11
3.69452e-11
3.72774e-11
3.99109e-11
5.57024e-11
2.58631e-10
1.901e-09
3.18248e-11
3.18736e-11
3.17953e-11
3.18643e-11
3.1936e-11
3.22328e-11
3.46668e-11
4.83249e-11
2.21794e-10
1.34736e-09
2.79466e-11
2.79884e-11
2.79197e-11
2.79813e-11
2.80568e-11
2.83307e-11
3.05874e-11
4.307e-11
1.85252e-10
9.07436e-10
2.4852e-11
2.48878e-11
2.4827e-11
2.48829e-11
2.4961e-11
2.52188e-11
2.73126e-11
3.8174e-11
1.54855e-10
6.04843e-10
2.23216e-11
2.23521e-11
2.22983e-11
2.23495e-11
2.24289e-11
2.26734e-11
2.46176e-11
3.40241e-11
1.31496e-10
4.07583e-10
2.02144e-11
2.02402e-11
2.01924e-11
2.02397e-11
2.0319e-11
2.05521e-11
2.23568e-11
3.04632e-11
1.11216e-10
2.81076e-10
1.84376e-11
1.84591e-11
1.8417e-11
1.84605e-11
1.85384e-11
1.87613e-11
2.04353e-11
2.73649e-11
9.38958e-11
1.99907e-10
1.69291e-11
1.69465e-11
1.69097e-11
1.69494e-11
1.70247e-11
1.72382e-11
1.87904e-11
2.4982e-11
7.92684e-11
1.47386e-10
1.56455e-11
1.56589e-11
1.56274e-11
1.56631e-11
1.57343e-11
1.59392e-11
1.73774e-11
2.28545e-11
6.69906e-11
1.12903e-10
1.45556e-11
1.45649e-11
1.45389e-11
1.45702e-11
1.46361e-11
1.48329e-11
1.61655e-11
2.08985e-11
5.59095e-11
8.97378e-11
1.37487e-11
1.37546e-11
1.37329e-11
1.37602e-11
1.38214e-11
1.40091e-11
1.51333e-11
1.92257e-11
4.74695e-11
7.37043e-11
1.30693e-11
1.30744e-11
1.30547e-11
1.3081e-11
1.3139e-11
1.33186e-11
1.43761e-11
1.78229e-11
4.07286e-11
6.21974e-11
)
;

boundaryField
{
    fuel
    {
        type            fixedValue;
        value           uniform 0;
    }
    wall
    {
        type            zeroGradient;
    }
    outlet
    {
        type            zeroGradient;
    }
    frontAndBack
    {
        type            empty;
    }
    procBoundary3to0
    {
        type            processor;
        value           nonuniform List<scalar> 10(1.25649e-11 1.25669e-11 1.25512e-11 1.25735e-11 1.26262e-11 1.27978e-11 1.37131e-11 1.67948e-11 3.53613e-11 5.35059e-11);
    }
    procBoundary3to2
    {
        type            processor;
        value           nonuniform List<scalar> 
25
(
5.24415e-09
2.78032e-09
1.40593e-09
7.35657e-10
4.14378e-10
2.4672e-10
1.63128e-10
1.13455e-10
8.51641e-11
6.48436e-11
5.28521e-11
5.28521e-11
4.35531e-11
3.68526e-11
3.18389e-11
2.79558e-11
2.48569e-11
2.2323e-11
2.02128e-11
1.84338e-11
1.69236e-11
1.56389e-11
1.45486e-11
1.37417e-11
1.30621e-11
)
;
    }
}


// ************************************************************************* //
