/*--------------------------------*- C++ -*----------------------------------*\
| =========                 |                                                 |
| \\      /  F ield         | OpenFOAM: The Open Source CFD Toolbox           |
|  \\    /   O peration     | Version:  dev                                   |
|   \\  /    A nd           | Web:      www.OpenFOAM.org                      |
|    \\/     M anipulation  |                                                 |
\*---------------------------------------------------------------------------*/
FoamFile
{
    version     2.0;
    format      ascii;
    class       surfaceScalarField;
    location    "0.055";
    object      phi;
}
// * * * * * * * * * * * * * * * * * * * * * * * * * * * * * * * * * * * * * //

dimensions      [1 0 -1 0 0 0 0];

internalField   nonuniform List<scalar> 
3888
(
-3.06879e-07
1.38129e-06
-2.83247e-07
1.37906e-06
-2.59634e-07
1.38e-06
-2.36019e-07
1.37819e-06
-2.12415e-07
1.37928e-06
-1.88807e-07
1.37792e-06
-1.65205e-07
1.37882e-06
-1.41602e-07
1.37789e-06
-1.18001e-07
1.37852e-06
-9.43973e-08
1.3779e-06
-7.07974e-08
1.3783e-06
-4.71984e-08
1.37802e-06
-2.35991e-08
1.37822e-06
4.31888e-13
1.37813e-06
2.36e-08
1.37813e-06
4.71994e-08
1.37822e-06
7.07984e-08
1.37802e-06
9.43984e-08
1.3783e-06
1.18002e-07
1.37789e-06
1.41604e-07
1.37852e-06
1.65207e-07
1.37789e-06
1.88809e-07
1.37882e-06
2.12416e-07
1.37792e-06
2.36021e-07
1.37929e-06
2.59636e-07
1.3782e-06
2.83249e-07
1.38004e-06
3.0688e-07
1.37907e-06
3.30519e-07
1.3813e-06
3.54156e-07
1.3815e-06
3.77855e-07
1.38341e-06
4.01479e-07
1.3874e-06
4.25349e-07
1.38701e-06
4.4889e-07
1.39978e-06
4.73037e-07
1.39726e-06
4.96472e-07
1.42289e-06
5.20798e-07
1.43137e-06
5.44217e-07
1.44539e-06
5.68193e-07
1.50657e-06
1.4949e-06
-5.73884e-07
1.47227e-06
-5.49591e-07
1.48223e-06
-5.25887e-07
1.42167e-06
-5.01285e-07
1.40674e-06
-4.77598e-07
1.39919e-06
-4.53205e-07
1.37287e-06
-4.2943e-07
1.37602e-06
-4.05325e-07
1.36295e-06
-3.81473e-07
1.36361e-06
-3.57545e-07
1.35961e-06
-3.33681e-07
1.35767e-06
-3.09816e-07
1.35745e-06
-2.85958e-07
1.35524e-06
-2.62118e-07
1.3562e-06
-2.38277e-07
1.35439e-06
-2.14446e-07
1.3555e-06
-1.90613e-07
1.35414e-06
-1.66785e-07
1.35504e-06
-1.42956e-07
1.35413e-06
-1.19129e-07
1.35475e-06
-9.53e-08
1.35412e-06
-7.14743e-08
1.35454e-06
-4.76497e-08
1.35426e-06
-2.38246e-08
1.35446e-06
4.63931e-13
1.35437e-06
2.38256e-08
1.35437e-06
4.76507e-08
1.35446e-06
7.14754e-08
1.35426e-06
9.53012e-08
1.35454e-06
1.1913e-07
1.35412e-06
1.42958e-07
1.35475e-06
1.66786e-07
1.35413e-06
1.90614e-07
1.35504e-06
2.14448e-07
1.35414e-06
2.38279e-07
1.3555e-06
2.6212e-07
1.3544e-06
2.85959e-07
1.35623e-06
3.09817e-07
1.35525e-06
3.33683e-07
1.35746e-06
3.57547e-07
1.35767e-06
3.81473e-07
1.35959e-06
4.05327e-07
1.3636e-06
4.29433e-07
1.36292e-06
4.53207e-07
1.37602e-06
4.77602e-07
1.37287e-06
5.01289e-07
1.3992e-06
5.25893e-07
1.40677e-06
5.4958e-07
1.42169e-06
5.73887e-07
1.48227e-06
1.47216e-06
-5.79719e-07
1.44919e-06
-5.55087e-07
1.4576e-06
-5.31107e-07
1.39767e-06
-5.06221e-07
1.38185e-06
-4.82277e-07
1.37525e-06
-4.5763e-07
1.34823e-06
-4.33617e-07
1.35202e-06
-4.09268e-07
1.33862e-06
-3.85181e-07
1.33957e-06
-3.61021e-07
1.33556e-06
-3.36925e-07
1.3336e-06
-3.12826e-07
1.33337e-06
-2.88736e-07
1.33117e-06
-2.64664e-07
1.33214e-06
-2.40591e-07
1.33034e-06
-2.16528e-07
1.33145e-06
-1.92463e-07
1.3301e-06
-1.68404e-07
1.331e-06
-1.44344e-07
1.3301e-06
-1.20285e-07
1.33073e-06
-9.62254e-08
1.33009e-06
-7.21682e-08
1.33052e-06
-4.81122e-08
1.33024e-06
-2.40559e-08
1.33043e-06
5.08331e-13
1.33034e-06
2.4057e-08
1.33034e-06
4.81133e-08
1.33044e-06
7.21694e-08
1.33023e-06
9.62267e-08
1.33052e-06
1.20287e-07
1.33008e-06
1.44346e-07
1.33073e-06
1.68406e-07
1.3301e-06
1.92465e-07
1.33101e-06
2.1653e-07
1.3301e-06
2.40593e-07
1.33146e-06
2.64666e-07
1.33035e-06
2.88738e-07
1.33218e-06
3.12828e-07
1.33118e-06
3.36927e-07
1.33338e-06
3.61023e-07
1.33359e-06
3.85182e-07
1.33554e-06
4.09271e-07
1.33956e-06
4.3362e-07
1.33859e-06
4.57633e-07
1.35202e-06
4.8228e-07
1.34823e-06
5.06226e-07
1.37525e-06
5.31114e-07
1.38188e-06
5.55075e-07
1.39772e-06
5.79721e-07
1.45762e-06
1.44907e-06
-5.85745e-07
1.42576e-06
-5.60769e-07
1.43261e-06
-5.36508e-07
1.37339e-06
-5.11331e-07
1.35667e-06
-4.87121e-07
1.35103e-06
-4.62214e-07
1.32332e-06
-4.37954e-07
1.32776e-06
-4.13355e-07
1.31403e-06
-3.89022e-07
1.31526e-06
-3.64622e-07
1.31124e-06
-3.40287e-07
1.30927e-06
-3.15947e-07
1.30903e-06
-2.91616e-07
1.30684e-06
-2.67303e-07
1.30783e-06
-2.4299e-07
1.30601e-06
-2.18687e-07
1.30714e-06
-1.94382e-07
1.30578e-06
-1.70083e-07
1.30669e-06
-1.45783e-07
1.30577e-06
-1.21485e-07
1.3064e-06
-9.71846e-08
1.30577e-06
-7.28875e-08
1.3062e-06
-4.85917e-08
1.30591e-06
-2.42956e-08
1.30611e-06
5.69819e-13
1.30602e-06
2.42968e-08
1.30602e-06
4.85929e-08
1.30611e-06
7.28888e-08
1.30591e-06
9.7186e-08
1.3062e-06
1.21486e-07
1.30577e-06
1.45785e-07
1.3064e-06
1.70084e-07
1.30577e-06
1.94384e-07
1.30669e-06
2.18689e-07
1.30578e-06
2.42992e-07
1.30715e-06
2.67305e-07
1.30602e-06
2.91618e-07
1.30787e-06
3.15949e-07
1.30686e-06
3.40289e-07
1.30904e-06
3.64625e-07
1.30925e-06
3.89024e-07
1.31123e-06
4.13358e-07
1.31525e-06
4.37957e-07
1.31399e-06
4.62217e-07
1.32776e-06
4.87125e-07
1.32332e-06
5.11336e-07
1.35104e-06
5.36514e-07
1.35669e-06
5.60757e-07
1.37345e-06
5.85748e-07
1.43262e-06
1.42563e-06
-5.919e-07
1.40195e-06
-5.66569e-07
1.40726e-06
-5.42016e-07
1.34883e-06
-5.16542e-07
1.33118e-06
-4.92058e-07
1.32655e-06
-4.66886e-07
1.29814e-06
-4.42374e-07
1.30325e-06
-4.1752e-07
1.28917e-06
-3.92937e-07
1.29068e-06
-3.68293e-07
1.28662e-06
-3.43714e-07
1.28468e-06
-3.19128e-07
1.28443e-06
-2.94552e-07
1.28225e-06
-2.69993e-07
1.28326e-06
-2.45435e-07
1.28142e-06
-2.20887e-07
1.28256e-06
-1.96338e-07
1.28118e-06
-1.71793e-07
1.2821e-06
-1.47249e-07
1.28116e-06
-1.22707e-07
1.28179e-06
-9.81623e-08
1.28118e-06
-7.36206e-08
1.28159e-06
-4.90804e-08
1.28131e-06
-2.45399e-08
1.2815e-06
6.29863e-13
1.28141e-06
2.45412e-08
1.28141e-06
4.90818e-08
1.2815e-06
7.3622e-08
1.2813e-06
9.81639e-08
1.28159e-06
1.22708e-07
1.28118e-06
1.47251e-07
1.28179e-06
1.71795e-07
1.28116e-06
1.9634e-07
1.2821e-06
2.20889e-07
1.28118e-06
2.45437e-07
1.28256e-06
2.69995e-07
1.28143e-06
2.94553e-07
1.28329e-06
3.1913e-07
1.28227e-06
3.43717e-07
1.28444e-06
3.68296e-07
1.28467e-06
3.92939e-07
1.28661e-06
4.17523e-07
1.29067e-06
4.42377e-07
1.28914e-06
4.66889e-07
1.30324e-06
4.92062e-07
1.29814e-06
5.16547e-07
1.32655e-06
5.42023e-07
1.33121e-06
5.66556e-07
1.34889e-06
5.91903e-07
1.40727e-06
1.40182e-06
-5.98277e-07
1.37781e-06
-5.72593e-07
1.38156e-06
-5.47747e-07
1.32401e-06
-5.2197e-07
1.30541e-06
-4.97205e-07
1.30179e-06
-4.7176e-07
1.2727e-06
-4.46986e-07
1.27848e-06
-4.21867e-07
1.26405e-06
-3.97024e-07
1.26583e-06
-3.72101e-07
1.26165e-06
-3.47245e-07
1.2598e-06
-3.22405e-07
1.25957e-06
-2.97576e-07
1.2574e-06
-2.72764e-07
1.25842e-06
-2.47954e-07
1.25656e-06
-2.23154e-07
1.25771e-06
-1.98352e-07
1.25631e-06
-1.73556e-07
1.25723e-06
-1.4876e-07
1.25628e-06
-1.23966e-07
1.25692e-06
-9.91697e-08
1.25633e-06
-7.4376e-08
1.25672e-06
-4.9584e-08
1.25643e-06
-2.47916e-08
1.25663e-06
6.90464e-13
1.25654e-06
2.4793e-08
1.25653e-06
4.95854e-08
1.25663e-06
7.43775e-08
1.25643e-06
9.91714e-08
1.25672e-06
1.23967e-07
1.25632e-06
1.48762e-07
1.25692e-06
1.73558e-07
1.25628e-06
1.98354e-07
1.25724e-06
2.23156e-07
1.25632e-06
2.47956e-07
1.25771e-06
2.72767e-07
1.25657e-06
2.97577e-07
1.25844e-06
3.22407e-07
1.25741e-06
3.47248e-07
1.25958e-06
3.72104e-07
1.25979e-06
3.97025e-07
1.26164e-06
4.2187e-07
1.26582e-06
4.46989e-07
1.26401e-06
4.71763e-07
1.27847e-06
4.97209e-07
1.27269e-06
5.21975e-07
1.30179e-06
5.47755e-07
1.30543e-06
5.72579e-07
1.32403e-06
5.9828e-07
1.38162e-06
1.37768e-06
-6.04811e-07
1.35328e-06
-5.78753e-07
1.35546e-06
-5.53599e-07
1.29892e-06
-5.27508e-07
1.27933e-06
-5.02452e-07
1.27675e-06
-4.76728e-07
1.24697e-06
-4.51686e-07
1.25343e-06
-4.26296e-07
1.23865e-06
-4.01187e-07
1.24069e-06
-3.76004e-07
1.23634e-06
-3.50888e-07
1.23465e-06
-3.25787e-07
1.23443e-06
-3.00697e-07
1.23227e-06
-2.75625e-07
1.23331e-06
-2.50554e-07
1.23143e-06
-2.25493e-07
1.23259e-06
-2.00432e-07
1.23119e-06
-1.75375e-07
1.23211e-06
-1.5032e-07
1.23115e-06
-1.25265e-07
1.23178e-06
-1.00209e-07
1.23121e-06
-7.51557e-08
1.23159e-06
-5.01037e-08
1.2313e-06
-2.50515e-08
1.23149e-06
7.53427e-13
1.2314e-06
2.5053e-08
1.2314e-06
5.01053e-08
1.2315e-06
7.51573e-08
1.2313e-06
1.00211e-07
1.23159e-06
1.25267e-07
1.2312e-06
1.50322e-07
1.23178e-06
1.75378e-07
1.23115e-06
2.00434e-07
1.23211e-06
2.25495e-07
1.23119e-06
2.50556e-07
1.2326e-06
2.75627e-07
1.23145e-06
3.00699e-07
1.23332e-06
3.25789e-07
1.23229e-06
3.50891e-07
1.23444e-06
3.76007e-07
1.23465e-06
4.01189e-07
1.23633e-06
4.26299e-07
1.24067e-06
4.51689e-07
1.23861e-06
4.76731e-07
1.25342e-06
5.02456e-07
1.24697e-06
5.27514e-07
1.27675e-06
5.53608e-07
1.27934e-06
5.78738e-07
1.29876e-06
6.04813e-07
1.35569e-06
1.35314e-06
-6.11559e-07
1.32835e-06
-5.85133e-07
1.32901e-06
-5.59692e-07
1.27351e-06
-5.33292e-07
1.25295e-06
-5.07936e-07
1.25141e-06
-4.81922e-07
1.22095e-06
-4.56602e-07
1.2281e-06
-4.30929e-07
1.21295e-06
-4.05545e-07
1.21526e-06
-3.80089e-07
1.21074e-06
-3.54702e-07
1.20922e-06
-3.29326e-07
1.20902e-06
-3.03964e-07
1.20688e-06
-2.78619e-07
1.20793e-06
-2.53275e-07
1.20604e-06
-2.27942e-07
1.20721e-06
-2.02609e-07
1.20579e-06
-1.7728e-07
1.20672e-06
-1.51953e-07
1.20575e-06
-1.26626e-07
1.20639e-06
-1.01298e-07
1.20583e-06
-7.5972e-08
1.2062e-06
-5.06479e-08
1.20591e-06
-2.53235e-08
1.2061e-06
8.17761e-13
1.20601e-06
2.53251e-08
1.20601e-06
5.06496e-08
1.20611e-06
7.59737e-08
1.20591e-06
1.013e-07
1.2062e-06
1.26628e-07
1.20582e-06
1.51955e-07
1.20639e-06
1.77282e-07
1.20575e-06
2.02611e-07
1.20672e-06
2.27945e-07
1.20579e-06
2.53278e-07
1.20721e-06
2.78621e-07
1.20605e-06
3.03966e-07
1.20794e-06
3.29328e-07
1.20689e-06
3.54705e-07
1.20903e-06
3.80092e-07
1.20923e-06
4.05547e-07
1.21072e-06
4.30932e-07
1.21525e-06
4.56605e-07
1.21291e-06
4.81925e-07
1.22809e-06
5.0794e-07
1.22094e-06
5.33297e-07
1.25141e-06
5.597e-07
1.25296e-06
5.85119e-07
1.27331e-06
6.11561e-07
1.32929e-06
1.32821e-06
-6.18642e-07
1.30302e-06
-5.9182e-07
1.30217e-06
-5.66048e-07
1.24776e-06
-5.39311e-07
1.22624e-06
-5.13638e-07
1.22575e-06
-4.87322e-07
1.19462e-06
-4.61712e-07
1.20247e-06
-4.35746e-07
1.18696e-06
-4.10074e-07
1.18953e-06
-3.84334e-07
1.18485e-06
-3.58664e-07
1.18351e-06
-3.33005e-07
1.18333e-06
-3.07359e-07
1.1812e-06
-2.8173e-07
1.18227e-06
-2.56104e-07
1.18037e-06
-2.30487e-07
1.18155e-06
-2.04872e-07
1.18013e-06
-1.7926e-07
1.18107e-06
-1.5365e-07
1.1801e-06
-1.2804e-07
1.18073e-06
-1.02429e-07
1.18017e-06
-7.68202e-08
1.18055e-06
-5.12134e-08
1.18026e-06
-2.56062e-08
1.18045e-06
8.83946e-13
1.18036e-06
2.56079e-08
1.18036e-06
5.12152e-08
1.18045e-06
7.68221e-08
1.18025e-06
1.02431e-07
1.18055e-06
1.28042e-07
1.18017e-06
1.53652e-07
1.18073e-06
1.79262e-07
1.1801e-06
2.04874e-07
1.18107e-06
2.3049e-07
1.18013e-06
2.56107e-07
1.18155e-06
2.81733e-07
1.18038e-06
3.07361e-07
1.18227e-06
3.33007e-07
1.18121e-06
3.58667e-07
1.18334e-06
3.84338e-07
1.18352e-06
4.10077e-07
1.18483e-06
4.35749e-07
1.18952e-06
4.61715e-07
1.18692e-06
4.87325e-07
1.20246e-06
5.13642e-07
1.19461e-06
5.39317e-07
1.22575e-06
5.66055e-07
1.22625e-06
5.91807e-07
1.24756e-06
6.18644e-07
1.30247e-06
1.30287e-06
-6.25997e-07
1.27726e-06
-5.98753e-07
1.27493e-06
-5.72593e-07
1.22162e-06
-5.4547e-07
1.19913e-06
-5.19471e-07
1.19976e-06
-4.92849e-07
1.16797e-06
-4.66942e-07
1.17654e-06
-4.40677e-07
1.16065e-06
-4.14712e-07
1.1635e-06
-3.88681e-07
1.15868e-06
-3.62721e-07
1.15751e-06
-3.3677e-07
1.15735e-06
-3.10835e-07
1.15523e-06
-2.84915e-07
1.15632e-06
-2.59e-07
1.15442e-06
-2.33093e-07
1.15561e-06
-2.07188e-07
1.15419e-06
-1.81286e-07
1.15513e-06
-1.55387e-07
1.15417e-06
-1.29487e-07
1.15481e-06
-1.03588e-07
1.15425e-06
-7.76888e-08
1.15462e-06
-5.17924e-08
1.15433e-06
-2.58956e-08
1.15452e-06
9.52211e-13
1.15443e-06
2.58975e-08
1.15443e-06
5.17944e-08
1.15453e-06
7.76908e-08
1.15433e-06
1.0359e-07
1.15462e-06
1.29489e-07
1.15424e-06
1.55389e-07
1.1548e-06
1.81289e-07
1.15417e-06
2.07191e-07
1.15513e-06
2.33096e-07
1.15419e-06
2.59003e-07
1.15561e-06
2.84918e-07
1.15443e-06
3.10837e-07
1.15632e-06
3.36773e-07
1.15525e-06
3.62724e-07
1.15736e-06
3.88685e-07
1.15752e-06
4.14715e-07
1.15866e-06
4.40681e-07
1.16348e-06
4.66946e-07
1.16061e-06
4.92853e-07
1.17653e-06
5.19476e-07
1.16796e-06
5.45475e-07
1.19977e-06
5.726e-07
1.19914e-06
5.98741e-07
1.22143e-06
6.25998e-07
1.27522e-06
1.2771e-06
-6.33535e-07
1.25105e-06
-6.05861e-07
1.24726e-06
-5.79349e-07
1.19511e-06
-5.51873e-07
1.17167e-06
-5.25537e-07
1.17343e-06
-4.98598e-07
1.141e-06
-4.72382e-07
1.1503e-06
-4.45806e-07
1.13403e-06
-4.19536e-07
1.13716e-06
-3.93203e-07
1.13223e-06
-3.66941e-07
1.13121e-06
-3.40688e-07
1.13106e-06
-3.14451e-07
1.12897e-06
-2.8823e-07
1.13007e-06
-2.62013e-07
1.12818e-06
-2.35804e-07
1.12938e-06
-2.09598e-07
1.12796e-06
-1.83395e-07
1.12891e-06
-1.57194e-07
1.12795e-06
-1.30993e-07
1.12859e-06
-1.04792e-07
1.12803e-06
-7.85924e-08
1.12841e-06
-5.23948e-08
1.12812e-06
-2.61967e-08
1.12831e-06
1.02309e-12
1.12822e-06
2.61988e-08
1.12822e-06
5.23969e-08
1.12831e-06
7.85945e-08
1.12812e-06
1.04795e-07
1.12841e-06
1.30996e-07
1.12803e-06
1.57197e-07
1.12859e-06
1.83397e-07
1.12795e-06
2.09601e-07
1.12891e-06
2.35807e-07
1.12797e-06
2.62016e-07
1.12938e-06
2.88232e-07
1.12819e-06
3.14453e-07
1.13008e-06
3.40691e-07
1.12899e-06
3.66944e-07
1.13107e-06
3.93207e-07
1.13122e-06
4.1954e-07
1.13221e-06
4.4581e-07
1.13714e-06
4.72386e-07
1.13399e-06
4.98601e-07
1.15028e-06
5.25541e-07
1.14099e-06
5.51878e-07
1.17344e-06
5.79356e-07
1.17168e-06
6.0585e-07
1.19494e-06
6.33536e-07
1.24754e-06
1.25089e-06
-6.41385e-07
1.22438e-06
-6.13266e-07
1.21914e-06
-5.86394e-07
1.16825e-06
-5.58552e-07
1.14384e-06
-5.31858e-07
1.14672e-06
-5.0459e-07
1.1137e-06
-4.78053e-07
1.12373e-06
-4.51155e-07
1.10708e-06
-4.24567e-07
1.1105e-06
-3.97918e-07
1.10549e-06
-3.71341e-07
1.10459e-06
-3.44773e-07
1.10447e-06
-3.18221e-07
1.1024e-06
-2.91685e-07
1.10352e-06
-2.65154e-07
1.10163e-06
-2.38631e-07
1.10284e-06
-2.12111e-07
1.10143e-06
-1.85593e-07
1.10238e-06
-1.59079e-07
1.10143e-06
-1.32564e-07
1.10207e-06
-1.06049e-07
1.10151e-06
-7.95345e-08
1.1019e-06
-5.30228e-08
1.1016e-06
-2.65107e-08
1.10179e-06
1.09698e-12
1.1017e-06
2.65129e-08
1.1017e-06
5.30251e-08
1.10179e-06
7.95368e-08
1.1016e-06
1.06051e-07
1.10189e-06
1.32566e-07
1.10151e-06
1.59081e-07
1.10207e-06
1.85596e-07
1.10143e-06
2.12114e-07
1.10238e-06
2.38634e-07
1.10143e-06
2.65157e-07
1.10284e-06
2.91688e-07
1.10164e-06
3.18223e-07
1.10352e-06
3.44775e-07
1.10241e-06
3.71344e-07
1.10448e-06
3.97923e-07
1.10461e-06
4.24571e-07
1.10547e-06
4.51159e-07
1.11048e-06
4.78057e-07
1.10704e-06
5.04594e-07
1.12371e-06
5.31862e-07
1.11369e-06
5.58558e-07
1.14674e-06
5.864e-07
1.14384e-06
6.13255e-07
1.16809e-06
6.41385e-07
1.21941e-06
1.2242e-06
-6.49578e-07
1.19722e-06
-6.20996e-07
1.19056e-06
-5.93745e-07
1.141e-06
-5.65536e-07
1.11564e-06
-5.38472e-07
1.11966e-06
-5.10851e-07
1.08603e-06
-4.83979e-07
1.09682e-06
-4.56744e-07
1.07978e-06
-4.29825e-07
1.0835e-06
-4.02846e-07
1.07843e-06
-3.75939e-07
1.07765e-06
-3.49041e-07
1.07754e-06
-3.22161e-07
1.0755e-06
-2.95296e-07
1.07664e-06
-2.68437e-07
1.07476e-06
-2.41585e-07
1.07598e-06
-2.14737e-07
1.07458e-06
-1.87891e-07
1.07553e-06
-1.61048e-07
1.07458e-06
-1.34205e-07
1.07522e-06
-1.07362e-07
1.07467e-06
-8.05192e-08
1.07505e-06
-5.36793e-08
1.07476e-06
-2.68389e-08
1.07495e-06
1.17432e-12
1.07486e-06
2.68412e-08
1.07485e-06
5.36817e-08
1.07495e-06
8.05216e-08
1.07476e-06
1.07365e-07
1.07505e-06
1.34207e-07
1.07466e-06
1.61051e-07
1.07522e-06
1.87894e-07
1.07458e-06
2.1474e-07
1.07552e-06
2.41588e-07
1.07458e-06
2.6844e-07
1.07598e-06
2.95299e-07
1.07477e-06
3.22164e-07
1.07665e-06
3.49044e-07
1.07552e-06
3.75943e-07
1.07755e-06
4.02851e-07
1.07767e-06
4.2983e-07
1.07841e-06
4.56748e-07
1.08348e-06
4.83983e-07
1.07975e-06
5.10855e-07
1.0968e-06
5.38477e-07
1.08602e-06
5.65541e-07
1.11967e-06
5.93751e-07
1.11564e-06
6.20987e-07
1.14086e-06
6.49577e-07
1.19081e-06
1.19704e-06
-6.5815e-07
1.16955e-06
-6.29089e-07
1.16149e-06
-6.01441e-07
1.11335e-06
-5.72837e-07
1.08704e-06
-5.45392e-07
1.0922e-06
-5.17422e-07
1.05809e-06
-4.90206e-07
1.06963e-06
-4.62622e-07
1.05221e-06
-4.35358e-07
1.05623e-06
-4.08033e-07
1.05111e-06
-3.8078e-07
1.05042e-06
-3.53537e-07
1.05033e-06
-3.26312e-07
1.04832e-06
-2.991e-07
1.04947e-06
-2.71896e-07
1.0476e-06
-2.44697e-07
1.04883e-06
-2.17504e-07
1.04743e-06
-1.90311e-07
1.04838e-06
-1.63124e-07
1.04745e-06
-1.35934e-07
1.04809e-06
-1.08745e-07
1.04753e-06
-8.15566e-08
1.04792e-06
-5.4371e-08
1.04763e-06
-2.71846e-08
1.04781e-06
1.25566e-12
1.04772e-06
2.71871e-08
1.04772e-06
5.43736e-08
1.04781e-06
8.15592e-08
1.04762e-06
1.08748e-07
1.04792e-06
1.35936e-07
1.04753e-06
1.63126e-07
1.04808e-06
1.90314e-07
1.04744e-06
2.17507e-07
1.04838e-06
2.44701e-07
1.04743e-06
2.71899e-07
1.04883e-06
2.99103e-07
1.04762e-06
3.26315e-07
1.04948e-06
3.5354e-07
1.04833e-06
3.80785e-07
1.05034e-06
4.08038e-07
1.05045e-06
4.35363e-07
1.05108e-06
4.62627e-07
1.05621e-06
4.90211e-07
1.05217e-06
5.17427e-07
1.06962e-06
5.45397e-07
1.05807e-06
5.72842e-07
1.0922e-06
6.01447e-07
1.08704e-06
6.2908e-07
1.11323e-06
6.58149e-07
1.16174e-06
1.16936e-06
-6.67143e-07
1.14135e-06
-6.37582e-07
1.13191e-06
-6.0952e-07
1.0853e-06
-5.80503e-07
1.05803e-06
-5.52653e-07
1.06433e-06
-5.24311e-07
1.02977e-06
-4.96727e-07
1.04208e-06
-4.68775e-07
1.02426e-06
-4.41147e-07
1.0286e-06
-4.13457e-07
1.02343e-06
-3.85842e-07
1.02284e-06
-3.58236e-07
1.02276e-06
-3.3065e-07
1.02078e-06
-3.03075e-07
1.02194e-06
-2.7551e-07
1.02009e-06
-2.4795e-07
1.02131e-06
-2.20395e-07
1.01993e-06
-1.92841e-07
1.02088e-06
-1.65292e-07
1.01995e-06
-1.3774e-07
1.02059e-06
-1.10191e-07
1.02004e-06
-8.26406e-08
1.02043e-06
-5.50937e-08
1.02013e-06
-2.75459e-08
1.02032e-06
1.3412e-12
1.02023e-06
2.75486e-08
1.02023e-06
5.50965e-08
1.02032e-06
8.26434e-08
1.02013e-06
1.10194e-07
1.02042e-06
1.37743e-07
1.02004e-06
1.65295e-07
1.02058e-06
1.92844e-07
1.01995e-06
2.20399e-07
1.02088e-06
2.47953e-07
1.01993e-06
2.75514e-07
1.02132e-06
3.03079e-07
1.0201e-06
3.30653e-07
1.02195e-06
3.58239e-07
1.02079e-06
3.85847e-07
1.02277e-06
4.13463e-07
1.02287e-06
4.41152e-07
1.02341e-06
4.6878e-07
1.02858e-06
4.96732e-07
1.02422e-06
5.24316e-07
1.04207e-06
5.52658e-07
1.02976e-06
5.80508e-07
1.06433e-06
6.09526e-07
1.05803e-06
6.37574e-07
1.08519e-06
6.67141e-07
1.13215e-06
1.14115e-06
-6.76607e-07
1.11259e-06
-6.4652e-07
1.1018e-06
-6.18021e-07
1.0568e-06
-5.88575e-07
1.02859e-06
-5.60297e-07
1.03604e-06
-5.31565e-07
1.00106e-06
-5.03594e-07
1.01414e-06
-4.75255e-07
9.95929e-07
-4.47244e-07
1.00059e-06
-4.1917e-07
9.95374e-07
-3.91174e-07
9.9488e-07
-3.63186e-07
9.94815e-07
-3.35219e-07
9.92856e-07
-3.07263e-07
9.94034e-07
-2.79317e-07
9.92193e-07
-2.51375e-07
9.93422e-07
-2.23441e-07
9.92045e-07
-1.95505e-07
9.92996e-07
-1.67576e-07
9.92072e-07
-1.39643e-07
9.92711e-07
-1.11714e-07
9.92165e-07
-8.37824e-08
9.9255e-07
-5.58549e-08
9.92258e-07
-2.79264e-08
9.92439e-07
1.43156e-12
9.9235e-07
2.79293e-08
9.92348e-07
5.58579e-08
9.92441e-07
8.37853e-08
9.92254e-07
1.11717e-07
9.92546e-07
1.39646e-07
9.92161e-07
1.67579e-07
9.92703e-07
1.95508e-07
9.92069e-07
2.23444e-07
9.9299e-07
2.51379e-07
9.92044e-07
2.79321e-07
9.93424e-07
3.07266e-07
9.92205e-07
3.35222e-07
9.94046e-07
3.63189e-07
9.92871e-07
3.91179e-07
9.94822e-07
4.19176e-07
9.94906e-07
4.47249e-07
9.95353e-07
4.7526e-07
1.00057e-06
5.03599e-07
9.95892e-07
5.3157e-07
1.01413e-06
5.60302e-07
1.00105e-06
5.8858e-07
1.03603e-06
6.18027e-07
1.02858e-06
6.46513e-07
1.05671e-06
6.76604e-07
1.10204e-06
1.11238e-06
-6.86622e-07
1.08327e-06
-6.56007e-07
1.07117e-06
-6.27061e-07
1.02787e-06
-5.97174e-07
9.98715e-07
-5.68448e-07
1.0073e-06
-5.39306e-07
9.71946e-07
-5.10925e-07
9.858e-07
-4.82175e-07
9.67196e-07
-4.53755e-07
9.72186e-07
-4.25273e-07
9.66922e-07
-3.9687e-07
9.6652e-07
-3.68473e-07
9.66464e-07
-3.40101e-07
9.64534e-07
-3.11737e-07
9.65722e-07
-2.83385e-07
9.63896e-07
-2.55035e-07
9.65125e-07
-2.26695e-07
9.63758e-07
-1.98352e-07
9.64706e-07
-1.70016e-07
9.6379e-07
-1.41677e-07
9.64426e-07
-1.13341e-07
9.63887e-07
-8.50024e-08
9.64269e-07
-5.66684e-08
9.63978e-07
-2.8333e-08
9.64157e-07
1.5275e-12
9.64069e-07
2.83361e-08
9.64067e-07
5.66716e-08
9.64159e-07
8.50056e-08
9.63974e-07
1.13344e-07
9.64265e-07
1.4168e-07
9.63883e-07
1.7002e-07
9.64419e-07
1.98355e-07
9.63788e-07
2.26699e-07
9.647e-07
2.55039e-07
9.63758e-07
2.83389e-07
9.65128e-07
3.11741e-07
9.63908e-07
3.40104e-07
9.65736e-07
3.68477e-07
9.64549e-07
3.96875e-07
9.6647e-07
4.25279e-07
9.66545e-07
4.53761e-07
9.66902e-07
4.82181e-07
9.72165e-07
5.1093e-07
9.6716e-07
5.39311e-07
9.8579e-07
5.68453e-07
9.71936e-07
5.9718e-07
1.00729e-06
6.27067e-07
9.9871e-07
6.56001e-07
1.02779e-06
6.86618e-07
1.0714e-06
1.08306e-06
-6.97198e-07
1.05335e-06
-6.66002e-07
1.03994e-06
-6.36567e-07
9.98439e-07
-6.06211e-07
9.68376e-07
-5.77005e-07
9.781e-07
-5.4743e-07
9.42399e-07
-5.18616e-07
9.57024e-07
-4.89436e-07
9.38034e-07
-4.60586e-07
9.43355e-07
-4.31675e-07
9.38043e-07
-4.02845e-07
9.37732e-07
-3.74019e-07
9.37683e-07
-3.45221e-07
9.35785e-07
-3.16428e-07
9.3698e-07
-2.87652e-07
9.3517e-07
-2.58874e-07
9.36398e-07
-2.30108e-07
9.35043e-07
-2.01337e-07
9.35986e-07
-1.72576e-07
9.35079e-07
-1.43809e-07
9.3571e-07
-1.15047e-07
9.35178e-07
-8.62818e-08
9.35557e-07
-5.75214e-08
9.35268e-07
-2.87594e-08
9.35444e-07
1.62912e-12
9.35358e-07
2.87627e-08
9.35355e-07
5.75248e-08
9.35446e-07
8.62852e-08
9.35264e-07
1.15051e-07
9.35553e-07
1.43813e-07
9.35174e-07
1.72579e-07
9.35703e-07
2.01341e-07
9.35076e-07
2.30112e-07
9.3598e-07
2.58878e-07
9.35042e-07
2.87656e-07
9.36401e-07
3.16433e-07
9.35182e-07
3.45225e-07
9.36994e-07
3.74023e-07
9.358e-07
4.0285e-07
9.37689e-07
4.31681e-07
9.37758e-07
4.60592e-07
9.38024e-07
4.89442e-07
9.43335e-07
5.18621e-07
9.37998e-07
5.47435e-07
9.57016e-07
5.77011e-07
9.4239e-07
6.06216e-07
9.78088e-07
6.36572e-07
9.68371e-07
6.65997e-07
9.98372e-07
6.97194e-07
1.04018e-06
1.05312e-06
-7.0843e-07
1.02278e-06
-6.76657e-07
1.00822e-06
-6.46739e-07
9.68576e-07
-6.15894e-07
9.37551e-07
-5.86179e-07
9.48396e-07
-5.56144e-07
9.12392e-07
-5.26868e-07
9.27785e-07
-4.97228e-07
9.08415e-07
-4.67918e-07
9.14068e-07
-4.38546e-07
9.08706e-07
-4.09258e-07
9.08488e-07
-3.79973e-07
9.08443e-07
-3.50718e-07
9.06578e-07
-3.21465e-07
9.07777e-07
-2.92232e-07
9.05987e-07
-2.62995e-07
9.07211e-07
-2.33772e-07
9.05869e-07
-2.04542e-07
9.06805e-07
-1.75324e-07
9.05909e-07
-1.46098e-07
9.06534e-07
-1.16879e-07
9.06009e-07
-8.76555e-08
9.06384e-07
-5.84373e-08
9.06098e-07
-2.92172e-08
9.06272e-07
1.73756e-12
9.06186e-07
2.92207e-08
9.06183e-07
5.84409e-08
9.06274e-07
8.7659e-08
9.06094e-07
1.16883e-07
9.0638e-07
1.46102e-07
9.06005e-07
1.75328e-07
9.06527e-07
2.04546e-07
9.05906e-07
2.33776e-07
9.06799e-07
2.62999e-07
9.05869e-07
2.92236e-07
9.07213e-07
3.2147e-07
9.05999e-07
3.50722e-07
9.07792e-07
3.79977e-07
9.06593e-07
4.09264e-07
9.08448e-07
4.38552e-07
9.08513e-07
4.67924e-07
9.08688e-07
4.97234e-07
9.14049e-07
5.26874e-07
9.0838e-07
5.5615e-07
9.27779e-07
5.86185e-07
9.12385e-07
6.159e-07
9.48384e-07
6.46745e-07
9.37547e-07
6.76652e-07
9.68521e-07
7.08425e-07
1.00846e-06
1.02254e-06
-7.204e-07
9.91522e-07
-6.87984e-07
9.75856e-07
-6.57517e-07
9.38162e-07
-6.26148e-07
9.06206e-07
-5.9589e-07
9.18153e-07
-5.65367e-07
8.81897e-07
-5.35599e-07
8.98052e-07
-5.05473e-07
8.78311e-07
-4.75675e-07
8.84296e-07
-4.45815e-07
8.78882e-07
-4.16043e-07
8.7876e-07
-3.86271e-07
8.78714e-07
-3.56533e-07
8.76886e-07
-3.26794e-07
8.78085e-07
-2.97077e-07
8.76318e-07
-2.67354e-07
8.77535e-07
-2.37648e-07
8.76209e-07
-2.07933e-07
8.77136e-07
-1.78231e-07
8.76252e-07
-1.4852e-07
8.7687e-07
-1.18817e-07
8.76353e-07
-8.91086e-08
8.76723e-07
-5.94062e-08
8.76441e-07
-2.97015e-08
8.76611e-07
1.853e-12
8.76527e-07
2.97052e-08
8.76524e-07
5.941e-08
8.76613e-07
8.91123e-08
8.76437e-07
1.18821e-07
8.76719e-07
1.48524e-07
8.7635e-07
1.78235e-07
8.76863e-07
2.07937e-07
8.7625e-07
2.37652e-07
8.77131e-07
2.67358e-07
8.76209e-07
2.97082e-07
8.77537e-07
3.26799e-07
8.7633e-07
3.56537e-07
8.78101e-07
3.86276e-07
8.76901e-07
4.16049e-07
8.78719e-07
4.45822e-07
8.78784e-07
4.75681e-07
8.78866e-07
5.05479e-07
8.84277e-07
5.35605e-07
8.78277e-07
5.65373e-07
8.98047e-07
5.95896e-07
8.8189e-07
6.26154e-07
9.18144e-07
6.57523e-07
9.06203e-07
6.8798e-07
9.38118e-07
7.20394e-07
9.76095e-07
9.91268e-07
-7.33206e-07
9.59537e-07
-7.00109e-07
9.42809e-07
-6.69056e-07
9.0716e-07
-6.37131e-07
8.74308e-07
-6.0629e-07
8.87332e-07
-5.75247e-07
8.50878e-07
-5.44952e-07
8.67786e-07
-5.14307e-07
8.4769e-07
-4.83985e-07
8.54004e-07
-4.53604e-07
8.48537e-07
-4.23313e-07
8.48511e-07
-3.93019e-07
8.48462e-07
-3.62763e-07
8.46675e-07
-3.32503e-07
8.47871e-07
-3.02269e-07
8.4613e-07
-2.72025e-07
8.47336e-07
-2.41801e-07
8.46029e-07
-2.11566e-07
8.46944e-07
-1.81345e-07
8.46076e-07
-1.51115e-07
8.46683e-07
-1.20893e-07
8.46177e-07
-9.06655e-08
8.46541e-07
-6.04443e-08
8.46263e-07
-3.02203e-08
8.4643e-07
1.97649e-12
8.46347e-07
3.02244e-08
8.46344e-07
6.04484e-08
8.46432e-07
9.06695e-08
8.46259e-07
1.20897e-07
8.46537e-07
1.51119e-07
8.46174e-07
1.81349e-07
8.46678e-07
2.1157e-07
8.46073e-07
2.41805e-07
8.4694e-07
2.72029e-07
8.4603e-07
3.02274e-07
8.47338e-07
3.32508e-07
8.46141e-07
3.62768e-07
8.47887e-07
3.93024e-07
8.4669e-07
4.23319e-07
8.48467e-07
4.53611e-07
8.48535e-07
4.83992e-07
8.48521e-07
5.14313e-07
8.53986e-07
5.44958e-07
8.47657e-07
5.75253e-07
8.67784e-07
6.06296e-07
8.50873e-07
6.37137e-07
8.87324e-07
6.69062e-07
8.74305e-07
7.00106e-07
9.07127e-07
7.332e-07
9.43051e-07
9.59269e-07
-7.46964e-07
9.26773e-07
-7.13143e-07
9.09038e-07
-6.81461e-07
8.75529e-07
-6.48943e-07
8.41819e-07
-6.17476e-07
8.55885e-07
-5.85876e-07
8.19297e-07
-5.55012e-07
8.36945e-07
-5.2381e-07
8.16514e-07
-4.92926e-07
8.2315e-07
-4.61983e-07
8.17629e-07
-4.31135e-07
8.17705e-07
-4.00279e-07
8.17647e-07
-3.69467e-07
8.15907e-07
-3.38645e-07
8.17093e-07
-3.07855e-07
8.15384e-07
-2.7705e-07
8.16577e-07
-2.46269e-07
8.15292e-07
-2.15474e-07
8.16193e-07
-1.84696e-07
8.15341e-07
-1.53907e-07
8.15937e-07
-1.23127e-07
8.15443e-07
-9.23406e-08
8.15799e-07
-6.15613e-08
8.15526e-07
-3.07786e-08
8.1569e-07
2.10892e-12
8.15609e-07
3.07829e-08
8.15606e-07
6.15656e-08
8.15692e-07
9.23448e-08
8.15523e-07
1.23132e-07
8.15795e-07
1.53911e-07
8.1544e-07
1.84701e-07
8.15932e-07
2.15479e-07
8.15339e-07
2.46274e-07
8.1619e-07
2.77055e-07
8.15293e-07
3.07859e-07
8.16578e-07
3.3865e-07
8.15396e-07
3.69472e-07
8.1711e-07
4.00284e-07
8.15921e-07
4.31141e-07
8.17652e-07
4.6199e-07
8.17727e-07
4.92933e-07
8.17614e-07
5.23817e-07
8.23133e-07
5.55018e-07
8.16482e-07
5.85882e-07
8.36945e-07
6.17482e-07
8.19292e-07
6.48949e-07
8.55879e-07
6.81467e-07
8.41817e-07
7.1314e-07
8.75507e-07
7.46957e-07
9.09286e-07
9.26489e-07
-7.61814e-07
8.93167e-07
-7.27212e-07
8.74484e-07
-6.94856e-07
8.43222e-07
-6.61704e-07
8.08697e-07
-6.29561e-07
8.23754e-07
-5.97361e-07
7.87108e-07
-5.65882e-07
8.05479e-07
-5.34081e-07
7.8474e-07
-5.02589e-07
7.91689e-07
-4.71038e-07
7.86115e-07
-4.39588e-07
7.86294e-07
-4.08124e-07
7.86224e-07
-3.76712e-07
7.84537e-07
-3.45283e-07
7.85709e-07
-3.13891e-07
7.84037e-07
-2.82481e-07
7.85211e-07
-2.51098e-07
7.83954e-07
-2.19698e-07
7.84837e-07
-1.88318e-07
7.84006e-07
-1.56924e-07
7.84587e-07
-1.25542e-07
7.84107e-07
-9.41509e-08
7.84455e-07
-6.27684e-08
7.84188e-07
-3.1382e-08
7.84347e-07
2.25134e-12
7.84268e-07
3.13865e-08
7.84265e-07
6.27731e-08
7.84349e-07
9.41555e-08
7.84184e-07
1.25546e-07
7.8445e-07
1.56929e-07
7.84104e-07
1.88323e-07
7.84584e-07
2.19703e-07
7.84004e-07
2.51103e-07
7.84835e-07
2.82486e-07
7.83956e-07
3.13897e-07
7.85213e-07
3.45289e-07
7.84049e-07
3.76717e-07
7.85726e-07
4.0813e-07
7.84551e-07
4.39595e-07
7.86228e-07
4.71046e-07
7.86317e-07
5.02596e-07
7.861e-07
5.34089e-07
7.91672e-07
5.65888e-07
7.84708e-07
5.97367e-07
8.0548e-07
6.29567e-07
7.87104e-07
6.6171e-07
8.2375e-07
6.94862e-07
8.08696e-07
7.27209e-07
8.43211e-07
7.61807e-07
8.74738e-07
8.92867e-07
-7.77942e-07
8.58675e-07
-7.42532e-07
8.39119e-07
-7.09467e-07
8.10207e-07
-6.75643e-07
7.74905e-07
-6.4277e-07
7.90923e-07
-6.09921e-07
7.54304e-07
-5.77728e-07
7.73329e-07
-5.45236e-07
7.52275e-07
-5.13081e-07
7.59567e-07
-4.80872e-07
7.53941e-07
-4.48768e-07
7.5423e-07
-4.16645e-07
7.54142e-07
-3.8458e-07
7.52514e-07
-3.52492e-07
7.53665e-07
-3.20448e-07
7.52038e-07
-2.88379e-07
7.53189e-07
-2.56343e-07
7.51964e-07
-2.24286e-07
7.52826e-07
-1.92251e-07
7.52018e-07
-1.60201e-07
7.52584e-07
-1.28164e-07
7.52119e-07
-9.6117e-08
7.52457e-07
-6.40795e-08
7.52198e-07
-3.20372e-08
7.52351e-07
2.40497e-12
7.52275e-07
3.20421e-08
7.52272e-07
6.40844e-08
7.52353e-07
9.61219e-08
7.52194e-07
1.28169e-07
7.52452e-07
1.60206e-07
7.52116e-07
1.92256e-07
7.52581e-07
2.24291e-07
7.52016e-07
2.56348e-07
7.52825e-07
2.88384e-07
7.51968e-07
3.20453e-07
7.5319e-07
3.52498e-07
7.5205e-07
3.84585e-07
7.53683e-07
4.16652e-07
7.52528e-07
4.48776e-07
7.54144e-07
4.8088e-07
7.54253e-07
5.13089e-07
7.53927e-07
5.45243e-07
7.59549e-07
5.77735e-07
7.52244e-07
6.09927e-07
7.73331e-07
6.42777e-07
7.543e-07
6.7565e-07
7.90918e-07
7.09473e-07
7.74905e-07
7.4253e-07
8.10206e-07
7.77934e-07
8.39381e-07
8.58357e-07
-7.95505e-07
8.23205e-07
-7.5919e-07
8.02845e-07
-7.25332e-07
7.76396e-07
-6.90772e-07
7.40377e-07
-6.57101e-07
7.57284e-07
-6.23546e-07
7.20787e-07
-5.90614e-07
7.4043e-07
-5.57414e-07
7.19102e-07
-5.24537e-07
7.26722e-07
-4.91609e-07
7.21046e-07
-4.58792e-07
7.2145e-07
-4.25948e-07
7.21338e-07
-3.9317e-07
7.19779e-07
-3.60363e-07
7.20903e-07
-3.27606e-07
7.19328e-07
-2.94819e-07
7.2045e-07
-2.62069e-07
7.19264e-07
-2.29294e-07
7.20101e-07
-1.96546e-07
7.1932e-07
-1.63779e-07
7.19867e-07
-1.31027e-07
7.1942e-07
-9.82636e-08
7.19746e-07
-6.55109e-08
7.19496e-07
-3.27527e-08