/*--------------------------------*- C++ -*----------------------------------*\
| =========                 |                                                 |
| \\      /  F ield         | OpenFOAM: The Open Source CFD Toolbox           |
|  \\    /   O peration     | Version:  dev                                   |
|   \\  /    A nd           | Web:      www.OpenFOAM.org                      |
|    \\/     M anipulation  |                                                 |
\*---------------------------------------------------------------------------*/
FoamFile
{
    version     2.0;
    format      ascii;
    class       surfaceScalarField;
    location    "0.055";
    object      phi;
}
// * * * * * * * * * * * * * * * * * * * * * * * * * * * * * * * * * * * * * //

dimensions      [1 0 -1 0 0 0 0];

internalField   nonuniform List<scalar> 
465
(
1.11282e-09
8.17333e-06
1.22294e-08
8.17197e-06
2.03198e-08
8.17458e-06
3.28656e-08
8.16911e-06
4.00448e-08
8.1731e-06
5.21571e-08
8.17144e-06
6.28566e-08
8.17293e-06
6.66831e-08
8.1808e-06
8.13176e-08
8.16935e-06
1.9884e-07
8.07956e-06
7.91038e-06
1.69228e-09
8.15833e-06
1.9056e-08
8.15301e-06
3.33829e-08
8.1587e-06
5.16359e-08
8.14927e-06
6.51936e-08
8.15954e-06
8.28807e-08
8.15474e-06
1.00131e-07
8.15679e-06
1.06748e-07
8.17509e-06
1.24707e-07
8.15231e-06
1.72405e-07
8.04555e-06
7.61221e-06
2.32946e-09
8.13543e-06
2.62292e-08
8.12853e-06
4.6995e-08
8.13741e-06
7.12859e-08
8.12449e-06
9.11536e-08
8.13951e-06
1.14719e-07
8.13129e-06
1.38676e-07
8.13296e-06
1.47213e-07
8.16656e-06
1.65483e-07
8.13475e-06
1.08683e-07
8.1188e-06
7.44619e-06
2.93135e-09
8.10749e-06
3.24872e-08
8.09928e-06
5.87777e-08
8.11145e-06
8.99395e-08
8.09369e-06
1.17329e-07
8.11253e-06
1.46965e-07
8.10213e-06
1.77719e-07
8.10266e-06
1.87774e-07
8.15691e-06
2.06458e-07
8.11751e-06
7.37469e-08
8.27092e-06
7.43696e-06
3.67822e-09
8.07335e-06
3.96634e-08
8.06375e-06
7.22193e-08
8.07936e-06
1.09792e-07
8.0566e-06
1.43752e-07
8.07904e-06
1.79179e-07
8.06721e-06
2.16709e-07
8.06559e-06
2.28222e-07
8.14583e-06
2.48435e-07
8.09895e-06
7.05751e-08
8.47057e-06
7.61885e-06
4.47171e-09
8.03313e-06
4.67568e-08
8.02207e-06
8.56828e-08
8.04104e-06
1.29449e-07
8.01345e-06
1.7004e-07
8.03908e-06
2.11128e-07
8.02675e-06
2.55363e-07
8.02196e-06
2.68558e-07
8.13318e-06
2.91374e-07
8.07785e-06
9.17261e-08
8.6935e-06
7.94496e-06
5.29788e-09
7.98666e-06
5.37811e-08
7.97418e-06
9.90762e-08
7.99633e-06
1.48933e-07
7.96419e-06
1.96118e-07
7.99249e-06
2.42754e-07
7.98071e-06
2.93593e-07
7.97172e-06
3.08876e-07
8.1184e-06
3.35194e-07
8.05318e-06
1.41139e-07
8.91132e-06
8.30683e-06
6.1425e-09
7.93405e-06
6.07115e-08
7.92027e-06
1.1235e-07
7.94535e-06
1.68188e-07
7.90901e-06
2.21891e-07
7.93945e-06
2.73978e-07
7.92928e-06
3.31325e-07
7.91494e-06
3.49249e-07
8.10092e-06
3.79836e-07
8.02404e-06
2.11236e-07
9.10307e-06
8.59902e-06
6.99173e-09
7.8752e-06
6.75435e-08
7.86034e-06
1.25489e-07
7.88802e-06
1.8721e-07
7.8479e-06
2.47334e-07
7.87995e-06
3.0479e-07
7.87245e-06
3.68537e-07
7.85173e-06
3.89738e-07
8.08011e-06
4.25209e-07
7.9897e-06
2.8512e-07
9.26459e-06
8.78235e-06
7.82951e-09
7.42621e-08
7.79447e-06
1.38457e-07
7.82438e-06
2.05966e-07
7.78095e-06
2.72388e-07
7.8141e-06
3.35156e-07
7.81025e-06
4.05222e-07
7.78215e-06
4.30382e-07
8.05523e-06
4.71281e-07
7.94947e-06
3.59983e-07
9.39469e-06
8.89411e-06
8.08725e-08
7.72275e-06
1.51256e-07
7.7545e-06
2.24481e-07
7.70823e-06
2.97069e-07
7.74201e-06
3.65129e-07
7.7427e-06
4.41442e-07
7.70626e-06
4.71228e-07
8.02562e-06
5.18049e-07
7.90272e-06
4.36116e-07
9.49202e-06
8.95496e-06
8.73621e-08
7.64523e-06
1.63854e-07
7.67843e-06
2.42728e-07
7.62978e-06
3.21335e-07
7.66383e-06
3.94685e-07
7.66978e-06
4.77184e-07
7.62412e-06
5.12274e-07
7.99056e-06
5.65487e-07
7.84897e-06
5.12452e-07
9.55649e-06
8.97252e-06
9.37315e-08
7.56197e-06
1.76249e-07
7.59626e-06
2.60717e-07
7.54566e-06
3.45196e-07
7.5797e-06
4.2386e-07
7.59146e-06
5.1249e-07
7.53576e-06
5.5352e-07
7.94941e-06
6.1355e-07
7.78771e-06
5.88205e-07
9.5886e-06
8.94977e-06
9.99773e-08
7.47302e-06
1.88432e-07
7.50805e-06
2.78451e-07
7.4559e-06
3.68656e-07
7.48974e-06
4.52678e-07
7.50769e-06
5.47386e-07
7.44124e-06
5.94947e-07
7.90158e-06
6.62174e-07
7.71859e-06
6.62849e-07
9.58899e-06
8.89079e-06
1.06097e-07
7.37841e-06
2.00398e-07
7.41391e-06
2.95929e-07
7.36053e-06
3.91724e-07
7.39409e-06
4.81164e-07
7.41841e-06
5.81881e-07
7.34061e-06
6.36528e-07
7.8465e-06
7.11185e-07
7.64144e-06
7.3592e-07
9.55686e-06
8.80122e-06
1.1209e-07
7.27819e-06
2.12146e-07
7.31391e-06
3.13156e-07
7.25959e-06
4.14415e-07
7.29288e-06
5.09342e-07
7.32355e-06
6.15955e-07
7.23398e-06
6.78213e-07
7.78369e-06
7.60574e-07
7.55596e-06
8.07294e-07
9.5068e-06
8.68719e-06
1.17955e-07
7.17238e-06
2.2368e-07
7.20815e-06
3.30134e-07
7.15311e-06
4.3675e-07
7.18622e-06
5.37232e-07
7.22304e-06
6.49537e-07
7.12154e-06
7.19951e-07
7.7126e-06
8.10491e-07
7.46176e-06
8.76904e-07
9.43191e-06
8.55407e-06
1.23696e-07
7.06104e-06
2.35003e-07
7.09672e-06
3.46872e-07
7.04113e-06
4.58751e-07
7.0742e-06
5.64856e-07
7.11682e-06
6.82668e-07
7.0035e-06
7.61693e-07
7.63279e-06
8.60646e-07
7.3587e-06
9.44632e-07
9.3354e-06
8.40641e-06
1.29316e-07
6.94419e-06
2.46128e-07
6.97972e-06
3.63376e-07
6.9237e-06
4.80448e-07
6.95691e-06
5.9223e-07
7.00485e-06
7.15355e-07
6.88006e-06
8.03319e-07
7.54395e-06
9.10959e-07
7.24664e-06
1.01056e-06
9.22048e-06
8.24798e-06
1.34822e-07
6.82187e-06
2.57066e-07
6.85722e-06
3.79659e-07
6.80087e-06
5.01869e-07
6.83441e-06
6.19374e-07
6.88709e-06
7.47618e-07
6.75143e-06
8.44719e-07
7.44589e-06
9.61321e-07
7.12541e-06
1.07481e-06
9.09019e-06
8.08184e-06
1.40224e-07
6.69415e-06
2.67833e-07
6.7293e-06
3.95733e-07
6.67269e-06
5.23045e-07
6.70676e-06
6.46304e-07
6.76354e-06
7.7948e-07
6.61781e-06
8.85832e-07
7.33852e-06
1.01162e-06
6.9951e-06
1.13749e-06
8.94982e-06
7.91043e-06
1.45533e-07
6.56106e-06
2.78449e-07
6.59606e-06
4.11617e-07
6.53923e-06
5.44012e-07
6.57399e-06
6.73038e-07
6.63419e-06
8.10977e-07
6.47938e-06
9.26613e-07
7.22184e-06
1.06168e-06
6.85562e-06
1.19859e-06
8.78799e-06
7.73533e-06
1.50738e-07
6.42269e-06
2.88887e-07
6.45759e-06
4.27261e-07
6.40057e-06
5.6471e-07
6.43615e-06
6.99483e-07
6.4991e-06
8.42085e-07
6.33627e-06
9.67016e-07
7.09584e-06
1.11153e-06
6.70678e-06
1.25852e-06
8.61975e-06
7.5576e-06
1.55879e-07
2.99218e-07
4.42758e-07
5.85263e-07
7.25764e-07
8.72823e-07
1.00692e-06
1.16099e-06
1.31733e-06
)
;

boundaryField
{
    fuel
    {
        type            calculated;
        value           nonuniform List<scalar> 
11
(
-8.18322e-06
-8.18322e-06
-8.18322e-06
-8.18322e-06
-8.18321e-06
-8.18321e-06
-8.18321e-06
-8.1832e-06
-8.1832e-06
-8.18319e-06
-8.18317e-06
)
;
    }
    wall
    {
        type            calculated;
        value           nonuniform 0();
    }
    outlet
    {
        type            calculated;
        value           nonuniform List<scalar> 
24
(
3.06433e-07
2.44629e-07
7.88388e-08
-7.06088e-08
-1.83671e-07
-2.11552e-07
-1.15775e-07
3.93656e-08
1.35367e-07
2.32512e-07
3.31847e-07
4.31345e-07
5.29577e-07
6.25652e-07
7.18987e-07
8.09235e-07
8.96166e-07
9.79745e-07
1.06005e-06
1.13723e-06
1.21152e-06
1.28314e-06
1.35242e-06
1.41969e-06
)
;
    }
    frontAndBack
    {
        type            empty;
        value           nonuniform 0();
    }
    procBoundary3to0
    {
        type            processor;
        value           nonuniform List<scalar> 10(6.279e-06 6.31386e-06 6.25669e-06 6.29317e-06 6.3582e-06 6.18859e-06 6.96067e-06 6.54854e-06 8.44371e-06 7.37588e-06);
    }
    procBoundary3to2
    {
        type            processor;
        value           nonuniform List<scalar> 
25
(
9.75678e-09
1.50781e-08
2.06185e-08
2.54252e-08
3.09254e-08
3.63586e-08
4.17606e-08
4.71288e-08
5.24742e-08
5.77974e-08
7.81015e-06
-8.64138e-09
-9.41074e-09
-1.01233e-08
-1.07656e-08
-1.13267e-08
-1.17983e-08
-1.21758e-08
-1.24586e-08
-1.26497e-08
-1.2756e-08
-1.27876e-08
-1.27568e-08
-1.26754e-08
-1.25601e-08
)
;
    }
}


// ************************************************************************* //
