/*--------------------------------*- C++ -*----------------------------------*\
| =========                 |                                                 |
| \\      /  F ield         | OpenFOAM: The Open Source CFD Toolbox           |
|  \\    /   O peration     | Version:  dev                                   |
|   \\  /    A nd           | Web:      www.OpenFOAM.org                      |
|    \\/     M anipulation  |                                                 |
\*---------------------------------------------------------------------------*/
FoamFile
{
    version     2.0;
    format      ascii;
    class       volVectorField;
    location    "0.055";
    object      U;
}
// * * * * * * * * * * * * * * * * * * * * * * * * * * * * * * * * * * * * * //

dimensions      [0 1 -1 0 0 0 0];

internalField   nonuniform List<vector> 
25
(
(3.06671e-13 -3.06671e-13 -0.212682)
(3.00913e-13 -3.00913e-13 -0.224534)
(2.94893e-13 -2.94893e-13 -0.23718)
(2.88659e-13 -2.88659e-13 -0.249884)
(2.82165e-13 -2.82165e-13 -0.263992)
(2.75466e-13 -2.75466e-13 -0.279757)
(2.68367e-13 -2.68367e-13 -0.294382)
(2.60891e-13 -2.60891e-13 -0.309998)
(2.53007e-13 -2.53007e-13 -0.325904)
(2.4469e-13 -2.4469e-13 -0.342629)
(2.35925e-13 -2.35925e-13 -0.360078)
(2.26781e-13 -2.26781e-13 -0.378434)
(2.17007e-13 -2.17007e-13 -0.397936)
(2.06772e-13 -2.06772e-13 -0.418274)
(1.95877e-13 -1.95877e-13 -0.439778)
(1.83866e-13 -1.83866e-13 -0.462907)
(1.71095e-13 -1.71095e-13 -0.487566)
(1.57279e-13 -1.57279e-13 -0.513853)
(1.42786e-13 -1.42786e-13 -0.542649)
(1.27087e-13 -1.27087e-13 -0.574366)
(1.09478e-13 -1.09478e-13 -0.60884)
(8.99619e-14 -8.99619e-14 -0.647582)
(6.82279e-14 -6.82279e-14 -0.698957)
(4.30055e-14 -4.30055e-14 -0.767744)
(2.16319e-14 -2.16319e-14 -0.814517)
)
;

boundaryField
{
    wall
    {
        type            zeroGradient;
    }
    fuel
    {
        type            fixedValue;
        value           nonuniform 0();
    }
    outlet
    {
        type            pressureInletOutletVelocity;
        value           uniform (0 0 -0.814517);
    }
    procBoundary3to2
    {
        type            processor;
        value           uniform (3.12167e-13 -3.12167e-13 -0.20128);
    }
}


// ************************************************************************* //
