/*--------------------------------*- C++ -*----------------------------------*\
| =========                 |                                                 |
| \\      /  F ield         | OpenFOAM: The Open Source CFD Toolbox           |
|  \\    /   O peration     | Version:  dev                                   |
|   \\  /    A nd           | Web:      www.OpenFOAM.org                      |
|    \\/     M anipulation  |                                                 |
\*---------------------------------------------------------------------------*/
FoamFile
{
    version     2.0;
    format      ascii;
    class       volScalarField;
    location    "0.085";
    object      A1C2H3*;
}
// * * * * * * * * * * * * * * * * * * * * * * * * * * * * * * * * * * * * * //

dimensions      [0 0 0 0 0 0 0];

internalField   nonuniform List<scalar> 
250
(
2.28194e-10
5.20514e-09
3.52176e-09
3.34758e-09
3.3232e-09
3.3244e-09
3.32473e-09
3.32093e-09
3.32029e-09
2.76315e-10
2.69984e-09
1.74978e-09
1.64467e-09
1.63132e-09
1.63088e-09
1.63036e-09
1.62972e-09
1.62972e-09
1.72327e-10
1.52253e-09
8.82396e-10
8.15673e-10
8.07092e-10
8.06575e-10
8.05855e-10
8.05756e-10
8.06114e-10
9.27497e-11
9.5495e-10
4.65621e-10
4.20946e-10
4.15282e-10
4.1491e-10
4.13809e-10
4.13806e-10
4.14685e-10
5.29965e-11
6.47831e-10
2.59377e-10
2.28834e-10
2.25408e-10
2.25213e-10
2.2307e-10
2.23062e-10
2.25104e-10
3.5705e-11
4.80231e-10
1.5821e-10
1.335e-10
1.29617e-10
1.29349e-10
1.30821e-10
1.30761e-10
1.29254e-10
3.29461e-11
3.80594e-10
1.06383e-10
8.6468e-11
8.35982e-11
8.34668e-11
8.41959e-11
8.41149e-11
8.34183e-11
5.11583e-11
3.14481e-10
7.74446e-11
6.0864e-11
5.78242e-11
5.75147e-11
5.79627e-11
5.78095e-11
5.74656e-11
1.26394e-10
2.66298e-10
5.82701e-11
4.52265e-11
4.31432e-11
4.28956e-11
4.31494e-11
4.30153e-11
4.28694e-11
3.38582e-10
2.28842e-10
4.7357e-11
3.4749e-11
3.27444e-11
3.25378e-11
3.26711e-11
3.25661e-11
3.25296e-11
7.40059e-10
1.98419e-10
3.91484e-11
2.78328e-11
2.66469e-11
2.64715e-11
2.65426e-11
2.6459e-11
2.64694e-11
2.65038e-11
1.32965e-09
1.72901e-10
3.30273e-11
2.36025e-11
2.21368e-11
2.19447e-11
2.19808e-11
2.19082e-11
2.19362e-11
2.17938e-11
1.73063e-09
1.50649e-10
2.89311e-11
2.01423e-11
1.87548e-11
1.85763e-11
1.85866e-11
1.85286e-11
1.85639e-11
1.86803e-11
1.68399e-09
1.30708e-10
2.54447e-11
1.7534e-11
1.6238e-11
1.60698e-11
1.60644e-11
1.60166e-11
1.60515e-11
1.60544e-11
1.35729e-09
1.13029e-10
2.28296e-11
1.55049e-11
1.42999e-11
1.414e-11
1.41251e-11
1.40841e-11
1.41171e-11
1.42712e-11
9.81143e-10
9.54965e-11
2.04574e-11
1.38802e-11
1.27615e-11
1.26091e-11
1.25884e-11
1.2552e-11
1.25817e-11
1.26992e-11
6.67661e-10
7.96871e-11
1.83645e-11
1.2547e-11
1.15093e-11
1.13639e-11
1.134e-11
1.13067e-11
1.13329e-11
1.14161e-11
4.40729e-10
6.78745e-11
1.65647e-11
1.14311e-11
1.04701e-11
1.03313e-11
1.03058e-11
1.0275e-11
1.02977e-11
1.03535e-11
2.88157e-10
5.77559e-11
1.50013e-11
1.04832e-11
9.59558e-12
9.46339e-12
9.43723e-12
9.40862e-12
9.4283e-12
9.46275e-12
1.898e-10
4.91306e-11
1.36377e-11
9.67004e-12
8.85343e-12
8.7278e-12
8.7018e-12
8.67543e-12
8.69221e-12
8.71092e-12
1.27873e-10
4.17955e-11
1.2449e-11
8.96862e-12
8.22149e-12
8.10234e-12
8.07706e-12
8.05318e-12
8.06718e-12
8.07481e-12
8.92601e-11
3.55954e-11
1.14179e-11
8.36252e-12
7.68413e-12
7.57131e-12
7.54718e-12
7.52617e-12
7.53739e-12
7.53768e-12
6.50885e-11
3.02928e-11
1.0532e-11
7.9083e-12
7.28488e-12
7.17818e-12
7.15526e-12
7.13678e-12
7.14586e-12
7.14202e-12
4.96746e-11
2.59412e-11
9.77812e-12
7.52483e-12
6.9347e-12
6.83348e-12
6.81183e-12
6.79527e-12
6.80273e-12
6.79635e-12
3.9515e-11
2.23487e-11
9.14386e-12
7.18891e-12
6.68115e-12
6.5856e-12
6.56547e-12
6.55182e-12
6.55709e-12
6.55015e-12
3.2519e-11
1.94381e-11
8.68138e-12
6.95721e-12
6.49741e-12
6.40719e-12
6.38866e-12
6.37814e-12
6.3811e-12
6.37481e-12
)
;

boundaryField
{
    fuel
    {
        type            fixedValue;
        value           uniform 0;
    }
    wall
    {
        type            zeroGradient;
    }
    outlet
    {
        type            zeroGradient;
    }
    frontAndBack
    {
        type            empty;
    }
    procBoundary2to0
    {
        type            processor;
        value           nonuniform List<scalar> 
12
(
6.55166e-12
2.75323e-11
1.71308e-11
8.32136e-12
6.79552e-12
6.38103e-12
6.29584e-12
6.27891e-12
6.2717e-12
6.27225e-12
6.37804e-12
6.26755e-12
)
;
    }
    procBoundary2to3
    {
        type            processor;
        value           nonuniform List<scalar> 
25
(
3.32818e-09
1.63132e-09
8.06311e-10
4.14194e-10
2.23312e-10
1.3051e-10
8.37008e-11
5.71256e-11
4.21679e-11
3.27403e-11
3.27403e-11
2.65794e-11
2.19968e-11
1.85875e-11
1.60546e-11
1.41091e-11
1.25682e-11
1.13171e-11
1.02815e-11
9.41267e-12
8.6778e-12
8.05445e-12
7.52673e-12
7.13701e-12
6.79525e-12
)
;
    }
}


// ************************************************************************* //
