/*--------------------------------*- C++ -*----------------------------------*\
| =========                 |                                                 |
| \\      /  F ield         | OpenFOAM: The Open Source CFD Toolbox           |
|  \\    /   O peration     | Version:  dev                                   |
|   \\  /    A nd           | Web:      www.OpenFOAM.org                      |
|    \\/     M anipulation  |                                                 |
\*---------------------------------------------------------------------------*/
FoamFile
{
    version     2.0;
    format      ascii;
    class       volScalarField;
    location    "0.085";
    object      A1C2H*;
}
// * * * * * * * * * * * * * * * * * * * * * * * * * * * * * * * * * * * * * //

dimensions      [0 0 0 0 0 0 0];

internalField   nonuniform List<scalar> 
250
(
6.84164e-09
4.3192e-07
4.47434e-07
4.43397e-07
4.44168e-07
4.43483e-07
4.43688e-07
4.43516e-07
4.4336e-07
2.77334e-08
6.36782e-07
6.15277e-07
5.94734e-07
5.95351e-07
5.93403e-07
5.93993e-07
5.93538e-07
5.93198e-07
6.38207e-07
4.48846e-07
4.18284e-07
3.90223e-07
3.91672e-07
3.88724e-07
3.89708e-07
3.89014e-07
3.88795e-07
6.11163e-07
2.81317e-07
2.54876e-07
2.27373e-07
2.29381e-07
2.26212e-07
2.27309e-07
2.26554e-07
2.26473e-07
3.83655e-07
1.80774e-07
1.59571e-07
1.35396e-07
1.37426e-07
1.34526e-07
1.35522e-07
1.34851e-07
1.34855e-07
2.52803e-07
1.24217e-07
1.04317e-07
8.54022e-08
8.71956e-08
8.47293e-08
8.55459e-08
8.50261e-08
8.51393e-08
1.95251e-07
8.94034e-08
7.32168e-08
5.72143e-08
5.87031e-08
5.66146e-08
5.72762e-08
5.68699e-08
5.67996e-08
1.76214e-07
6.87622e-08
5.45456e-08
4.05113e-08
4.17371e-08
4.00378e-08
4.05464e-08
4.03282e-08
4.03887e-08
1.79261e-07
5.65455e-08
4.11527e-08
3.02233e-08
3.11826e-08
2.94343e-08
2.98009e-08
2.9726e-08
2.97143e-08
1.95101e-07
4.82355e-08
3.19158e-08
2.29226e-08
2.33819e-08
2.28199e-08
2.31161e-08
2.23248e-08
2.24326e-08
2.13931e-07
4.19704e-08
2.5569e-08
1.808e-08
1.8821e-08
1.79467e-08
1.823e-08
1.7876e-08
1.74898e-08
1.7441e-08
2.25996e-07
3.70435e-08
2.10128e-08
1.4719e-08
1.53468e-08
1.45092e-08
1.47035e-08
1.4641e-08
1.44182e-08
1.40661e-08
2.25659e-07
3.29946e-08
1.75169e-08
1.22791e-08
1.27254e-08
1.20449e-08
1.21668e-08
1.21421e-08
1.21347e-08
1.19013e-08
2.12942e-07
2.96338e-08
1.53373e-08
1.0623e-08
1.07773e-08
1.02017e-08
1.02569e-08
1.02767e-08
1.0277e-08
1.01577e-08
1.91604e-07
2.66979e-08
1.34233e-08
9.28192e-09
9.27805e-09
8.93922e-09
8.95429e-09
8.84473e-09
8.84463e-09
8.74801e-09
1.66333e-07
2.39929e-08
1.17844e-08
8.15939e-09
8.07678e-09
7.82549e-09
7.93146e-09
7.71834e-09
7.71487e-09
7.63216e-09
1.40905e-07
2.15969e-08
1.04363e-08
7.24264e-09
7.23708e-09
6.91985e-09
6.99766e-09
6.81528e-09
6.80326e-09
6.72999e-09
1.17607e-07
1.93978e-08
9.50384e-09
6.55021e-09
6.43286e-09
6.16844e-09
6.23247e-09
6.15131e-09
6.05728e-09
5.98683e-09
9.74543e-08
1.738e-08
8.66235e-09
5.95791e-09
5.85204e-09
5.60742e-09
5.59984e-09
5.52338e-09
5.43794e-09
5.36316e-09
8.06383e-08
1.55585e-08
7.85602e-09
5.4316e-09
5.33898e-09
5.11556e-09
5.12439e-09
5.0493e-09
4.97311e-09
4.89355e-09
6.6897e-08
1.39485e-08
7.12538e-09
5.0225e-09
4.87187e-09
4.67998e-09
4.67968e-09
4.6187e-09
4.58271e-09
4.47295e-09
5.59451e-08
1.25307e-08
6.48778e-09
4.68061e-09
4.52828e-09
4.35016e-09
4.3134e-09
4.23957e-09
4.22861e-09
4.13239e-09
4.6504e-08
1.12893e-08
6.03872e-09
4.39426e-09
4.20736e-09
4.04967e-09
4.01767e-09
3.9483e-09
3.94278e-09
3.84242e-09
3.99809e-08
1.02003e-08
5.57726e-09
4.15365e-09
3.96057e-09
3.81464e-09
3.76551e-09
3.69936e-09
3.69703e-09
3.59462e-09
3.46561e-08
9.26236e-09
5.20122e-09
3.94926e-09
3.75168e-09
3.61555e-09
3.55226e-09
3.48571e-09
3.48796e-09
3.38169e-09
2.94963e-08
8.40236e-09
4.89383e-09
3.77153e-09
3.57181e-09
3.44363e-09
3.36918e-09
3.30045e-09
3.3079e-09
3.19679e-09
)
;

boundaryField
{
    fuel
    {
        type            fixedValue;
        value           uniform 0;
    }
    wall
    {
        type            zeroGradient;
    }
    outlet
    {
        type            zeroGradient;
    }
    frontAndBack
    {
        type            empty;
    }
    procBoundary2to0
    {
        type            processor;
        value           nonuniform List<scalar> 
12
(
3.72044e-09
2.54258e-08
7.61438e-09
4.61157e-09
3.60927e-09
3.41181e-09
3.28923e-09
3.20695e-09
3.13577e-09
3.14821e-09
3.54048e-09
3.03298e-09
)
;
    }
    procBoundary2to3
    {
        type            processor;
        value           nonuniform List<scalar> 
25
(
4.43182e-07
5.92796e-07
3.88342e-07
2.26049e-07
1.34501e-07
8.48868e-08
5.6513e-08
4.02071e-08
2.94531e-08
2.22643e-08
2.22643e-08
1.75429e-08
1.45116e-08
1.21271e-08
1.02929e-08
8.87039e-09
7.73021e-09
6.90642e-09
6.23086e-09
5.64143e-09
5.17342e-09
4.78375e-09
4.43798e-09
4.15324e-09
3.92244e-09
)
;
    }
}


// ************************************************************************* //
