/*--------------------------------*- C++ -*----------------------------------*\
| =========                 |                                                 |
| \\      /  F ield         | OpenFOAM: The Open Source CFD Toolbox           |
|  \\    /   O peration     | Version:  dev                                   |
|   \\  /    A nd           | Web:      www.OpenFOAM.org                      |
|    \\/     M anipulation  |                                                 |
\*---------------------------------------------------------------------------*/
FoamFile
{
    version     2.0;
    format      ascii;
    class       volScalarField;
    location    "0.085";
    object      A2-1;
}
// * * * * * * * * * * * * * * * * * * * * * * * * * * * * * * * * * * * * * //

dimensions      [0 0 0 0 0 0 0];

internalField   nonuniform List<scalar> 
250
(
5.54687e-10
6.43263e-08
4.70577e-08
4.48527e-08
4.45817e-08
4.45586e-08
4.45379e-08
4.45495e-08
4.45468e-08
4.54962e-10
4.50473e-08
2.78617e-08
2.59483e-08
2.57116e-08
2.56914e-08
2.56753e-08
2.56813e-08
2.56822e-08
2.52668e-10
2.7706e-08
1.41197e-08
1.27828e-08
1.26171e-08
1.2604e-08
1.25899e-08
1.25923e-08
1.25979e-08
1.46717e-10
1.7881e-08
7.24362e-09
6.32916e-09
6.21869e-09
6.21031e-09
6.19217e-09
6.19328e-09
6.20653e-09
9.43523e-11
1.27075e-08
4.00896e-09
3.35996e-09
3.28965e-09
3.28474e-09
3.25165e-09
3.25202e-09
3.28257e-09
6.80948e-11
9.87441e-09
2.44819e-09
1.9241e-09
1.85179e-09
1.84628e-09
1.86738e-09
1.8668e-09
1.84441e-09
5.77367e-11
8.17916e-09
1.64927e-09
1.22329e-09
1.16943e-09
1.16628e-09
1.17648e-09
1.1755e-09
1.16523e-09
6.74914e-11
7.04362e-09
1.20363e-09
8.45601e-10
7.91834e-10
7.8636e-10
7.925e-10
7.90427e-10
7.8539e-10
1.1832e-10
6.1919e-09
9.09495e-10
6.17742e-10
5.79686e-10
5.75302e-10
5.78677e-10
5.76859e-10
5.74727e-10
2.07171e-10
5.49234e-09
7.42447e-10
4.66913e-10
4.31507e-10
4.27876e-10
4.29576e-10
4.28159e-10
4.27611e-10
2.72958e-10
4.88145e-09
6.16348e-10
3.68308e-10
3.4558e-10
3.42506e-10
3.43362e-10
3.42243e-10
3.42362e-10
3.42853e-10
3.94493e-10
4.33036e-09
5.21293e-10
3.08448e-10
2.82651e-10
2.79452e-10
2.79848e-10
2.78881e-10
2.79248e-10
2.77299e-10
5.9582e-10
3.82708e-09
4.5665e-10
2.5984e-10
2.35926e-10
2.33007e-10
2.33072e-10
2.32308e-10
2.32773e-10
2.34399e-10
8.27817e-10
3.36717e-09
4.00534e-10
2.23491e-10
2.01537e-10
1.98839e-10
1.98706e-10
1.98086e-10
1.98544e-10
1.98628e-10
1.05488e-09
2.95053e-09
3.5754e-10
1.95483e-10
1.75395e-10
1.72879e-10
1.72631e-10
1.72108e-10
1.72535e-10
1.74639e-10
1.25943e-09
2.51837e-09
3.17695e-10
1.73307e-10
1.54947e-10
1.5259e-10
1.52276e-10
1.51819e-10
1.52199e-10
1.53805e-10
1.42346e-09
2.10871e-09
2.8195e-10
1.55334e-10
1.38564e-10
1.3635e-10
1.36001e-10
1.35591e-10
1.3592e-10
1.37066e-10
1.5279e-09
1.79056e-09
2.50963e-10
1.4049e-10
1.25186e-10
1.23102e-10
1.22739e-10
1.22364e-10
1.22646e-10
1.23425e-10
1.56179e-09
1.50779e-09
2.23953e-10
1.28053e-10
1.14107e-10
1.12146e-10
1.1178e-10
1.11437e-10
1.11676e-10
1.12173e-10
1.52925e-09
1.25976e-09
2.00422e-10
1.17532e-10
1.04855e-10
1.03009e-10
1.0265e-10
1.02339e-10
1.02537e-10
1.02828e-10
1.44579e-09
1.045e-09
1.80028e-10
1.08591e-10
9.71102e-11
9.53711e-11
9.50251e-11
9.47486e-11
9.4909e-11
9.50543e-11
1.33045e-09
8.62203e-10
1.62516e-10
1.00999e-10
9.06583e-11
8.90191e-11
8.86909e-11
8.84547e-11
8.85761e-11
8.86268e-11
1.19942e-09
7.06383e-10
1.47692e-10
9.54474e-11
8.60108e-11
8.44609e-11
8.41507e-11
8.39519e-11
8.40414e-11
8.40414e-11
1.06377e-09
5.80063e-10
1.35365e-10
9.09471e-11
8.21469e-11
8.06757e-11
8.03847e-11
8.02215e-11
8.02811e-11
8.02556e-11
9.30376e-10
4.77819e-10
1.25361e-10
8.72998e-11
7.96516e-11
7.82551e-11
7.79868e-11
7.78748e-11
7.78945e-11
7.78738e-11
8.03897e-10
3.97115e-10
1.18488e-10
8.52057e-11
7.83233e-11
7.69933e-11
7.67497e-11
7.67003e-11
7.66715e-11
7.668e-11
)
;

boundaryField
{
    fuel
    {
        type            fixedValue;
        value           uniform 0;
    }
    wall
    {
        type            zeroGradient;
    }
    outlet
    {
        type            zeroGradient;
    }
    frontAndBack
    {
        type            empty;
    }
    procBoundary2to0
    {
        type            processor;
        value           nonuniform List<scalar> 
12
(
7.78858e-11
6.88752e-10
3.35198e-10
1.13758e-10
8.4421e-11
7.82808e-11
7.7009e-11
7.6792e-11
7.68195e-11
7.67305e-11
7.67134e-11
7.67928e-11
)
;
    }
    procBoundary2to3
    {
        type            processor;
        value           nonuniform List<scalar> 
25
(
4.45388e-08
2.56796e-08
1.2595e-08
6.19782e-09
3.25549e-09
1.86307e-09
1.16945e-09
7.80531e-10
5.64709e-10
4.30556e-10
4.30556e-10
3.43878e-10
2.80086e-10
2.33111e-10
1.98608e-10
1.72454e-10
1.52048e-10
1.35743e-10
1.22464e-10
1.11504e-10
1.02382e-10
9.47772e-11
8.84735e-11
8.39664e-11
8.02334e-11
)
;
    }
}


// ************************************************************************* //
