/*--------------------------------*- C++ -*----------------------------------*\
| =========                 |                                                 |
| \\      /  F ield         | OpenFOAM: The Open Source CFD Toolbox           |
|  \\    /   O peration     | Version:  dev                                   |
|   \\  /    A nd           | Web:      www.OpenFOAM.org                      |
|    \\/     M anipulation  |                                                 |
\*---------------------------------------------------------------------------*/
FoamFile
{
    version     2.0;
    format      ascii;
    class       volScalarField;
    location    "0.085";
    object      A2C2HB*;
}
// * * * * * * * * * * * * * * * * * * * * * * * * * * * * * * * * * * * * * //

dimensions      [0 0 0 0 0 0 0];

internalField   nonuniform List<scalar> 
1997
(
3.4725e-12
3.48414e-12
3.48744e-12
3.4898e-12
3.48802e-12
3.48736e-12
3.4851e-12
3.48373e-12
3.48221e-12
3.48141e-12
3.48053e-12
3.48016e-12
3.47965e-12
3.47951e-12
3.47922e-12
3.4792e-12
3.47902e-12
3.47904e-12
3.38506e-12
3.39583e-12
3.39861e-12
3.40071e-12
3.39895e-12
3.39819e-12
3.39603e-12
3.39471e-12
3.39327e-12
3.39249e-12
3.39166e-12
3.39131e-12
3.39083e-12
3.39069e-12
3.39042e-12
3.39039e-12
3.39023e-12
3.39025e-12
3.39015e-12
3.39018e-12
3.39012e-12
3.39014e-12
3.39011e-12
3.39012e-12
3.39011e-12
3.39011e-12
3.39012e-12
3.39011e-12
3.30204e-12
3.312e-12
3.31431e-12
3.31618e-12
3.31446e-12
3.31362e-12
3.31157e-12
3.31029e-12
3.30893e-12
3.30819e-12
3.3074e-12
3.30706e-12
3.30661e-12
3.30648e-12
3.30622e-12
3.3062e-12
3.30604e-12
3.30606e-12
3.30597e-12
3.306e-12
3.30594e-12
3.30596e-12
3.30593e-12
3.30594e-12
3.30593e-12
3.30593e-12
3.30594e-12
3.30593e-12
3.30596e-12
3.30594e-12
3.306e-12
3.30597e-12
3.30606e-12
3.30605e-12
3.3062e-12
3.30622e-12
3.30648e-12
3.30661e-12
3.30706e-12
3.3074e-12
3.22328e-12
3.23247e-12
3.23439e-12
3.23605e-12
3.23437e-12
3.23348e-12
3.23154e-12
3.23031e-12
3.22903e-12
3.22832e-12
3.22758e-12
3.22725e-12
3.22683e-12
3.2267e-12
3.22646e-12
3.22644e-12
3.22629e-12
3.22631e-12
3.22623e-12
3.22625e-12
3.2262e-12
3.22622e-12
3.22619e-12
3.2262e-12
3.22619e-12
3.22619e-12
3.2262e-12
3.22619e-12
3.22622e-12
3.2262e-12
3.22625e-12
3.22623e-12
3.22631e-12
3.2263e-12
3.22644e-12
3.22646e-12
3.22671e-12
3.22683e-12
3.22725e-12
3.22758e-12
3.22832e-12
3.22903e-12
3.23031e-12
3.23154e-12
3.23348e-12
3.23437e-12
3.23605e-12
3.23439e-12
3.23247e-12
3.22328e-12
3.14863e-12
3.15711e-12
3.15868e-12
3.16016e-12
3.15854e-12
3.15761e-12
3.15578e-12
3.1546e-12
3.1534e-12
3.15272e-12
3.15203e-12
3.15171e-12
3.15132e-12
3.1512e-12
3.15098e-12
3.15096e-12
3.15082e-12
3.15084e-12
3.15076e-12
3.15078e-12
3.15074e-12
3.15076e-12
3.15073e-12
3.15074e-12
3.15073e-12
3.15073e-12
3.15074e-12
3.15073e-12
3.15076e-12
3.15074e-12
3.15079e-12
3.15076e-12
3.15084e-12
3.15082e-12
3.15096e-12
3.15098e-12
3.15121e-12
3.15132e-12
3.15172e-12
3.15203e-12
3.15272e-12
3.1534e-12
3.1546e-12
3.15578e-12
3.15761e-12
3.15854e-12
3.16016e-12
3.15868e-12
3.15711e-12
3.14863e-12
3.07682e-12
3.08477e-12
3.08603e-12
3.08729e-12
3.08555e-12
3.08457e-12
3.08277e-12
3.08161e-12
3.08045e-12
3.07979e-12
3.07912e-12
3.07882e-12
3.07844e-12
3.07833e-12
3.07811e-12
3.07809e-12
3.07796e-12
3.07798e-12
3.0779e-12
3.07793e-12
3.07788e-12
3.0779e-12
3.07787e-12
3.07788e-12
3.07788e-12
3.07788e-12
3.07788e-12
3.07787e-12
3.0779e-12
3.07788e-12
3.07793e-12
3.07791e-12
3.07798e-12
3.07797e-12
3.07809e-12
3.07811e-12
3.07833e-12
3.07844e-12
3.07882e-12
3.07912e-12
3.07979e-12
3.08045e-12
3.08162e-12
3.08277e-12
3.08457e-12
3.08555e-12
3.08729e-12
3.08603e-12
3.08477e-12
3.07682e-12
3.00982e-12
3.01715e-12
3.01816e-12
3.01927e-12
3.01759e-12
3.0166e-12
3.0149e-12
3.01381e-12
3.01272e-12
3.01209e-12
3.01147e-12
3.01118e-12
3.01083e-12
3.01072e-12
3.01052e-12
3.0105e-12
3.01039e-12
3.0104e-12
3.01033e-12
3.01036e-12
3.01031e-12
3.01033e-12
3.01031e-12
3.01032e-12
3.01031e-12
3.01031e-12
3.01032e-12
3.01031e-12
3.01033e-12
3.01031e-12
3.01036e-12
3.01034e-12
3.0104e-12
3.01039e-12
3.01051e-12
3.01053e-12
3.01073e-12
3.01083e-12
3.01118e-12
3.01147e-12
3.01209e-12
3.01272e-12
3.01381e-12
3.0149e-12
3.0166e-12
3.01759e-12
3.01927e-12
3.01816e-12
3.01715e-12
3.00982e-12
2.94639e-12
2.95316e-12
2.95394e-12
2.95492e-12
2.95331e-12
2.95231e-12
2.95069e-12
2.94958e-12
2.9485e-12
2.94788e-12
2.94726e-12
2.94698e-12
2.94663e-12
2.94653e-12
2.94633e-12
2.94631e-12
2.94619e-12
2.94621e-12
2.94614e-12
2.94616e-12
2.94612e-12
2.94614e-12
2.94612e-12
2.94613e-12
2.94612e-12
2.94612e-12
2.94613e-12
2.94612e-12
2.94614e-12
2.94612e-12
2.94616e-12
2.94614e-12
2.94621e-12
2.9462e-12
2.94631e-12
2.94633e-12
2.94653e-12
2.94663e-12
2.94698e-12
2.94726e-12
2.94788e-12
2.9485e-12
2.94958e-12
2.95069e-12
2.95231e-12
2.95331e-12
2.95492e-12
2.95394e-12
2.95316e-12
2.94639e-12
2.88637e-12
2.89261e-12
2.8932e-12
2.89405e-12
2.89252e-12
2.89152e-12
2.88999e-12
2.88894e-12
2.88793e-12
2.88733e-12
2.88676e-12
2.88649e-12
2.88616e-12
2.88607e-12
2.88588e-12
2.88586e-12
2.88576e-12
2.88577e-12
2.88571e-12
2.88573e-12
2.88569e-12
2.88571e-12
2.88569e-12
2.8857e-12
2.88569e-12
2.88569e-12
2.8857e-12
2.88569e-12
2.88571e-12
2.88569e-12
2.88573e-12
2.88571e-12
2.88577e-12
2.88576e-12
2.88587e-12
2.88588e-12
2.88607e-12
2.88617e-12
2.88649e-12
2.88676e-12
2.88733e-12
2.88793e-12
2.88894e-12
2.89e-12
2.89152e-12
2.89252e-12
2.89405e-12
2.8932e-12
2.89261e-12
2.88637e-12
2.82871e-12
2.83458e-12
2.83497e-12
2.83568e-12
2.83409e-12
2.83307e-12
2.83158e-12
2.83054e-12
2.82956e-12
2.82898e-12
2.82843e-12
2.82817e-12
2.82786e-12
2.82776e-12
2.82759e-12
2.82757e-12
2.82747e-12
2.82748e-12
2.82743e-12
2.82744e-12
2.82741e-12
2.82742e-12
2.8274e-12
2.82741e-12
2.82741e-12
2.82741e-12
2.82741e-12
2.82741e-12
2.82742e-12
2.82741e-12
2.82745e-12
2.82743e-12
2.82749e-12
2.82747e-12
2.82757e-12
2.82759e-12
2.82777e-12
2.82786e-12
2.82817e-12
2.82843e-12
2.82899e-12
2.82957e-12
2.83054e-12
2.83158e-12
2.83307e-12
2.83409e-12
2.83568e-12
2.83497e-12
2.83458e-12
2.82871e-12
2.77314e-12
2.7785e-12
2.77876e-12
2.77935e-12
2.77783e-12
2.77682e-12
2.77541e-12
2.77442e-12
2.7735e-12
2.77295e-12
2.77243e-12
2.77218e-12
2.7719e-12
2.77181e-12
2.77164e-12
2.77163e-12
2.77154e-12
2.77155e-12
2.7715e-12
2.77151e-12
2.77148e-12
2.7715e-12
2.77148e-12
2.77149e-12
2.77148e-12
2.77148e-12
2.77149e-12
2.77148e-12
2.7715e-12
2.77148e-12
2.77151e-12
2.7715e-12
2.77155e-12
2.77154e-12
2.77163e-12
2.77165e-12
2.77181e-12
2.7719e-12
2.77219e-12
2.77243e-12
2.77295e-12
2.77351e-12
2.77442e-12
2.77541e-12
2.77682e-12
2.77783e-12
2.77935e-12
2.77877e-12
2.7785e-12
2.77314e-12
2.72176e-12
2.72669e-12
2.72679e-12
2.72726e-12
2.72578e-12
2.72476e-12
2.72342e-12
2.72247e-12
2.7216e-12
2.72107e-12
2.72058e-12
2.72034e-12
2.72007e-12
2.71999e-12
2.71984e-12
2.71982e-12
2.71974e-12
2.71975e-12
2.7197e-12
2.71972e-12
2.71969e-12
2.7197e-12
2.71969e-12
2.71969e-12
2.71969e-12
2.71969e-12
2.71969e-12
2.71969e-12
2.7197e-12
2.71969e-12
2.71972e-12
2.7197e-12
2.71975e-12
2.71974e-12
2.71983e-12
2.71984e-12
2.71999e-12
2.72008e-12
2.72035e-12
2.72058e-12
2.72108e-12
2.72161e-12
2.72247e-12
2.72342e-12
2.72477e-12
2.72578e-12
2.72726e-12
2.72679e-12
2.72669e-12
2.72176e-12
2.67271e-12
2.67723e-12
2.67716e-12
2.67751e-12
2.67605e-12
2.67503e-12
2.67373e-12
2.67281e-12
2.67199e-12
2.67148e-12
2.67101e-12
2.67078e-12
2.67053e-12
2.67045e-12
2.6703e-12
2.67029e-12
2.67021e-12
2.67022e-12
2.67018e-12
2.67019e-12
2.67017e-12
2.67018e-12
2.67016e-12
2.67017e-12
2.67017e-12
2.67017e-12
2.67017e-12
2.67016e-12
2.67018e-12
2.67017e-12
2.67019e-12
2.67018e-12
2.67022e-12
2.67021e-12
2.67029e-12
2.67031e-12
2.67045e-12
2.67053e-12
2.67079e-12
2.67101e-12
2.67148e-12
2.67199e-12
2.67281e-12
2.67374e-12
2.67503e-12
2.67605e-12
2.67751e-12
2.67716e-12
2.67723e-12
2.67271e-12
2.6257e-12
2.62983e-12
2.62958e-12
2.62979e-12
2.62833e-12
2.62728e-12
2.62604e-12
2.62513e-12
2.62434e-12
2.62385e-12
2.6234e-12
2.62318e-12
2.62294e-12
2.62286e-12
2.62272e-12
2.62271e-12
2.62263e-12
2.62265e-12
2.6226e-12
2.62262e-12
2.62259e-12
2.62261e-12
2.62259e-12
2.6226e-12
2.6226e-12
2.6226e-12
2.6226e-12
2.62259e-12
2.62261e-12
2.62259e-12
2.62262e-12
2.6226e-12
2.62265e-12
2.62264e-12
2.62271e-12
2.62273e-12
2.62286e-12
2.62294e-12
2.62318e-12
2.6234e-12
2.62385e-12
2.62435e-12
2.62513e-12
2.62604e-12
2.62728e-12
2.62833e-12
2.62979e-12
2.62958e-12
2.62983e-12
2.6257e-12
2.57952e-12
2.58322e-12
2.58266e-12
2.58265e-12
2.58111e-12
2.57999e-12
2.57874e-12
2.57783e-12
2.57705e-12
2.57656e-12
2.57612e-12
2.5759e-12
2.57566e-12
2.57558e-12
2.57545e-12
2.57544e-12
2.57536e-12
2.57537e-12
2.57533e-12
2.57535e-12
2.57532e-12
2.57533e-12
2.57532e-12
2.57533e-12
2.57532e-12
2.57532e-12
2.57533e-12
2.57532e-12
2.57533e-12
2.57532e-12
2.57535e-12
2.57533e-12
2.57537e-12
2.57536e-12
2.57544e-12
2.57545e-12
2.57558e-12
2.57566e-12
2.5759e-12
2.57612e-12
2.57656e-12
2.57706e-12
2.57783e-12
2.57875e-12
2.57999e-12
2.58111e-12
2.58265e-12
2.58266e-12
2.58322e-12
2.57952e-12
2.53413e-12
2.5374e-12
2.5366e-12
2.53639e-12
2.53481e-12
2.53365e-12
2.53241e-12
2.53149e-12
2.53074e-12
2.53024e-12
2.52982e-12
2.5296e-12
2.52937e-12
2.52929e-12
2.52917e-12
2.52915e-12
2.52908e-12
2.52909e-12
2.52905e-12
2.52906e-12
2.52904e-12
2.52905e-12
2.52904e-12
2.52905e-12
2.52904e-12
2.52904e-12
2.52905e-12
2.52904e-12
2.52905e-12
2.52904e-12
2.52907e-12
2.52905e-12
2.52909e-12
2.52908e-12
2.52915e-12
2.52917e-12
2.5293e-12
2.52937e-12
2.5296e-12
2.52982e-12
2.53024e-12
2.53074e-12
2.53149e-12
2.53241e-12
2.53365e-12
2.53482e-12
2.53639e-12
2.5366e-12
2.5374e-12
2.53413e-12
2.49078e-12
2.49365e-12
2.49253e-12
2.49209e-12
2.49043e-12
2.48919e-12
2.48794e-12
2.487e-12
2.48626e-12
2.48576e-12
2.48534e-12
2.48512e-12
2.4849e-12
2.48482e-12
2.48469e-12
2.48468e-12
2.48461e-12
2.48462e-12
2.48458e-12
2.48459e-12
2.48457e-12
2.48458e-12
2.48457e-12
2.48458e-12
2.48457e-12
2.48457e-12
2.48458e-12
2.48457e-12
2.48458e-12
2.48457e-12
2.48459e-12
2.48458e-12
2.48462e-12
2.48461e-12
2.48468e-12
2.4847e-12
2.48482e-12
2.4849e-12
2.48512e-12
2.48534e-12
2.48576e-12
2.48626e-12
2.487e-12
2.48794e-12
2.48919e-12
2.49043e-12
2.49209e-12
2.49253e-12
2.49365e-12
2.49079e-12
2.44713e-12
2.44966e-12
2.44816e-12
2.44741e-12
2.44561e-12
2.44424e-12
2.44292e-12
2.44193e-12
2.44117e-12
2.44065e-12
2.44022e-12
2.43999e-12
2.43976e-12
2.43968e-12
2.43955e-12
2.43953e-12
2.43946e-12
2.43947e-12
2.43943e-12
2.43944e-12
2.43942e-12
2.43943e-12
2.43942e-12
2.43943e-12
2.43942e-12
2.43942e-12
2.43943e-12
2.43942e-12
2.43943e-12
2.43942e-12
2.43945e-12
2.43943e-12
2.43947e-12
2.43946e-12
2.43954e-12
2.43955e-12
2.43968e-12
2.43976e-12
2.43999e-12
2.44022e-12
2.44065e-12
2.44117e-12
2.44193e-12
2.44292e-12
2.44424e-12
2.44561e-12
2.44741e-12
2.44815e-12
2.44966e-12
2.44713e-12
2.40405e-12
2.40613e-12
2.40422e-12
2.40311e-12
2.40115e-12
2.39965e-12
2.39829e-12
2.39725e-12
2.39648e-12
2.39593e-12
2.3955e-12
2.39527e-12
2.39504e-12
2.39495e-12
2.39482e-12
2.3948e-12
2.39473e-12
2.39474e-12
2.3947e-12
2.39471e-12
2.39469e-12
2.3947e-12
2.39468e-12
2.39469e-12
2.39469e-12
2.39469e-12
2.39469e-12
2.39468e-12
2.3947e-12
2.39469e-12
2.39471e-12
2.3947e-12
2.39474e-12
2.39473e-12
2.3948e-12
2.39482e-12
2.39495e-12
2.39504e-12
2.39527e-12
2.3955e-12
2.39594e-12
2.39648e-12
2.39725e-12
2.39829e-12
2.39965e-12
2.40115e-12
2.40311e-12
2.40422e-12
2.40613e-12
2.40405e-12
2.3594e-12
2.36102e-12
2.35865e-12
2.357e-12
2.35481e-12
2.35313e-12
2.3517e-12
2.35058e-12
2.34977e-12
2.34919e-12
2.34874e-12
2.3485e-12
2.34826e-12
2.34816e-12
2.34803e-12
2.34801e-12
2.34793e-12
2.34794e-12
2.34789e-12
2.34791e-12
2.34788e-12
2.34789e-12
2.34788e-12
2.34789e-12
2.34788e-12
2.34788e-12
2.34789e-12
2.34788e-12
2.34789e-12
2.34788e-12
2.34791e-12
2.34789e-12
2.34794e-12
2.34793e-12
2.34801e-12
2.34803e-12
2.34817e-12
2.34826e-12
2.3485e-12
2.34875e-12
2.34919e-12
2.34977e-12
2.35058e-12
2.3517e-12
2.35313e-12
2.35481e-12
2.357e-12
2.35865e-12
2.36102e-12
2.3594e-12
2.31344e-12
2.31449e-12
2.31175e-12
2.31074e-12
2.3083e-12
2.30645e-12
2.30493e-12
2.30374e-12
2.3029e-12
2.30229e-12
2.30183e-12
2.30157e-12
2.30132e-12
2.30122e-12
2.30108e-12
2.30105e-12
2.30097e-12
2.30098e-12
2.30093e-12
2.30094e-12
2.30092e-12
2.30093e-12
2.30092e-12
2.30092e-12
2.30092e-12
2.30092e-12
2.30092e-12
2.30092e-12
2.30093e-12
2.30092e-12
2.30095e-12
2.30093e-12
2.30098e-12
2.30098e-12
2.30106e-12
2.30108e-12
2.30122e-12
2.30132e-12
2.30157e-12
2.30183e-12
2.30229e-12
2.3029e-12
2.30374e-12
2.30493e-12
2.30645e-12
2.3083e-12
2.31074e-12
2.31175e-12
2.31449e-12
2.31344e-12
2.26717e-12
2.26765e-12
2.26438e-12
2.26285e-12
2.26012e-12
2.25808e-12
2.25646e-12
2.25519e-12
2.2543e-12
2.25365e-12
2.25317e-12
2.2529e-12
2.25262e-12
2.25251e-12
2.25236e-12
2.25233e-12
2.25224e-12
2.25224e-12
2.25219e-12
2.2522e-12
2.25217e-12
2.25218e-12
2.25217e-12
2.25217e-12
2.25217e-12
2.25217e-12
2.25217e-12
2.25217e-12
2.25218e-12
2.25217e-12
2.2522e-12
2.25219e-12
2.25224e-12
2.25224e-12
2.25233e-12
2.25236e-12
2.25252e-12
2.25262e-12
2.2529e-12
2.25317e-12
2.25365e-12
2.2543e-12
2.25519e-12
2.25646e-12
2.25808e-12
2.26012e-12
2.26285e-12
2.26438e-12
2.26765e-12
2.26717e-12
2.21814e-12
2.21777e-12
2.21381e-12
2.2118e-12
2.20869e-12
2.20643e-12
2.20466e-12
2.2033e-12
2.20233e-12
2.20164e-12
2.20113e-12
2.20084e-12
2.20055e-12
2.20043e-12
2.20026e-12
2.20023e-12
2.20013e-12
2.20013e-12
2.20008e-12
2.20009e-12
2.20006e-12
2.20007e-12
2.20005e-12
2.20006e-12
2.20005e-12
2.20005e-12
2.20006e-12
2.20005e-12
2.20007e-12
2.20006e-12
2.20009e-12
2.20008e-12
2.20013e-12
2.20013e-12
2.20023e-12
2.20026e-12
2.20043e-12
2.20055e-12
2.20084e-12
2.20113e-12
2.20164e-12
2.20234e-12
2.20329e-12
2.20466e-12
2.20643e-12
2.20869e-12
2.2118e-12
2.21381e-12
2.21777e-12
2.21814e-12
2.16622e-12
2.16653e-12
2.16181e-12
2.15936e-12
2.15589e-12
2.15341e-12
2.15151e-12
2.15005e-12
2.14903e-12
2.14829e-12
2.14776e-12
2.14745e-12
2.14714e-12
2.14701e-12
2.14684e-12
2.1468e-12
2.1467e-12
2.14669e-12
2.14664e-12
2.14665e-12
2.14661e-12
2.14662e-12
2.14661e-12
2.14661e-12
2.14661e-12
2.14661e-12
2.14661e-12
2.14661e-12
2.14662e-12
2.14661e-12
2.14665e-12
2.14664e-12
2.1467e-12
2.1467e-12
2.1468e-12
2.14684e-12
2.14702e-12
2.14714e-12
2.14745e-12
2.14776e-12
2.14829e-12
2.14903e-12
2.15005e-12
2.15151e-12
2.15341e-12
2.15589e-12
2.15936e-12
2.1618e-12
2.16653e-12
2.16622e-12
2.11299e-12
2.11265e-12
2.10705e-12
2.10418e-12
2.10035e-12
2.09762e-12
2.0956e-12
2.09402e-12
2.09291e-12
2.09209e-12
2.0915e-12
2.09115e-12
2.09081e-12
2.09067e-12
2.09047e-12
2.09042e-12
2.09031e-12
2.09031e-12
2.09024e-12
2.09025e-12
2.09021e-12
2.09022e-12
2.0902e-12
2.09021e-12
2.0902e-12
2.0902e-12
2.09021e-12
2.0902e-12
2.09022e-12
2.09021e-12
2.09025e-12
2.09024e-12
2.09031e-12
2.09031e-12
2.09043e-12
2.09047e-12
2.09067e-12
2.09081e-12
2.09115e-12
2.0915e-12
2.09209e-12
2.09291e-12
2.09402e-12
2.0956e-12
2.09762e-12
2.10035e-12
2.10418e-12
2.10705e-12
2.11265e-12
2.11298e-12
2.05591e-12
2.05481e-12
2.04813e-12
2.04475e-12
2.0405e-12
2.03744e-12
2.03527e-12
2.03356e-12
2.03237e-12
2.0315e-12
2.03087e-12
2.03049e-12
2.03013e-12
2.02998e-12
2.02977e-12
2.02971e-12
2.02959e-12
2.02958e-12
2.02951e-12
2.02952e-12
2.02948e-12
2.02949e-12
2.02947e-12
2.02948e-12
2.02947e-12
2.02947e-12
2.02948e-12
2.02947e-12
2.02949e-12
2.02948e-12
2.02952e-12
2.02951e-12
2.02959e-12
2.02959e-12
2.02972e-12
2.02977e-12
2.02998e-12
2.03013e-12
2.03049e-12
2.03087e-12
2.0315e-12
2.03237e-12
2.03356e-12
2.03527e-12
2.03744e-12
2.04049e-12
2.04475e-12
2.04812e-12
2.0548e-12
2.0559e-12
1.99502e-12
1.99322e-12
1.98717e-12
1.98338e-12
1.97875e-12
1.97544e-12
1.97315e-12
1.97132e-12
1.97006e-12
1.96914e-12
1.96848e-12
1.96809e-12
1.96771e-12
1.96754e-12
1.96732e-12
1.96726e-12
1.96713e-12
1.96712e-12
1.96705e-12
1.96706e-12
1.96701e-12
1.96702e-12
1.967e-12
1.96701e-12
1.967e-12
1.967e-12
1.96701e-12
1.967e-12
1.96702e-12
1.96701e-12
1.96706e-12
1.96705e-12
1.96713e-12
1.96713e-12
1.96727e-12
1.96732e-12
1.96755e-12
1.96771e-12
1.96809e-12
1.96848e-12
1.96914e-12
1.97006e-12
1.97132e-12
1.97315e-12
1.97544e-12
1.97875e-12
1.98338e-12
1.98717e-12
1.99321e-12
1.99502e-12
1.9325e-12
1.92998e-12
1.92261e-12
1.91815e-12
1.91292e-12
1.90923e-12
1.90675e-12
1.90475e-12
1.90341e-12
1.90241e-12
1.9017e-12
1.90128e-12
1.90087e-12
1.90069e-12
1.90045e-12
1.90039e-12
1.90024e-12
1.90023e-12
1.90015e-12
1.90016e-12
1.90011e-12
1.90012e-12
1.9001e-12
1.9001e-12
1.9001e-12
1.9001e-12
1.9001e-12
1.9001e-12
1.90012e-12
1.90011e-12
1.90016e-12
1.90015e-12
1.90024e-12
1.90024e-12
1.90039e-12
1.90045e-12
1.90069e-12
1.90087e-12
1.90128e-12
1.9017e-12
1.90241e-12
1.90341e-12
1.90475e-12
1.90675e-12
1.90923e-12
1.91291e-12
1.91815e-12
1.92261e-12
1.92998e-12
1.93249e-12
1.86527e-12
1.86357e-12
1.85525e-12
1.85038e-12
1.84475e-12
1.84081e-12
1.83823e-12
1.83612e-12
1.83473e-12
1.83368e-12
1.83295e-12
1.8325e-12
1.83208e-12
1.83189e-12
1.83164e-12
1.83157e-12
1.83142e-12
1.83141e-12
1.83132e-12
1.83133e-12
1.83128e-12
1.83129e-12
1.83126e-12
1.83127e-12
1.83126e-12
1.83126e-12
1.83127e-12
1.83126e-12
1.83129e-12
1.83128e-12
1.83133e-12
1.83132e-12
1.83141e-12
1.83142e-12
1.83157e-12
1.83164e-12
1.83189e-12
1.83208e-12
1.8325e-12
1.83295e-12
1.83368e-12
1.83473e-12
1.83612e-12
1.83823e-12
1.8408e-12
1.84475e-12
1.85038e-12
1.85524e-12
1.86357e-12
1.86527e-12
1.7964e-12
1.79411e-12
1.78483e-12
1.77964e-12
1.77345e-12
1.76908e-12
1.76632e-12
1.76403e-12
1.76255e-12
1.76141e-12
1.76064e-12
1.76016e-12
1.75971e-12
1.7595e-12
1.75923e-12
1.75916e-12
1.75899e-12
1.75898e-12
1.75889e-12
1.75889e-12
1.75884e-12
1.75885e-12
1.75882e-12
1.75883e-12
1.75882e-12
1.75882e-12
1.75883e-12
1.75882e-12
1.75885e-12
1.75884e-12
1.75889e-12
1.75889e-12
1.75898e-12
1.759e-12
1.75916e-12
1.75923e-12
1.75951e-12
1.75971e-12
1.76016e-12
1.76064e-12
1.76141e-12
1.76255e-12
1.76403e-12
1.76632e-12
1.76907e-12
1.77345e-12
1.77963e-12
1.78482e-12
1.7941e-12
1.7964e-12
1.72325e-12
1.72029e-12
1.7116e-12
1.70613e-12
1.69949e-12
1.69488e-12
1.69207e-12
1.68968e-12
1.68818e-12
1.68699e-12
1.6862e-12
1.6857e-12
1.68524e-12
1.68503e-12
1.68474e-12
1.68467e-12
1.6845e-12
1.68449e-12
1.68438e-12
1.68439e-12
1.68434e-12
1.68435e-12
1.68432e-12
1.68433e-12
1.68432e-12
1.68432e-12
1.68433e-12
1.68432e-12
1.68435e-12
1.68433e-12
1.68439e-12
1.68439e-12
1.68449e-12
1.6845e-12
1.68467e-12
1.68475e-12
1.68503e-12
1.68524e-12
1.6857e-12
1.68619e-12
1.68698e-12
1.68818e-12
1.68968e-12
1.69207e-12
1.69487e-12
1.69948e-12
1.70613e-12
1.7116e-12
1.72029e-12
1.72324e-12
1.6488e-12
1.64535e-12
1.63555e-12
1.62956e-12
1.62219e-12
1.61722e-12
1.61431e-12
1.61176e-12
1.61021e-12
1.60895e-12
1.60813e-12
1.6076e-12
1.60712e-12
1.6069e-12
1.6066e-12
1.60653e-12
1.60634e-12
1.60633e-12
1.60622e-12
1.60623e-12
1.60617e-12
1.60618e-12
1.60615e-12
1.60616e-12
1.60615e-12
1.60615e-12
1.60616e-12
1.60615e-12
1.60618e-12
1.60617e-12
1.60623e-12
1.60622e-12
1.60633e-12
1.60635e-12
1.60653e-12
1.60661e-12
1.6069e-12
1.60712e-12
1.6076e-12
1.60812e-12
1.60894e-12
1.61021e-12
1.61176e-12
1.61431e-12
1.61722e-12
1.62219e-12
1.62955e-12
1.63555e-12
1.64534e-12
1.64879e-12
1.57031e-12
1.5663e-12
1.55566e-12
1.54948e-12
1.54369e-12
1.53852e-12
1.5356e-12
1.53298e-12
1.53141e-12
1.53012e-12
1.5293e-12
1.52876e-12
1.52827e-12
1.52805e-12
1.52775e-12
1.52767e-12
1.52748e-12
1.52747e-12
1.52736e-12
1.52737e-12
1.5273e-12
1.52732e-12
1.52728e-12
1.52729e-12
1.52728e-12
1.52728e-12
1.52729e-12
1.52728e-12
1.52731e-12
1.5273e-12
1.52737e-12
1.52736e-12
1.52747e-12
1.52748e-12
1.52767e-12
1.52775e-12
1.52805e-12
1.52828e-12
1.52876e-12
1.52929e-12
1.53012e-12
1.53141e-12
1.53298e-12
1.5356e-12
1.53852e-12
1.54369e-12
1.54947e-12
1.55565e-12
1.5663e-12
1.57031e-12
1.49169e-12
1.4873e-12
1.47595e-12
1.46963e-12
1.4636e-12
1.45826e-12
1.45535e-12
1.45268e-12
1.45112e-12
1.44981e-12
1.44897e-12
1.44843e-12
1.44795e-12
1.44772e-12
1.44741e-12
1.44733e-12
1.44714e-12
1.44713e-12
1.44702e-12
1.44703e-12
1.44696e-12
1.44698e-12
1.44694e-12
1.44695e-12
1.44694e-12
1.44694e-12
1.44695e-12
1.44694e-12
1.44697e-12
1.44696e-12
1.44703e-12
1.44702e-12
1.44713e-12
1.44715e-12
1.44734e-12
1.44741e-12
1.44772e-12
1.44795e-12
1.44843e-12
1.44897e-12
1.44981e-12
1.45112e-12
1.45268e-12
1.45535e-12
1.45826e-12
1.46359e-12
1.46963e-12
1.47595e-12
1.4873e-12
1.49168e-12
1.41052e-12
1.40573e-12
1.39503e-12
1.38862e-12
1.38243e-12
1.37697e-12
1.3741e-12
1.37139e-12
1.36985e-12
1.36853e-12
1.3677e-12
1.36715e-12
1.36667e-12
1.36644e-12
1.36613e-12
1.36606e-12
1.36586e-12
1.36585e-12
1.36574e-12
1.36575e-12
1.36568e-12
1.36569e-12
1.36566e-12
1.36567e-12
1.36566e-12
1.36566e-12
1.36567e-12
1.36566e-12
1.36569e-12
1.36568e-12
1.36575e-12
1.36574e-12
1.36585e-12
1.36587e-12
1.36606e-12
1.36614e-12
1.36644e-12
1.36667e-12
1.36715e-12
1.36769e-12
1.36853e-12
1.36985e-12
1.37139e-12
1.3741e-12
1.37696e-12
1.38243e-12
1.38861e-12
1.39502e-12
1.40572e-12
1.41051e-12
1.32968e-12
1.32459e-12
1.3135e-12
1.30699e-12
1.30074e-12
1.2952e-12
1.29235e-12
1.2895e-12
1.2879e-12
1.28651e-12
1.28565e-12
1.28508e-12
1.28458e-12
1.28434e-12
1.28402e-12
1.28394e-12
1.28374e-12
1.28372e-12
1.2836e-12
1.28361e-12
1.28354e-12
1.28356e-12
1.28352e-12
1.28353e-12
1.28352e-12
1.28352e-12
1.28353e-12
1.28352e-12
1.28356e-12
1.28354e-12
1.28361e-12
1.2836e-12
1.28372e-12
1.28374e-12
1.28394e-12
1.28402e-12
1.28434e-12
1.28458e-12
1.28508e-12
1.28564e-12
1.28651e-12
1.2879e-12
1.2895e-12
1.29235e-12
1.2952e-12
1.30074e-12
1.30699e-12
1.31349e-12
1.32459e-12
1.32967e-12
1.24858e-12
1.24322e-12
1.23192e-12
1.22532e-12
1.21908e-12
1.21352e-12
1.21072e-12
1.20791e-12
1.20633e-12
1.20494e-12
1.2041e-12
1.20354e-12
1.20304e-12
1.20281e-12
1.20249e-12
1.20241e-12
1.20221e-12
1.20219e-12
1.20207e-12
1.20208e-12
1.20202e-12
1.20203e-12
1.20199e-12
1.202e-12
1.20199e-12
1.20199e-12
1.202e-12
1.20199e-12
1.20203e-12
1.20201e-12
1.20208e-12
1.20207e-12
1.2022e-12
1.20221e-12
1.20241e-12
1.20249e-12
1.20281e-12
1.20304e-12
1.20354e-12
1.20409e-12
1.20495e-12
1.20632e-12
1.20791e-12
1.21071e-12
1.21352e-12
1.21908e-12
1.22531e-12
1.23191e-12
1.24322e-12
1.24857e-12
1.16779e-12
1.16222e-12
1.15082e-12
1.14417e-12
1.13802e-12
1.1325e-12
1.12975e-12
1.12699e-12
1.12544e-12
1.12408e-12
1.12325e-12
1.1227e-12
1.12221e-12
1.12199e-12
1.12167e-12
1.12159e-12
1.1214e-12
1.12138e-12
1.12127e-12
1.12128e-12
1.12121e-12
1.12122e-12
1.12119e-12
1.1212e-12
1.12118e-12
1.12118e-12
1.1212e-12
1.12119e-12
1.12122e-12
1.12121e-12
1.12128e-12
1.12127e-12
1.12138e-12
1.1214e-12
1.1216e-12
1.12167e-12
1.12199e-12
1.12222e-12
1.1227e-12
1.12325e-12
1.12408e-12
1.12544e-12
1.12699e-12
1.12974e-12
1.1325e-12
1.13802e-12
1.14417e-12
1.15081e-12
1.16221e-12
1.16778e-12
1.08787e-12
1.08216e-12
1.07074e-12
1.06411e-12
1.0581e-12
1.05267e-12
1.04998e-12
1.04728e-12
1.04579e-12
1.04445e-12
1.04365e-12
1.04312e-12
1.04264e-12
1.04242e-12
1.04211e-12
1.04204e-12
1.04184e-12
1.04183e-12
1.04171e-12
1.04173e-12
1.04166e-12
1.04167e-12
1.04164e-12
1.04165e-12
1.04163e-12
1.04163e-12
1.04165e-12
1.04164e-12
1.04167e-12
1.04166e-12
1.04172e-12
1.04171e-12
1.04183e-12
1.04184e-12
1.04204e-12
1.04211e-12
1.04242e-12
1.04264e-12
1.04311e-12
1.04365e-12
1.04446e-12
1.04578e-12
1.04728e-12
1.04997e-12
1.05267e-12
1.05809e-12
1.0641e-12
1.07073e-12
1.08215e-12
1.08786e-12
1.00921e-12
1.00318e-12
9.92197e-13
9.85645e-13
9.79803e-13
9.74548e-13
9.71913e-13
9.69305e-13
9.67862e-13
9.66569e-13
9.658e-13
9.65277e-13
9.64814e-13
9.64604e-13
9.64304e-13
9.64234e-13
9.64046e-13
9.64036e-13
9.63922e-13
9.63933e-13
9.63867e-13
9.63882e-13
9.63847e-13
9.63857e-13
9.63845e-13
9.63845e-13
9.63857e-13
9.63846e-13
9.63881e-13
9.63866e-13
9.63933e-13
9.63922e-13
9.64036e-13
9.64047e-13
9.64236e-13
9.64307e-13
9.64607e-13
9.64816e-13
9.65275e-13
9.65793e-13
9.66576e-13
9.67856e-13
9.69303e-13
9.71912e-13
9.74544e-13
9.79802e-13
9.8564e-13
9.9219e-13
1.00318e-12
1.00921e-12
9.32556e-13
9.26538e-13
9.15677e-13
9.09268e-13
9.03634e-13
8.98573e-13
8.9602e-13
8.93507e-13
8.92132e-13
8.90891e-13
8.90152e-13
8.89647e-13
8.89202e-13
8.89003e-13
8.88714e-13
8.88648e-13
8.88466e-13
8.88457e-13
8.88346e-13
8.88358e-13
8.88294e-13
8.88309e-13
8.88275e-13
8.88284e-13
8.88273e-13
8.88273e-13
8.88284e-13
8.88274e-13
8.88308e-13
8.88293e-13
8.88357e-13
8.88346e-13
8.88457e-13
8.88467e-13
8.88649e-13
8.88716e-13
8.89006e-13
8.89205e-13
8.89645e-13
8.90145e-13
8.90896e-13
8.92128e-13
8.93505e-13
8.96018e-13
8.98569e-13
9.03633e-13
9.09262e-13
9.1567e-13
9.26532e-13
9.32549e-13
8.58231e-13
8.52284e-13
8.41606e-13
8.35398e-13
8.30005e-13
8.25163e-13
8.22706e-13
8.20304e-13
8.19004e-13
8.17819e-13
8.17115e-13
)
;

boundaryField
{
    fuel
    {
        type            fixedValue;
        value           nonuniform 0();
    }
    wall
    {
        type            zeroGradient;
    }
    outlet
    {
        type            zeroGradient;
    }
    frontAndBack
    {
        type            empty;
    }
    procBoundary2to0
    {
        type            processor;
        value           nonuniform List<scalar> 
53
(
3.56452e-12
3.57709e-12
3.58099e-12
3.58363e-12
3.58184e-12
3.58131e-12
3.57894e-12
3.57753e-12
3.57593e-12
3.5751e-12
3.57418e-12
3.5738e-12
3.57326e-12
3.57312e-12
3.57281e-12
3.57278e-12
3.5726e-12
3.57262e-12
3.47894e-12
3.47894e-12
3.47897e-12
3.4789e-12
3.47893e-12
3.47889e-12
3.4789e-12
3.47889e-12
3.47889e-12
3.4789e-12
3.47889e-12
3.39014e-12
3.39014e-12
3.39012e-12
3.39018e-12
3.39015e-12
3.39025e-12
3.39023e-12
3.39039e-12
3.39042e-12
3.3907e-12
3.39083e-12
3.39131e-12
3.39167e-12
3.30819e-12
3.30819e-12
3.30893e-12
3.31029e-12
3.31157e-12
3.31362e-12
3.31445e-12
3.31618e-12
3.31431e-12
3.31199e-12
3.30203e-12
)
;
    }
    procBoundary2to3
    {
        type            processor;
        value           nonuniform List<scalar> 
51
(
8.16631e-13
8.16208e-13
8.1602e-13
8.15743e-13
8.15681e-13
8.15507e-13
8.15499e-13
8.15392e-13
8.15404e-13
8.15342e-13
8.15357e-13
8.15324e-13
8.15334e-13
8.15323e-13
8.15323e-13
8.15333e-13
8.15323e-13
8.15356e-13
8.15341e-13
8.15404e-13
8.15392e-13
8.15499e-13
8.15508e-13
8.15683e-13
8.15745e-13
8.16023e-13
8.1621e-13
8.16628e-13
8.17109e-13
8.17824e-13
8.19002e-13
8.20303e-13
8.22705e-13
8.25158e-13
8.30005e-13
8.35393e-13
8.41599e-13
8.52279e-13
8.58224e-13
7.86628e-13
7.80814e-13
7.70356e-13
7.64403e-13
7.59278e-13
7.54675e-13
7.52325e-13
7.50047e-13
7.48827e-13
7.47702e-13
8.16631e-13
7.47037e-13
)
;
    }
}


// ************************************************************************* //
