/*--------------------------------*- C++ -*----------------------------------*\
| =========                 |                                                 |
| \\      /  F ield         | OpenFOAM: The Open Source CFD Toolbox           |
|  \\    /   O peration     | Version:  dev                                   |
|   \\  /    A nd           | Web:      www.OpenFOAM.org                      |
|    \\/     M anipulation  |                                                 |
\*---------------------------------------------------------------------------*/
FoamFile
{
    version     2.0;
    format      ascii;
    class       volScalarField;
    location    "0.085";
    object      C2H4;
}
// * * * * * * * * * * * * * * * * * * * * * * * * * * * * * * * * * * * * * //

dimensions      [0 0 0 0 0 0 0];

internalField   nonuniform List<scalar> 
25
(
1.45932e-10
1.72657e-10
2.05762e-10
2.46195e-10
2.9398e-10
3.51456e-10
4.20927e-10
5.05497e-10
6.09036e-10
7.36289e-10
8.93234e-10
1.08758e-09
1.32939e-09
1.63188e-09
2.01229e-09
2.49295e-09
3.1021e-09
3.87413e-09
4.84865e-09
6.15257e-09
7.79359e-09
9.82738e-09
1.23269e-08
1.53786e-08
1.89445e-08
)
;

boundaryField
{
    wall
    {
        type            zeroGradient;
    }
    fuel
    {
        type            fixedValue;
        value           nonuniform 0();
    }
    outlet
    {
        type            inletOutlet;
        inletValue      nonuniform 0();
        value           nonuniform 0();
    }
    procBoundary2to1
    {
        type            processor;
        value           uniform 1.24428e-10;
    }
    procBoundary2to3
    {
        type            processor;
        value           uniform 2.31108e-08;
    }
}


// ************************************************************************* //
