/*--------------------------------*- C++ -*----------------------------------*\
| =========                 |                                                 |
| \\      /  F ield         | OpenFOAM: The Open Source CFD Toolbox           |
|  \\    /   O peration     | Version:  dev                                   |
|   \\  /    A nd           | Web:      www.OpenFOAM.org                      |
|    \\/     M anipulation  |                                                 |
\*---------------------------------------------------------------------------*/
FoamFile
{
    version     2.0;
    format      ascii;
    class       volScalarField;
    location    "0.085";
    object      C5H4O;
}
// * * * * * * * * * * * * * * * * * * * * * * * * * * * * * * * * * * * * * //

dimensions      [0 0 0 0 0 0 0];

internalField   nonuniform List<scalar> 
1997
(
1.40494e-09
1.40877e-09
1.41197e-09
1.41419e-09
1.41554e-09
1.41658e-09
1.41707e-09
1.41749e-09
1.41772e-09
1.41795e-09
1.41808e-09
1.41822e-09
1.41829e-09
1.41838e-09
1.41842e-09
1.41848e-09
1.4185e-09
1.41854e-09
1.39867e-09
1.40236e-09
1.40552e-09
1.40777e-09
1.4092e-09
1.41025e-09
1.41079e-09
1.41124e-09
1.41149e-09
1.41174e-09
1.41188e-09
1.41203e-09
1.41211e-09
1.4122e-09
1.41225e-09
1.41231e-09
1.41234e-09
1.41237e-09
1.41239e-09
1.41241e-09
1.41242e-09
1.41243e-09
1.41243e-09
1.41244e-09
1.41244e-09
1.41244e-09
1.41244e-09
1.41243e-09
1.39394e-09
1.39751e-09
1.40065e-09
1.40292e-09
1.40444e-09
1.40551e-09
1.40609e-09
1.40657e-09
1.40686e-09
1.40712e-09
1.40728e-09
1.40743e-09
1.40752e-09
1.40762e-09
1.40767e-09
1.40773e-09
1.40776e-09
1.4078e-09
1.40781e-09
1.40784e-09
1.40784e-09
1.40786e-09
1.40786e-09
1.40787e-09
1.40787e-09
1.40787e-09
1.40787e-09
1.40786e-09
1.40786e-09
1.40784e-09
1.40784e-09
1.40781e-09
1.4078e-09
1.40776e-09
1.40773e-09
1.40767e-09
1.40762e-09
1.40752e-09
1.40743e-09
1.40728e-09
1.39073e-09
1.39419e-09
1.39733e-09
1.39962e-09
1.40123e-09
1.40232e-09
1.40296e-09
1.40347e-09
1.40378e-09
1.40406e-09
1.40423e-09
1.40439e-09
1.40449e-09
1.40459e-09
1.40465e-09
1.40471e-09
1.40475e-09
1.40479e-09
1.4048e-09
1.40483e-09
1.40483e-09
1.40485e-09
1.40485e-09
1.40486e-09
1.40486e-09
1.40486e-09
1.40486e-09
1.40485e-09
1.40485e-09
1.40483e-09
1.40482e-09
1.4048e-09
1.40478e-09
1.40475e-09
1.40471e-09
1.40465e-09
1.40459e-09
1.40449e-09
1.40439e-09
1.40423e-09
1.40406e-09
1.40378e-09
1.40347e-09
1.40296e-09
1.40232e-09
1.40123e-09
1.39962e-09
1.39733e-09
1.39419e-09
1.39073e-09
1.389e-09
1.39236e-09
1.39552e-09
1.39784e-09
1.39955e-09
1.40066e-09
1.40135e-09
1.40189e-09
1.40223e-09
1.40252e-09
1.40271e-09
1.40288e-09
1.40299e-09
1.40309e-09
1.40316e-09
1.40322e-09
1.40326e-09
1.4033e-09
1.40331e-09
1.40334e-09
1.40335e-09
1.40336e-09
1.40336e-09
1.40337e-09
1.40337e-09
1.40337e-09
1.40337e-09
1.40336e-09
1.40336e-09
1.40335e-09
1.40334e-09
1.40331e-09
1.40329e-09
1.40325e-09
1.40322e-09
1.40316e-09
1.40309e-09
1.40299e-09
1.40288e-09
1.40271e-09
1.40252e-09
1.40223e-09
1.40189e-09
1.40135e-09
1.40066e-09
1.39954e-09
1.39784e-09
1.39552e-09
1.39236e-09
1.389e-09
1.38871e-09
1.39199e-09
1.39518e-09
1.39753e-09
1.39932e-09
1.40046e-09
1.4012e-09
1.40177e-09
1.40215e-09
1.40245e-09
1.40266e-09
1.40283e-09
1.40295e-09
1.40306e-09
1.40312e-09
1.40319e-09
1.40323e-09
1.40327e-09
1.40329e-09
1.40331e-09
1.40332e-09
1.40333e-09
1.40334e-09
1.40334e-09
1.40335e-09
1.40335e-09
1.40334e-09
1.40334e-09
1.40333e-09
1.40332e-09
1.40331e-09
1.40329e-09
1.40327e-09
1.40323e-09
1.40319e-09
1.40312e-09
1.40305e-09
1.40295e-09
1.40283e-09
1.40266e-09
1.40245e-09
1.40214e-09
1.40177e-09
1.4012e-09
1.40046e-09
1.39932e-09
1.39753e-09
1.39518e-09
1.39199e-09
1.38871e-09
1.38991e-09
1.39312e-09
1.39636e-09
1.39875e-09
1.40064e-09
1.40181e-09
1.40261e-09
1.40321e-09
1.40361e-09
1.40393e-09
1.40415e-09
1.40433e-09
1.40445e-09
1.40456e-09
1.40464e-09
1.4047e-09
1.40474e-09
1.40478e-09
1.40481e-09
1.40483e-09
1.40484e-09
1.40485e-09
1.40486e-09
1.40486e-09
1.40487e-09
1.40487e-09
1.40486e-09
1.40486e-09
1.40485e-09
1.40484e-09
1.40483e-09
1.40481e-09
1.40478e-09
1.40474e-09
1.4047e-09
1.40464e-09
1.40456e-09
1.40445e-09
1.40433e-09
1.40414e-09
1.40393e-09
1.4036e-09
1.4032e-09
1.4026e-09
1.40181e-09
1.40064e-09
1.39875e-09
1.39635e-09
1.39312e-09
1.38991e-09
1.39257e-09
1.39572e-09
1.39902e-09
1.40146e-09
1.40345e-09
1.40466e-09
1.40551e-09
1.40614e-09
1.40656e-09
1.4069e-09
1.40714e-09
1.40732e-09
1.40746e-09
1.40757e-09
1.40765e-09
1.40772e-09
1.40776e-09
1.4078e-09
1.40783e-09
1.40785e-09
1.40786e-09
1.40788e-09
1.40788e-09
1.40789e-09
1.40789e-09
1.40789e-09
1.40789e-09
1.40788e-09
1.40787e-09
1.40786e-09
1.40785e-09
1.40783e-09
1.4078e-09
1.40776e-09
1.40772e-09
1.40765e-09
1.40757e-09
1.40746e-09
1.40732e-09
1.40713e-09
1.4069e-09
1.40656e-09
1.40614e-09
1.4055e-09
1.40466e-09
1.40345e-09
1.40146e-09
1.39902e-09
1.39572e-09
1.39257e-09
1.39664e-09
1.39975e-09
1.40313e-09
1.40562e-09
1.40771e-09
1.40896e-09
1.40986e-09
1.41053e-09
1.41098e-09
1.41133e-09
1.41158e-09
1.41177e-09
1.41192e-09
1.41203e-09
1.41212e-09
1.41219e-09
1.41223e-09
1.41227e-09
1.4123e-09
1.41232e-09
1.41234e-09
1.41235e-09
1.41236e-09
1.41236e-09
1.41236e-09
1.41236e-09
1.41236e-09
1.41236e-09
1.41235e-09
1.41234e-09
1.41232e-09
1.4123e-09
1.41227e-09
1.41223e-09
1.41218e-09
1.41212e-09
1.41203e-09
1.41192e-09
1.41177e-09
1.41158e-09
1.41133e-09
1.41098e-09
1.41052e-09
1.40986e-09
1.40896e-09
1.40771e-09
1.40562e-09
1.40312e-09
1.39975e-09
1.39664e-09
1.40215e-09
1.40522e-09
1.40869e-09
1.41125e-09
1.41344e-09
1.41474e-09
1.4157e-09
1.4164e-09
1.41688e-09
1.41725e-09
1.41751e-09
1.41771e-09
1.41787e-09
1.41799e-09
1.41808e-09
1.41815e-09
1.4182e-09
1.41824e-09
1.41827e-09
1.41829e-09
1.4183e-09
1.41832e-09
1.41832e-09
1.41833e-09
1.41833e-09
1.41833e-09
1.41833e-09
1.41832e-09
1.41832e-09
1.4183e-09
1.41829e-09
1.41827e-09
1.41824e-09
1.4182e-09
1.41814e-09
1.41807e-09
1.41798e-09
1.41787e-09
1.41771e-09
1.41751e-09
1.41725e-09
1.41688e-09
1.4164e-09
1.41569e-09
1.41474e-09
1.41344e-09
1.41125e-09
1.40869e-09
1.40522e-09
1.40215e-09
1.40915e-09
1.41221e-09
1.41578e-09
1.41841e-09
1.4207e-09
1.42205e-09
1.42306e-09
1.4238e-09
1.42431e-09
1.4247e-09
1.42497e-09
1.42519e-09
1.42535e-09
1.42547e-09
1.42556e-09
1.42563e-09
1.42569e-09
1.42573e-09
1.42576e-09
1.42578e-09
1.4258e-09
1.42581e-09
1.42582e-09
1.42583e-09
1.42583e-09
1.42583e-09
1.42583e-09
1.42582e-09
1.42581e-09
1.4258e-09
1.42578e-09
1.42576e-09
1.42573e-09
1.42569e-09
1.42563e-09
1.42556e-09
1.42547e-09
1.42534e-09
1.42518e-09
1.42497e-09
1.4247e-09
1.42431e-09
1.4238e-09
1.42306e-09
1.42205e-09
1.42069e-09
1.41841e-09
1.41578e-09
1.41221e-09
1.40915e-09
1.41749e-09
1.42054e-09
1.42422e-09
1.42693e-09
1.42931e-09
1.43073e-09
1.43179e-09
1.43257e-09
1.43311e-09
1.43352e-09
1.4338e-09
1.43402e-09
1.43419e-09
1.43432e-09
1.43442e-09
1.43449e-09
1.43455e-09
1.43459e-09
1.43462e-09
1.43465e-09
1.43466e-09
1.43468e-09
1.43468e-09
1.43469e-09
1.43469e-09
1.43469e-09
1.43469e-09
1.43468e-09
1.43468e-09
1.43466e-09
1.43465e-09
1.43462e-09
1.43459e-09
1.43455e-09
1.43449e-09
1.43442e-09
1.43432e-09
1.43419e-09
1.43402e-09
1.4338e-09
1.43351e-09
1.4331e-09
1.43257e-09
1.43179e-09
1.43073e-09
1.42931e-09
1.42693e-09
1.42422e-09
1.42054e-09
1.41749e-09
1.42729e-09
1.43034e-09
1.43415e-09
1.43695e-09
1.43942e-09
1.44091e-09
1.44203e-09
1.44285e-09
1.44341e-09
1.44384e-09
1.44414e-09
1.44437e-09
1.44455e-09
1.44468e-09
1.44478e-09
1.44485e-09
1.44492e-09
1.44496e-09
1.44499e-09
1.44502e-09
1.44504e-09
1.44505e-09
1.44506e-09
1.44506e-09
1.44506e-09
1.44506e-09
1.44506e-09
1.44506e-09
1.44505e-09
1.44504e-09
1.44502e-09
1.44499e-09
1.44496e-09
1.44492e-09
1.44485e-09
1.44478e-09
1.44467e-09
1.44454e-09
1.44437e-09
1.44414e-09
1.44384e-09
1.44341e-09
1.44284e-09
1.44203e-09
1.44091e-09
1.43942e-09
1.43695e-09
1.43415e-09
1.43034e-09
1.42729e-09
1.43851e-09
1.44158e-09
1.44553e-09
1.44842e-09
1.45098e-09
1.45254e-09
1.45371e-09
1.45457e-09
1.45516e-09
1.45561e-09
1.45593e-09
1.45616e-09
1.45635e-09
1.45648e-09
1.45659e-09
1.45667e-09
1.45673e-09
1.45678e-09
1.45681e-09
1.45684e-09
1.45686e-09
1.45687e-09
1.45688e-09
1.45688e-09
1.45689e-09
1.45689e-09
1.45688e-09
1.45688e-09
1.45687e-09
1.45686e-09
1.45684e-09
1.45681e-09
1.45677e-09
1.45673e-09
1.45667e-09
1.45659e-09
1.45648e-09
1.45635e-09
1.45616e-09
1.45593e-09
1.45561e-09
1.45516e-09
1.45457e-09
1.45371e-09
1.45254e-09
1.45098e-09
1.44842e-09
1.44553e-09
1.44158e-09
1.43851e-09
1.45132e-09
1.45443e-09
1.45854e-09
1.46155e-09
1.4642e-09
1.46585e-09
1.46709e-09
1.46799e-09
1.46861e-09
1.46909e-09
1.46942e-09
1.46966e-09
1.46986e-09
1.47e-09
1.47011e-09
1.47019e-09
1.47026e-09
1.4703e-09
1.47034e-09
1.47036e-09
1.47039e-09
1.4704e-09
1.47041e-09
1.47041e-09
1.47042e-09
1.47042e-09
1.47041e-09
1.47041e-09
1.4704e-09
1.47039e-09
1.47036e-09
1.47034e-09
1.4703e-09
1.47026e-09
1.47019e-09
1.47011e-09
1.46999e-09
1.46986e-09
1.46966e-09
1.46942e-09
1.46908e-09
1.46861e-09
1.46799e-09
1.46709e-09
1.46585e-09
1.4642e-09
1.46155e-09
1.45854e-09
1.45443e-09
1.45132e-09
1.46573e-09
1.46889e-09
1.47315e-09
1.47627e-09
1.47901e-09
1.48075e-09
1.48204e-09
1.48299e-09
1.48364e-09
1.48413e-09
1.48447e-09
1.48473e-09
1.48493e-09
1.48507e-09
1.48519e-09
1.48527e-09
1.48535e-09
1.48539e-09
1.48543e-09
1.48545e-09
1.48548e-09
1.48549e-09
1.4855e-09
1.4855e-09
1.48551e-09
1.48551e-09
1.4855e-09
1.4855e-09
1.48549e-09
1.48548e-09
1.48545e-09
1.48543e-09
1.48539e-09
1.48534e-09
1.48527e-09
1.48519e-09
1.48507e-09
1.48493e-09
1.48472e-09
1.48447e-09
1.48413e-09
1.48363e-09
1.48299e-09
1.48204e-09
1.48074e-09
1.47901e-09
1.47627e-09
1.47315e-09
1.46889e-09
1.46573e-09
1.48136e-09
1.48458e-09
1.48901e-09
1.49224e-09
1.49509e-09
1.4969e-09
1.49826e-09
1.49925e-09
1.49992e-09
1.50044e-09
1.50079e-09
1.50106e-09
1.50127e-09
1.50142e-09
1.50154e-09
1.50162e-09
1.5017e-09
1.50174e-09
1.50179e-09
1.50181e-09
1.50183e-09
1.50184e-09
1.50186e-09
1.50186e-09
1.50187e-09
1.50187e-09
1.50186e-09
1.50186e-09
1.50184e-09
1.50183e-09
1.50181e-09
1.50179e-09
1.50174e-09
1.5017e-09
1.50162e-09
1.50154e-09
1.50141e-09
1.50127e-09
1.50105e-09
1.50079e-09
1.50044e-09
1.49992e-09
1.49925e-09
1.49825e-09
1.4969e-09
1.49509e-09
1.49224e-09
1.48901e-09
1.48458e-09
1.48136e-09
1.49879e-09
1.50205e-09
1.50666e-09
1.51002e-09
1.513e-09
1.51491e-09
1.51633e-09
1.51737e-09
1.51808e-09
1.51863e-09
1.519e-09
1.51927e-09
1.51949e-09
1.51964e-09
1.51978e-09
1.51986e-09
1.51994e-09
1.51999e-09
1.52003e-09
1.52005e-09
1.52008e-09
1.52009e-09
1.5201e-09
1.52011e-09
1.52011e-09
1.52011e-09
1.52011e-09
1.5201e-09
1.52009e-09
1.52008e-09
1.52005e-09
1.52003e-09
1.51998e-09
1.51994e-09
1.51986e-09
1.51978e-09
1.51964e-09
1.51949e-09
1.51927e-09
1.519e-09
1.51862e-09
1.51808e-09
1.51737e-09
1.51633e-09
1.51491e-09
1.513e-09
1.51002e-09
1.50666e-09
1.50205e-09
1.49879e-09
1.51758e-09
1.52092e-09
1.52572e-09
1.52924e-09
1.53234e-09
1.53435e-09
1.53581e-09
1.53691e-09
1.53765e-09
1.53821e-09
1.5386e-09
1.53888e-09
1.53911e-09
1.53927e-09
1.53941e-09
1.53949e-09
1.53957e-09
1.53962e-09
1.53967e-09
1.53969e-09
1.53972e-09
1.53973e-09
1.53974e-09
1.53975e-09
1.53975e-09
1.53975e-09
1.53975e-09
1.53974e-09
1.53973e-09
1.53972e-09
1.53969e-09
1.53967e-09
1.53962e-09
1.53957e-09
1.53949e-09
1.53941e-09
1.53926e-09
1.53911e-09
1.53888e-09
1.5386e-09
1.53821e-09
1.53765e-09
1.5369e-09
1.53581e-09
1.53435e-09
1.53234e-09
1.52924e-09
1.52572e-09
1.52093e-09
1.51759e-09
1.53838e-09
1.5418e-09
1.54682e-09
1.55057e-09
1.55381e-09
1.55594e-09
1.55746e-09
1.5586e-09
1.55939e-09
1.55998e-09
1.56038e-09
1.56067e-09
1.56092e-09
1.56108e-09
1.56122e-09
1.56131e-09
1.5614e-09
1.56144e-09
1.56149e-09
1.56151e-09
1.56154e-09
1.56155e-09
1.56157e-09
1.56157e-09
1.56158e-09
1.56158e-09
1.56157e-09
1.56157e-09
1.56155e-09
1.56154e-09
1.56151e-09
1.56149e-09
1.56144e-09
1.56139e-09
1.56131e-09
1.56122e-09
1.56107e-09
1.56091e-09
1.56067e-09
1.56038e-09
1.55998e-09
1.55939e-09
1.5586e-09
1.55746e-09
1.55594e-09
1.55381e-09
1.55057e-09
1.54682e-09
1.54181e-09
1.53838e-09
1.56101e-09
1.56456e-09
1.56981e-09
1.5733e-09
1.57669e-09
1.57892e-09
1.58051e-09
1.5817e-09
1.58252e-09
1.58313e-09
1.58355e-09
1.58385e-09
1.5841e-09
1.58427e-09
1.58442e-09
1.58451e-09
1.5846e-09
1.58465e-09
1.5847e-09
1.58472e-09
1.58475e-09
1.58476e-09
1.58478e-09
1.58478e-09
1.58479e-09
1.58479e-09
1.58478e-09
1.58478e-09
1.58476e-09
1.58475e-09
1.58472e-09
1.5847e-09
1.58464e-09
1.5846e-09
1.58451e-09
1.58442e-09
1.58427e-09
1.5841e-09
1.58385e-09
1.58355e-09
1.58313e-09
1.58251e-09
1.5817e-09
1.58051e-09
1.57892e-09
1.57669e-09
1.5733e-09
1.56981e-09
1.56456e-09
1.56102e-09
1.585e-09
1.58867e-09
1.59419e-09
1.59791e-09
1.60147e-09
1.60381e-09
1.60546e-09
1.60669e-09
1.60755e-09
1.60819e-09
1.60863e-09
1.60894e-09
1.60921e-09
1.60938e-09
1.60954e-09
1.60963e-09
1.60973e-09
1.60977e-09
1.60983e-09
1.60985e-09
1.60988e-09
1.60989e-09
1.60991e-09
1.60991e-09
1.60992e-09
1.60992e-09
1.60991e-09
1.60991e-09
1.60989e-09
1.60988e-09
1.60985e-09
1.60983e-09
1.60977e-09
1.60972e-09
1.60963e-09
1.60954e-09
1.60938e-09
1.6092e-09
1.60894e-09
1.60863e-09
1.60819e-09
1.60755e-09
1.60669e-09
1.60545e-09
1.6038e-09
1.60147e-09
1.59791e-09
1.59419e-09
1.58867e-09
1.58501e-09
1.61129e-09
1.61525e-09
1.62105e-09
1.62498e-09
1.62872e-09
1.63119e-09
1.63291e-09
1.63421e-09
1.63511e-09
1.63578e-09
1.63624e-09
1.63656e-09
1.63684e-09
1.63702e-09
1.63718e-09
1.63728e-09
1.63738e-09
1.63742e-09
1.63748e-09
1.63751e-09
1.63754e-09
1.63755e-09
1.63757e-09
1.63757e-09
1.63758e-09
1.63758e-09
1.63757e-09
1.63757e-09
1.63755e-09
1.63754e-09
1.63751e-09
1.63748e-09
1.63742e-09
1.63737e-09
1.63727e-09
1.63718e-09
1.63701e-09
1.63684e-09
1.63656e-09
1.63623e-09
1.63578e-09
1.63511e-09
1.63421e-09
1.63291e-09
1.63118e-09
1.62872e-09
1.62498e-09
1.62105e-09
1.61525e-09
1.61129e-09
1.63988e-09
1.6435e-09
1.6496e-09
1.65371e-09
1.65764e-09
1.66023e-09
1.66203e-09
1.66339e-09
1.66433e-09
1.66502e-09
1.66549e-09
1.66583e-09
1.66612e-09
1.6663e-09
1.66647e-09
1.66657e-09
1.66667e-09
1.66672e-09
1.66678e-09
1.66681e-09
1.66684e-09
1.66685e-09
1.66687e-09
1.66687e-09
1.66688e-09
1.66688e-09
1.66687e-09
1.66687e-09
1.66685e-09
1.66684e-09
1.66681e-09
1.66678e-09
1.66672e-09
1.66667e-09
1.66657e-09
1.66647e-09
1.6663e-09
1.66612e-09
1.66583e-09
1.66549e-09
1.66502e-09
1.66432e-09
1.66339e-09
1.66203e-09
1.66023e-09
1.65763e-09
1.65371e-09
1.6496e-09
1.6435e-09
1.63989e-09
1.6701e-09
1.67397e-09
1.68043e-09
1.68473e-09
1.68883e-09
1.69158e-09
1.69345e-09
1.69487e-09
1.69586e-09
1.6966e-09
1.6971e-09
1.69746e-09
1.69776e-09
1.69796e-09
1.69814e-09
1.69824e-09
1.69835e-09
1.6984e-09
1.69846e-09
1.69849e-09
1.69852e-09
1.69853e-09
1.69855e-09
1.69856e-09
1.69856e-09
1.69856e-09
1.69856e-09
1.69855e-09
1.69853e-09
1.69852e-09
1.69849e-09
1.69846e-09
1.6984e-09
1.69835e-09
1.69824e-09
1.69814e-09
1.69795e-09
1.69776e-09
1.69746e-09
1.6971e-09
1.6966e-09
1.69586e-09
1.69487e-09
1.69344e-09
1.69158e-09
1.68882e-09
1.68473e-09
1.68043e-09
1.67397e-09
1.6701e-09
1.70313e-09
1.70727e-09
1.71425e-09
1.71878e-09
1.72307e-09
1.72602e-09
1.72797e-09
1.72948e-09
1.73051e-09
1.73128e-09
1.73181e-09
1.73219e-09
1.7325e-09
1.7327e-09
1.73289e-09
1.73299e-09
1.73311e-09
1.73316e-09
1.73323e-09
1.73325e-09
1.73329e-09
1.7333e-09
1.73332e-09
1.73332e-09
1.73333e-09
1.73333e-09
1.73332e-09
1.73332e-09
1.7333e-09
1.73329e-09
1.73325e-09
1.73323e-09
1.73316e-09
1.73311e-09
1.73299e-09
1.73289e-09
1.7327e-09
1.7325e-09
1.73219e-09
1.73182e-09
1.73128e-09
1.73051e-09
1.72947e-09
1.72797e-09
1.72602e-09
1.72307e-09
1.71879e-09
1.71425e-09
1.70727e-09
1.70313e-09
1.73908e-09
1.74347e-09
1.75022e-09
1.75495e-09
1.75941e-09
1.76253e-09
1.76455e-09
1.76614e-09
1.76721e-09
1.76802e-09
1.76857e-09
1.76896e-09
1.76929e-09
1.76949e-09
1.76969e-09
1.7698e-09
1.76992e-09
1.76997e-09
1.77004e-09
1.77006e-09
1.7701e-09
1.77011e-09
1.77014e-09
1.77014e-09
1.77015e-09
1.77015e-09
1.77014e-09
1.77014e-09
1.77012e-09
1.7701e-09
1.77006e-09
1.77004e-09
1.76997e-09
1.76992e-09
1.76979e-09
1.76969e-09
1.76949e-09
1.76929e-09
1.76896e-09
1.76858e-09
1.76802e-09
1.76721e-09
1.76613e-09
1.76455e-09
1.76253e-09
1.75941e-09
1.75495e-09
1.75022e-09
1.74347e-09
1.73908e-09
1.77713e-09
1.78187e-09
1.78935e-09
1.79442e-09
1.79917e-09
1.80253e-09
1.80466e-09
1.80636e-09
1.80749e-09
1.80836e-09
1.80894e-09
1.80935e-09
1.80969e-09
1.80991e-09
1.81012e-09
1.81023e-09
1.81036e-09
1.81041e-09
1.81048e-09
1.81051e-09
1.81055e-09
1.81056e-09
1.81058e-09
1.81059e-09
1.81059e-09
1.81059e-09
1.81059e-09
1.81058e-09
1.81056e-09
1.81055e-09
1.81051e-09
1.81048e-09
1.81041e-09
1.81035e-09
1.81022e-09
1.81012e-09
1.8099e-09
1.80969e-09
1.80935e-09
1.80894e-09
1.80836e-09
1.80749e-09
1.80636e-09
1.80466e-09
1.80253e-09
1.79917e-09
1.79442e-09
1.78935e-09
1.78187e-09
1.77713e-09
1.81911e-09
1.82352e-09
1.83155e-09
1.83684e-09
1.8418e-09
1.84537e-09
1.84756e-09
1.84935e-09
1.85052e-09
1.85143e-09
1.85204e-09
1.85247e-09
1.85283e-09
1.85305e-09
1.85327e-09
1.85338e-09
1.85351e-09
1.85357e-09
1.85365e-09
1.85367e-09
1.85372e-09
1.85373e-09
1.85375e-09
1.85375e-09
1.85376e-09
1.85376e-09
1.85375e-09
1.85375e-09
1.85373e-09
1.85372e-09
1.85367e-09
1.85365e-09
1.85357e-09
1.85351e-09
1.85338e-09
1.85327e-09
1.85305e-09
1.85282e-09
1.85247e-09
1.85205e-09
1.85143e-09
1.85052e-09
1.84935e-09
1.84756e-09
1.84536e-09
1.8418e-09
1.83685e-09
1.83155e-09
1.82352e-09
1.81911e-09
1.86379e-09
1.86863e-09
1.87732e-09
1.88285e-09
1.88812e-09
1.892e-09
1.89433e-09
1.89626e-09
1.8975e-09
1.89848e-09
1.89913e-09
1.89959e-09
1.89996e-09
1.9002e-09
1.90043e-09
1.90055e-09
1.90069e-09
1.90075e-09
1.90083e-09
1.90086e-09
1.9009e-09
1.90091e-09
1.90094e-09
1.90094e-09
1.90095e-09
1.90095e-09
1.90094e-09
1.90094e-09
1.90091e-09
1.9009e-09
1.90086e-09
1.90083e-09
1.90075e-09
1.90069e-09
1.90054e-09
1.90043e-09
1.90019e-09
1.89996e-09
1.89959e-09
1.89913e-09
1.89848e-09
1.8975e-09
1.89625e-09
1.89432e-09
1.892e-09
1.88812e-09
1.88286e-09
1.87732e-09
1.86863e-09
1.86379e-09
1.91307e-09
1.91836e-09
1.92698e-09
1.93277e-09
1.93835e-09
1.94246e-09
1.94487e-09
1.94691e-09
1.9482e-09
1.94924e-09
1.94992e-09
1.9504e-09
1.95079e-09
1.95103e-09
1.95128e-09
1.9514e-09
1.95155e-09
1.9516e-09
1.95169e-09
1.95172e-09
1.95177e-09
1.95178e-09
1.9518e-09
1.9518e-09
1.95181e-09
1.95181e-09
1.9518e-09
1.9518e-09
1.95178e-09
1.95177e-09
1.95172e-09
1.95169e-09
1.9516e-09
1.95154e-09
1.95139e-09
1.95127e-09
1.95103e-09
1.95079e-09
1.9504e-09
1.94992e-09
1.94924e-09
1.9482e-09
1.94691e-09
1.94487e-09
1.94246e-09
1.93835e-09
1.93278e-09
1.92698e-09
1.91837e-09
1.91308e-09
1.96584e-09
1.97152e-09
1.98108e-09
1.98734e-09
1.9935e-09
1.99797e-09
2.00052e-09
2.00273e-09
2.00409e-09
2.00522e-09
2.00593e-09
2.00645e-09
2.00686e-09
2.00712e-09
2.00738e-09
2.00751e-09
2.00767e-09
2.00773e-09
2.00782e-09
2.00785e-09
2.0079e-09
2.00791e-09
2.00794e-09
2.00794e-09
2.00795e-09
2.00795e-09
2.00794e-09
2.00794e-09
2.00791e-09
2.0079e-09
2.00785e-09
2.00782e-09
2.00772e-09
2.00767e-09
2.0075e-09
2.00738e-09
2.00712e-09
2.00686e-09
2.00645e-09
2.00594e-09
2.00521e-09
2.00409e-09
2.00272e-09
2.00052e-09
1.99797e-09
1.9935e-09
1.98734e-09
1.98108e-09
1.97152e-09
1.96584e-09
2.02445e-09
2.03063e-09
2.04104e-09
2.04765e-09
2.05316e-09
2.05793e-09
2.0606e-09
2.06294e-09
2.06437e-09
2.06557e-09
2.06632e-09
2.06687e-09
2.0673e-09
2.06757e-09
2.06785e-09
2.06797e-09
2.06815e-09
2.0682e-09
2.06831e-09
2.06833e-09
2.06839e-09
2.0684e-09
2.06843e-09
2.06843e-09
2.06844e-09
2.06844e-09
2.06843e-09
2.06843e-09
2.0684e-09
2.06839e-09
2.06833e-09
2.06831e-09
2.0682e-09
2.06814e-09
2.06797e-09
2.06784e-09
2.06757e-09
2.0673e-09
2.06687e-09
2.06633e-09
2.06556e-09
2.06437e-09
2.06294e-09
2.06059e-09
2.05793e-09
2.05316e-09
2.04765e-09
2.04105e-09
2.03063e-09
2.02445e-09
2.08736e-09
2.094e-09
2.10538e-09
2.11241e-09
2.11846e-09
2.12357e-09
2.12638e-09
2.12888e-09
2.13038e-09
2.13166e-09
2.13246e-09
2.13303e-09
2.1335e-09
2.13377e-09
2.13407e-09
2.1342e-09
2.13438e-09
2.13444e-09
2.13455e-09
2.13457e-09
2.13463e-09
2.13464e-09
2.13467e-09
2.13468e-09
2.13469e-09
2.13469e-09
2.13468e-09
2.13467e-09
2.13464e-09
2.13464e-09
2.13457e-09
2.13455e-09
2.13444e-09
2.13438e-09
2.1342e-09
2.13406e-09
2.13377e-09
2.13349e-09
2.13303e-09
2.13247e-09
2.13165e-09
2.13038e-09
2.12888e-09
2.12638e-09
2.12357e-09
2.11846e-09
2.11242e-09
2.10538e-09
2.094e-09
2.08736e-09
2.15723e-09
2.16447e-09
2.17608e-09
2.18359e-09
2.19009e-09
2.19558e-09
2.19855e-09
2.20121e-09
2.20279e-09
2.20415e-09
2.205e-09
2.2056e-09
2.20609e-09
2.20638e-09
2.2067e-09
2.20683e-09
2.20702e-09
2.20709e-09
2.2072e-09
2.20722e-09
2.20729e-09
2.2073e-09
2.20733e-09
2.20733e-09
2.20734e-09
2.20734e-09
2.20733e-09
2.20733e-09
2.2073e-09
2.20729e-09
2.20723e-09
2.2072e-09
2.20709e-09
2.20702e-09
2.20683e-09
2.20669e-09
2.20638e-09
2.20609e-09
2.20561e-09
2.20501e-09
2.20414e-09
2.20279e-09
2.20121e-09
2.19855e-09
2.19558e-09
2.19008e-09
2.1836e-09
2.17608e-09
2.16447e-09
2.15723e-09
2.23319e-09
2.24107e-09
2.25382e-09
2.26194e-09
2.26886e-09
2.27478e-09
2.27795e-09
2.28091e-09
2.28264e-09
2.28414e-09
2.28507e-09
2.28573e-09
2.28627e-09
2.28658e-09
2.28692e-09
2.28707e-09
2.28728e-09
2.28735e-09
2.28747e-09
2.2875e-09
2.28757e-09
2.28757e-09
2.28761e-09
2.28761e-09
2.28763e-09
2.28763e-09
2.28761e-09
2.28761e-09
2.28758e-09
2.28757e-09
2.2875e-09
2.28747e-09
2.28735e-09
2.28728e-09
2.28707e-09
2.28692e-09
2.28658e-09
2.28627e-09
2.28573e-09
2.28508e-09
2.28413e-09
2.28264e-09
2.2809e-09
2.27795e-09
2.27478e-09
2.26886e-09
2.26194e-09
2.25383e-09
2.24108e-09
2.2332e-09
2.31705e-09
2.32568e-09
2.33957e-09
2.34839e-09
2.35576e-09
2.36213e-09
2.36553e-09
2.36868e-09
2.37051e-09
2.37211e-09
2.37311e-09
2.37381e-09
2.37438e-09
2.37471e-09
2.37507e-09
2.37522e-09
2.37545e-09
2.37551e-09
2.37565e-09
2.37567e-09
2.37575e-09
2.37576e-09
2.3758e-09
2.3758e-09
2.37581e-09
2.37581e-09
2.3758e-09
2.3758e-09
2.37576e-09
2.37575e-09
2.37567e-09
2.37565e-09
2.37551e-09
2.37545e-09
2.37522e-09
2.37507e-09
2.3747e-09
2.37438e-09
2.37381e-09
2.37312e-09
2.3721e-09
2.37051e-09
2.36868e-09
2.36553e-09
2.36213e-09
2.35576e-09
2.34839e-09
2.33957e-09
2.32568e-09
2.31705e-09
2.40982e-09
2.41929e-09
2.43446e-09
2.44407e-09
2.45193e-09
2.4588e-09
2.46246e-09
2.46585e-09
2.4678e-09
2.46951e-09
2.47058e-09
2.47133e-09
2.47194e-09
2.47228e-09
2.47268e-09
2.47283e-09
2.47308e-09
2.47314e-09
2.47329e-09
2.47331e-09
2.4734e-09
2.4734e-09
2.47344e-09
2.47344e-09
2.47346e-09
2.47346e-09
2.47344e-09
2.47344e-09
2.4734e-09
2.4734e-09
2.47331e-09
2.47329e-09
2.47314e-09
2.47308e-09
2.47283e-09
2.47267e-09
2.47228e-09
2.47194e-09
2.47133e-09
2.47059e-09
2.4695e-09
2.4678e-09
2.46584e-09
2.46246e-09
2.4588e-09
2.45193e-09
2.44407e-09
2.43447e-09
2.4193e-09
2.40983e-09
2.51279e-09
2.52318e-09
2.53984e-09
2.55033e-09
2.55873e-09
2.56616e-09
2.57011e-09
2.57379e-09
2.57587e-09
2.57772e-09
2.57886e-09
2.57967e-09
2.58033e-09
2.58069e-09
2.58111e-09
2.58128e-09
2.58154e-09
2.58161e-09
2.58177e-09
2.58179e-09
2.58188e-09
2.58188e-09
2.58193e-09
2.58193e-09
2.58194e-09
2.58194e-09
2.58193e-09
2.58193e-09
2.58188e-09
2.58188e-09
2.58179e-09
2.58177e-09
2.58161e-09
2.58154e-09
2.58127e-09
2.58111e-09
2.58068e-09
2.58033e-09
2.57967e-09
2.57888e-09
2.57771e-09
2.57586e-09
2.57378e-09
2.57011e-09
2.56616e-09
2.55873e-09
2.55033e-09
2.53985e-09
2.52319e-09
2.51279e-09
2.62765e-09
2.63939e-09
2.65732e-09
2.66877e-09
2.67782e-09
2.68585e-09
2.69013e-09
2.69414e-09
2.69637e-09
2.69838e-09
2.69961e-09
2.70048e-09
2.70119e-09
2.70157e-09
2.70203e-09
2.7022e-09
2.70249e-09
2.70256e-09
2.70273e-09
2.70275e-09
2.70285e-09
2.70285e-09
2.7029e-09
2.7029e-09
2.70292e-09
2.70292e-09
2.7029e-09
2.70291e-09
2.70286e-09
2.70285e-09
2.70276e-09
2.70273e-09
2.70256e-09
2.70249e-09
2.7022e-09
2.70203e-09
2.70157e-09
2.70119e-09
2.70049e-09
2.69963e-09
2.69836e-09
2.69637e-09
2.69414e-09
2.69013e-09
2.68586e-09
2.67781e-09
2.66878e-09
2.65733e-09
2.6394e-09
2.62766e-09
2.75599e-09
2.76888e-09
2.78881e-09
2.80134e-09
2.8111e-09
2.81986e-09
2.8245e-09
2.82889e-09
2.83128e-09
2.83346e-09
2.8348e-09
2.83574e-09
2.83652e-09
2.83692e-09
2.83742e-09
2.8376e-09
2.83792e-09
2.83798e-09
2.83817e-09
2.83819e-09
2.8383e-09
2.8383e-09
2.83836e-09
2.83835e-09
2.83837e-09
2.83837e-09
2.83835e-09
2.83836e-09
2.8383e-09
2.8383e-09
2.83819e-09
2.83818e-09
2.83798e-09
2.83791e-09
2.8376e-09
2.83742e-09
2.83691e-09
2.83651e-09
2.83575e-09
2.83482e-09
2.83344e-09
2.83127e-09
2.82889e-09
2.8245e-09
2.81987e-09
2.8111e-09
2.80135e-09
2.78882e-09
2.76889e-09
2.756e-09
2.90014e-09
2.9144e-09
2.93658e-09
2.95034e-09
2.96091e-09
2.97051e-09
2.97552e-09
2.98037e-09
2.98294e-09
2.98532e-09
2.98678e-09
)
;

boundaryField
{
    fuel
    {
        type            fixedValue;
        value           nonuniform 0();
    }
    wall
    {
        type            zeroGradient;
    }
    outlet
    {
        type            zeroGradient;
    }
    frontAndBack
    {
        type            empty;
    }
    procBoundary2to0
    {
        type            processor;
        value           nonuniform List<scalar> 
53
(
1.41279e-09
1.41677e-09
1.42002e-09
1.42223e-09
1.42351e-09
1.42454e-09
1.42497e-09
1.42537e-09
1.42557e-09
1.42578e-09
1.42589e-09
1.42603e-09
1.42609e-09
1.42618e-09
1.42621e-09
1.42627e-09
1.42629e-09
1.42633e-09
1.41855e-09
1.41855e-09
1.41857e-09
1.41858e-09
1.41859e-09
1.41859e-09
1.4186e-09
1.4186e-09
1.4186e-09
1.4186e-09
1.41859e-09
1.41243e-09
1.41243e-09
1.41242e-09
1.41241e-09
1.41239e-09
1.41237e-09
1.41233e-09
1.41231e-09
1.41225e-09
1.4122e-09
1.41211e-09
1.41203e-09
1.41188e-09
1.40712e-09
1.40712e-09
1.40686e-09
1.40657e-09
1.40609e-09
1.4055e-09
1.40443e-09
1.40292e-09
1.40065e-09
1.39751e-09
1.39394e-09
)
;
    }
    procBoundary2to3
    {
        type            processor;
        value           nonuniform List<scalar> 
51
(
2.9878e-09
2.98865e-09
2.98908e-09
2.98963e-09
2.98981e-09
2.99016e-09
2.99023e-09
2.99044e-09
2.99046e-09
2.99058e-09
2.99057e-09
2.99063e-09
2.99063e-09
2.99065e-09
2.99065e-09
2.99063e-09
2.99064e-09
2.99057e-09
2.99058e-09
2.99046e-09
2.99044e-09
2.99023e-09
2.99016e-09
2.98981e-09
2.98962e-09
2.98907e-09
2.98865e-09
2.98782e-09
2.98681e-09
2.98531e-09
2.98293e-09
2.98037e-09
2.97553e-09
2.97052e-09
2.96091e-09
2.95036e-09
2.9366e-09
2.91441e-09
2.90016e-09
3.06269e-09
3.0785e-09
3.10332e-09
3.11846e-09
3.12992e-09
3.14049e-09
3.14593e-09
3.15129e-09
3.15405e-09
3.15667e-09
2.9878e-09
3.15826e-09
)
;
    }
}


// ************************************************************************* //
