/*--------------------------------*- C++ -*----------------------------------*\
| =========                 |                                                 |
| \\      /  F ield         | OpenFOAM: The Open Source CFD Toolbox           |
|  \\    /   O peration     | Version:  dev                                   |
|   \\  /    A nd           | Web:      www.OpenFOAM.org                      |
|    \\/     M anipulation  |                                                 |
\*---------------------------------------------------------------------------*/
FoamFile
{
    version     2.0;
    format      ascii;
    class       volScalarField;
    location    "0.085";
    object      CH2(S);
}
// * * * * * * * * * * * * * * * * * * * * * * * * * * * * * * * * * * * * * //

dimensions      [0 0 0 0 0 0 0];

internalField   nonuniform List<scalar> 
1997
(
1.65423e-08
1.65613e-08
1.65247e-08
1.6502e-08
1.64625e-08
1.64395e-08
1.64133e-08
1.63954e-08
1.63797e-08
1.63695e-08
1.63605e-08
1.63552e-08
1.63499e-08
1.63472e-08
1.63441e-08
1.63429e-08
1.63411e-08
1.63406e-08
1.59879e-08
1.60036e-08
1.59635e-08
1.59385e-08
1.58973e-08
1.58732e-08
1.58466e-08
1.58284e-08
1.58126e-08
1.58023e-08
1.57932e-08
1.57879e-08
1.57826e-08
1.57799e-08
1.57768e-08
1.57756e-08
1.57738e-08
1.57733e-08
1.57722e-08
1.5772e-08
1.57714e-08
1.57713e-08
1.5771e-08
1.5771e-08
1.57709e-08
1.57709e-08
1.5771e-08
1.5771e-08
1.54298e-08
1.54422e-08
1.53987e-08
1.53716e-08
1.53287e-08
1.53035e-08
1.52766e-08
1.52581e-08
1.52423e-08
1.52319e-08
1.52229e-08
1.52175e-08
1.52123e-08
1.52096e-08
1.52065e-08
1.52052e-08
1.52034e-08
1.52029e-08
1.52018e-08
1.52017e-08
1.5201e-08
1.5201e-08
1.52007e-08
1.52007e-08
1.52005e-08
1.52005e-08
1.52007e-08
1.52007e-08
1.5201e-08
1.5201e-08
1.52017e-08
1.52018e-08
1.52029e-08
1.52034e-08
1.52053e-08
1.52065e-08
1.52096e-08
1.52123e-08
1.52176e-08
1.52229e-08
1.48687e-08
1.48778e-08
1.48311e-08
1.4802e-08
1.47573e-08
1.47313e-08
1.47041e-08
1.46854e-08
1.46696e-08
1.46592e-08
1.46502e-08
1.46448e-08
1.46395e-08
1.46369e-08
1.46338e-08
1.46325e-08
1.46307e-08
1.46302e-08
1.46291e-08
1.4629e-08
1.46283e-08
1.46283e-08
1.4628e-08
1.4628e-08
1.46279e-08
1.46279e-08
1.4628e-08
1.4628e-08
1.46283e-08
1.46283e-08
1.4629e-08
1.46292e-08
1.46302e-08
1.46307e-08
1.46326e-08
1.46338e-08
1.46369e-08
1.46396e-08
1.46448e-08
1.46502e-08
1.46592e-08
1.46696e-08
1.46855e-08
1.47041e-08
1.47313e-08
1.47573e-08
1.4802e-08
1.4831e-08
1.48778e-08
1.48687e-08
1.43053e-08
1.43112e-08
1.42613e-08
1.42305e-08
1.41841e-08
1.41574e-08
1.41299e-08
1.41111e-08
1.40953e-08
1.40849e-08
1.40759e-08
1.40705e-08
1.40653e-08
1.40627e-08
1.40596e-08
1.40583e-08
1.40565e-08
1.4056e-08
1.4055e-08
1.40548e-08
1.40542e-08
1.40541e-08
1.40538e-08
1.40538e-08
1.40537e-08
1.40537e-08
1.40538e-08
1.40538e-08
1.40541e-08
1.40542e-08
1.40548e-08
1.4055e-08
1.40561e-08
1.40566e-08
1.40584e-08
1.40596e-08
1.40627e-08
1.40654e-08
1.40706e-08
1.40759e-08
1.40849e-08
1.40953e-08
1.41111e-08
1.413e-08
1.41574e-08
1.41841e-08
1.42305e-08
1.42613e-08
1.43112e-08
1.43053e-08
1.37316e-08
1.37354e-08
1.36824e-08
1.36494e-08
1.35999e-08
1.35724e-08
1.35442e-08
1.35249e-08
1.35089e-08
1.34983e-08
1.34892e-08
1.34838e-08
1.34786e-08
1.34759e-08
1.34728e-08
1.34715e-08
1.34697e-08
1.34692e-08
1.34681e-08
1.34679e-08
1.34673e-08
1.34673e-08
1.34669e-08
1.34669e-08
1.34668e-08
1.34668e-08
1.34669e-08
1.34669e-08
1.34673e-08
1.34673e-08
1.3468e-08
1.34681e-08
1.34692e-08
1.34697e-08
1.34716e-08
1.34728e-08
1.34759e-08
1.34786e-08
1.34839e-08
1.34893e-08
1.34983e-08
1.35089e-08
1.35249e-08
1.35442e-08
1.35724e-08
1.35999e-08
1.36494e-08
1.36823e-08
1.37353e-08
1.37316e-08
1.31656e-08
1.31662e-08
1.31104e-08
1.30759e-08
1.3025e-08
1.29969e-08
1.29686e-08
1.29493e-08
1.29334e-08
1.29228e-08
1.29139e-08
1.29085e-08
1.29033e-08
1.29006e-08
1.28975e-08
1.28963e-08
1.28945e-08
1.2894e-08
1.28929e-08
1.28927e-08
1.28921e-08
1.28921e-08
1.28918e-08
1.28918e-08
1.28916e-08
1.28916e-08
1.28918e-08
1.28918e-08
1.28921e-08
1.28921e-08
1.28927e-08
1.28929e-08
1.2894e-08
1.28945e-08
1.28963e-08
1.28976e-08
1.29006e-08
1.29033e-08
1.29085e-08
1.29139e-08
1.29228e-08
1.29334e-08
1.29493e-08
1.29687e-08
1.2997e-08
1.3025e-08
1.30759e-08
1.31104e-08
1.31662e-08
1.31656e-08
1.25998e-08
1.25974e-08
1.25389e-08
1.25029e-08
1.24509e-08
1.24224e-08
1.23938e-08
1.23738e-08
1.23575e-08
1.23466e-08
1.23375e-08
1.2332e-08
1.23267e-08
1.2324e-08
1.23208e-08
1.23196e-08
1.23178e-08
1.23173e-08
1.23162e-08
1.2316e-08
1.23154e-08
1.23153e-08
1.2315e-08
1.2315e-08
1.23149e-08
1.23149e-08
1.2315e-08
1.2315e-08
1.23153e-08
1.23154e-08
1.2316e-08
1.23162e-08
1.23173e-08
1.23178e-08
1.23196e-08
1.23209e-08
1.2324e-08
1.23267e-08
1.2332e-08
1.23375e-08
1.23466e-08
1.23575e-08
1.23738e-08
1.23938e-08
1.24224e-08
1.24509e-08
1.25029e-08
1.25389e-08
1.25974e-08
1.25998e-08
1.20353e-08
1.203e-08
1.19691e-08
1.19316e-08
1.18788e-08
1.18499e-08
1.18213e-08
1.18013e-08
1.17852e-08
1.17744e-08
1.17654e-08
1.176e-08
1.17547e-08
1.17521e-08
1.1749e-08
1.17477e-08
1.17459e-08
1.17454e-08
1.17443e-08
1.17442e-08
1.17436e-08
1.17435e-08
1.17432e-08
1.17432e-08
1.17431e-08
1.17431e-08
1.17432e-08
1.17432e-08
1.17435e-08
1.17436e-08
1.17442e-08
1.17444e-08
1.17454e-08
1.17459e-08
1.17478e-08
1.1749e-08
1.17521e-08
1.17548e-08
1.176e-08
1.17654e-08
1.17744e-08
1.17852e-08
1.18013e-08
1.18213e-08
1.18499e-08
1.18788e-08
1.19316e-08
1.1969e-08
1.203e-08
1.20353e-08
1.14648e-08
1.14579e-08
1.13944e-08
1.13555e-08
1.13009e-08
1.12714e-08
1.12423e-08
1.1222e-08
1.12059e-08
1.1195e-08
1.1186e-08
1.11806e-08
1.11753e-08
1.11727e-08
1.11696e-08
1.11684e-08
1.11665e-08
1.11661e-08
1.1165e-08
1.11648e-08
1.11642e-08
1.11641e-08
1.11638e-08
1.11638e-08
1.11637e-08
1.11637e-08
1.11638e-08
1.11638e-08
1.11641e-08
1.11642e-08
1.11648e-08
1.1165e-08
1.11661e-08
1.11666e-08
1.11684e-08
1.11696e-08
1.11727e-08
1.11754e-08
1.11806e-08
1.1186e-08
1.1195e-08
1.12059e-08
1.1222e-08
1.12423e-08
1.12714e-08
1.13009e-08
1.13555e-08
1.13944e-08
1.14578e-08
1.14647e-08
1.08885e-08
1.08784e-08
1.08133e-08
1.0773e-08
1.07184e-08
1.06886e-08
1.06597e-08
1.06396e-08
1.06237e-08
1.0613e-08
1.06042e-08
1.05989e-08
1.05937e-08
1.05911e-08
1.05881e-08
1.05869e-08
1.05851e-08
1.05846e-08
1.05836e-08
1.05834e-08
1.05828e-08
1.05828e-08
1.05824e-08
1.05824e-08
1.05823e-08
1.05823e-08
1.05824e-08
1.05824e-08
1.05828e-08
1.05828e-08
1.05834e-08
1.05836e-08
1.05847e-08
1.05851e-08
1.05869e-08
1.05881e-08
1.05912e-08
1.05938e-08
1.05989e-08
1.06042e-08
1.0613e-08
1.06238e-08
1.06396e-08
1.06598e-08
1.06886e-08
1.07184e-08
1.0773e-08
1.08132e-08
1.08783e-08
1.08884e-08
1.03331e-08
1.03204e-08
1.02536e-08
1.02122e-08
1.01577e-08
1.01277e-08
1.00991e-08
1.00791e-08
1.00636e-08
1.00529e-08
1.00444e-08
1.00391e-08
1.00341e-08
1.00315e-08
1.00286e-08
1.00274e-08
1.00256e-08
1.00252e-08
1.00241e-08
1.0024e-08
1.00234e-08
1.00233e-08
1.0023e-08
1.0023e-08
1.00229e-08
1.00229e-08
1.0023e-08
1.0023e-08
1.00233e-08
1.00234e-08
1.0024e-08
1.00241e-08
1.00252e-08
1.00256e-08
1.00274e-08
1.00286e-08
1.00316e-08
1.00341e-08
1.00391e-08
1.00444e-08
1.00529e-08
1.00636e-08
1.00791e-08
1.00991e-08
1.01277e-08
1.01577e-08
1.02122e-08
1.02535e-08
1.03204e-08
1.03331e-08
9.78344e-09
9.7683e-09
9.6999e-09
9.65766e-09
9.60363e-09
9.57344e-09
9.54507e-09
9.52528e-09
9.51012e-09
9.49964e-09
9.4913e-09
9.48617e-09
9.48127e-09
9.47877e-09
9.47585e-09
9.47473e-09
9.473e-09
9.47255e-09
9.47153e-09
9.47139e-09
9.47079e-09
9.47077e-09
9.47045e-09
9.47046e-09
9.47036e-09
9.47036e-09
9.47046e-09
9.47045e-09
9.47077e-09
9.47079e-09
9.4714e-09
9.47154e-09
9.47257e-09
9.47302e-09
9.47476e-09
9.47589e-09
9.47881e-09
9.48131e-09
9.4862e-09
9.49133e-09
9.49966e-09
9.51014e-09
9.52529e-09
9.54509e-09
9.57345e-09
9.60364e-09
9.65765e-09
9.69988e-09
9.76827e-09
9.78341e-09
9.2408e-09
9.22338e-09
9.15372e-09
9.11071e-09
9.05748e-09
9.02709e-09
8.99925e-09
8.97965e-09
8.96489e-09
8.95461e-09
8.94652e-09
8.94152e-09
8.93674e-09
8.93431e-09
8.93147e-09
8.93038e-09
8.92869e-09
8.92826e-09
8.92726e-09
8.92713e-09
8.92655e-09
8.92653e-09
8.92622e-09
8.92623e-09
8.92613e-09
8.92613e-09
8.92623e-09
8.92622e-09
8.92653e-09
8.92655e-09
8.92714e-09
8.92727e-09
8.92828e-09
8.92871e-09
8.93041e-09
8.93151e-09
8.93435e-09
8.93678e-09
8.94155e-09
8.94654e-09
8.95462e-09
8.96492e-09
8.97966e-09
8.99927e-09
9.0271e-09
9.05749e-09
9.1107e-09
9.1537e-09
9.22336e-09
9.24077e-09
8.6961e-09
8.67617e-09
8.60448e-09
8.56007e-09
8.5073e-09
8.47638e-09
8.4488e-09
8.4292e-09
8.41475e-09
8.40456e-09
8.39667e-09
8.39175e-09
8.38708e-09
8.38469e-09
8.38191e-09
8.38084e-09
8.37918e-09
8.37876e-09
8.37778e-09
8.37765e-09
8.37708e-09
8.37706e-09
8.37676e-09
8.37677e-09
8.37667e-09
8.37667e-09
8.37677e-09
8.37676e-09
8.37706e-09
8.37708e-09
8.37766e-09
8.37779e-09
8.37878e-09
8.3792e-09
8.38087e-09
8.38194e-09
8.38473e-09
8.38711e-09
8.39178e-09
8.39669e-09
8.40457e-09
8.41477e-09
8.4292e-09
8.44881e-09
8.47639e-09
8.5073e-09
8.56007e-09
8.60446e-09
8.67614e-09
8.69606e-09
8.15537e-09
8.13301e-09
8.06098e-09
8.01606e-09
7.96473e-09
7.93394e-09
7.90709e-09
7.88783e-09
7.87393e-09
7.864e-09
7.85644e-09
7.85168e-09
7.84718e-09
7.84488e-09
7.8422e-09
7.84116e-09
7.83956e-09
7.83916e-09
7.83821e-09
7.83808e-09
7.83753e-09
7.83752e-09
7.83723e-09
7.83724e-09
7.83714e-09
7.83714e-09
7.83724e-09
7.83722e-09
7.83752e-09
7.83753e-09
7.83809e-09
7.83822e-09
7.83917e-09
7.83958e-09
7.84119e-09
7.84223e-09
7.84491e-09
7.84722e-09
7.8517e-09
7.85646e-09
7.86401e-09
7.87396e-09
7.88783e-09
7.9071e-09
7.93394e-09
7.96474e-09
8.01605e-09
8.06096e-09
8.13297e-09
8.15533e-09
7.64054e-09
7.61634e-09
7.54392e-09
7.49874e-09
7.44869e-09
7.4182e-09
7.39201e-09
7.3732e-09
7.35982e-09
7.35016e-09
7.34291e-09
7.33832e-09
7.33399e-09
7.33178e-09
7.32919e-09
7.3282e-09
7.32665e-09
7.32626e-09
7.32535e-09
7.32523e-09
7.3247e-09
7.32469e-09
7.3244e-09
7.32442e-09
7.32432e-09
7.32432e-09
7.32442e-09
7.3244e-09
7.32468e-09
7.3247e-09
7.32523e-09
7.32535e-09
7.32628e-09
7.32667e-09
7.32822e-09
7.32922e-09
7.33181e-09
7.33403e-09
7.33834e-09
7.34293e-09
7.35016e-09
7.35985e-09
7.3732e-09
7.39202e-09
7.41821e-09
7.4487e-09
7.49873e-09
7.5439e-09
7.6163e-09
7.64051e-09
7.12975e-09
7.10499e-09
7.03246e-09
6.98696e-09
6.93798e-09
6.90752e-09
6.88182e-09
6.86323e-09
6.85019e-09
6.84067e-09
6.83369e-09
6.82921e-09
6.82501e-09
6.82286e-09
6.82034e-09
6.81939e-09
6.81787e-09
6.81751e-09
6.81661e-09
6.81651e-09
6.81598e-09
6.81598e-09
6.8157e-09
6.81572e-09
6.81563e-09
6.81563e-09
6.81572e-09
6.8157e-09
6.81598e-09
6.81598e-09
6.81651e-09
6.81662e-09
6.81752e-09
6.81789e-09
6.81941e-09
6.82037e-09
6.82289e-09
6.82504e-09
6.82924e-09
6.83369e-09
6.84067e-09
6.85021e-09
6.86322e-09
6.88182e-09
6.90752e-09
6.93798e-09
6.98694e-09
7.03243e-09
7.10495e-09
7.1297e-09
6.6402e-09
6.61402e-09
6.54216e-09
6.49622e-09
6.44862e-09
6.41863e-09
6.39407e-09
6.376e-09
6.36346e-09
6.35427e-09
6.34763e-09
6.34334e-09
6.33932e-09
6.33727e-09
6.33486e-09
6.33395e-09
6.3325e-09
6.33216e-09
6.3313e-09
6.3312e-09
6.3307e-09
6.3307e-09
6.33043e-09
6.33045e-09
6.33036e-09
6.33036e-09
6.33045e-09
6.33043e-09
6.33069e-09
6.3307e-09
6.3312e-09
6.3313e-09
6.33217e-09
6.33252e-09
6.33398e-09
6.33489e-09
6.3373e-09
6.33935e-09
6.34336e-09
6.34763e-09
6.35427e-09
6.36348e-09
6.37599e-09
6.39407e-09
6.41863e-09
6.44863e-09
6.49621e-09
6.54213e-09
6.61398e-09
6.64016e-09
6.1539e-09
6.12662e-09
6.05625e-09
6.00893e-09
5.96253e-09
5.93296e-09
5.90938e-09
5.89185e-09
5.87971e-09
5.87082e-09
5.86448e-09
5.86036e-09
5.85651e-09
5.85455e-09
5.85223e-09
5.85137e-09
5.84998e-09
5.84965e-09
5.84882e-09
5.84873e-09
5.84824e-09
5.84824e-09
5.84799e-09
5.84801e-09
5.84792e-09
5.84792e-09
5.848e-09
5.84799e-09
5.84824e-09
5.84824e-09
5.84873e-09
5.84882e-09
5.84966e-09
5.84999e-09
5.85139e-09
5.85226e-09
5.85458e-09
5.85654e-09
5.86038e-09
5.86448e-09
5.87082e-09
5.87973e-09
5.89184e-09
5.90938e-09
5.93296e-09
5.96253e-09
6.00891e-09
6.05622e-09
6.12659e-09
6.15385e-09
5.68126e-09
5.6526e-09
5.58556e-09
5.54936e-09
5.50442e-09
5.47575e-09
5.45328e-09
5.43649e-09
5.42488e-09
5.41637e-09
5.41038e-09
5.40647e-09
5.40283e-09
5.40097e-09
5.39877e-09
5.39796e-09
5.39664e-09
5.39633e-09
5.39554e-09
5.39546e-09
5.395e-09
5.395e-09
5.39476e-09
5.39477e-09
5.39469e-09
5.39469e-09
5.39477e-09
5.39475e-09
5.395e-09
5.395e-09
5.39546e-09
5.39554e-09
5.39634e-09
5.39665e-09
5.39798e-09
5.3988e-09
5.401e-09
5.40285e-09
5.40648e-09
5.41038e-09
5.41637e-09
5.42489e-09
5.43647e-09
5.45328e-09
5.47575e-09
5.50442e-09
5.54934e-09
5.58553e-09
5.65257e-09
5.68121e-09
5.23829e-09
5.20867e-09
5.14386e-09
5.10729e-09
5.06381e-09
5.03626e-09
5.01484e-09
4.99894e-09
4.98783e-09
4.97977e-09
4.97412e-09
4.97041e-09
4.96687e-09
4.96507e-09
4.96292e-09
4.96214e-09
4.96084e-09
4.96055e-09
4.95978e-09
4.95971e-09
4.95926e-09
4.95926e-09
4.95902e-09
4.95904e-09
4.95896e-09
4.95896e-09
4.95904e-09
4.95902e-09
4.95926e-09
4.95925e-09
4.95971e-09
4.95978e-09
4.96056e-09
4.96086e-09
4.96216e-09
4.96295e-09
4.96509e-09
4.96689e-09
4.97043e-09
4.97412e-09
4.97976e-09
4.98785e-09
4.99893e-09
5.01484e-09
5.03626e-09
5.06381e-09
5.10728e-09
5.14383e-09
5.20863e-09
5.23825e-09
4.80565e-09
4.7733e-09
4.71011e-09
4.67403e-09
4.6318e-09
4.60541e-09
4.58497e-09
4.56991e-09
4.55928e-09
4.55166e-09
4.54631e-09
4.5428e-09
4.53946e-09
4.53776e-09
4.53574e-09
4.535e-09
4.53377e-09
4.5335e-09
4.53277e-09
4.5327e-09
4.53228e-09
4.53228e-09
4.53206e-09
4.53207e-09
4.532e-09
4.532e-09
4.53207e-09
4.53205e-09
4.53228e-09
4.53227e-09
4.5327e-09
4.53277e-09
4.53351e-09
4.53379e-09
4.53502e-09
4.53576e-09
4.53779e-09
4.53949e-09
4.54281e-09
4.54631e-09
4.55165e-09
4.5593e-09
4.56989e-09
4.58497e-09
4.60542e-09
4.6318e-09
4.67401e-09
4.71008e-09
4.77326e-09
4.80561e-09
4.38777e-09
4.36573e-09
4.30408e-09
4.26919e-09
4.2288e-09
4.20361e-09
4.18434e-09
4.17014e-09
4.16011e-09
4.15302e-09
4.14798e-09
4.1447e-09
4.14158e-09
4.14e-09
4.1381e-09
4.13741e-09
4.13626e-09
4.13601e-09
4.13532e-09
4.13526e-09
4.13486e-09
4.13487e-09
4.13466e-09
4.13468e-09
4.13461e-09
4.13461e-09
4.13467e-09
4.13465e-09
4.13487e-09
4.13486e-09
4.13526e-09
4.13532e-09
4.13602e-09
4.13627e-09
4.13743e-09
4.13812e-09
4.14002e-09
4.1416e-09
4.14471e-09
4.14798e-09
4.15301e-09
4.16012e-09
4.17012e-09
4.18434e-09
4.20361e-09
4.22879e-09
4.26917e-09
4.30405e-09
4.36569e-09
4.38773e-09
4.0004e-09
3.97786e-09
3.91768e-09
3.88423e-09
3.846e-09
3.82197e-09
3.80396e-09
3.7906e-09
3.78099e-09
3.77414e-09
3.76924e-09
3.76607e-09
3.76307e-09
3.76155e-09
3.75971e-09
3.75906e-09
3.75795e-09
3.75771e-09
3.75704e-09
3.75699e-09
3.7566e-09
3.75661e-09
3.75641e-09
3.75643e-09
3.75636e-09
3.75636e-09
3.75642e-09
3.7564e-09
3.75661e-09
3.7566e-09
3.75699e-09
3.75705e-09
3.75772e-09
3.75796e-09
3.75908e-09
3.75973e-09
3.76157e-09
3.76309e-09
3.76608e-09
3.76924e-09
3.77413e-09
3.78099e-09
3.79059e-09
3.80396e-09
3.82198e-09
3.846e-09
3.88421e-09
3.91765e-09
3.97783e-09
4.00036e-09
3.62691e-09
3.60343e-09
3.54406e-09
3.5118e-09
3.47567e-09
3.45251e-09
3.43572e-09
3.42309e-09
3.41407e-09
3.40769e-09
3.4031e-09
3.40013e-09
3.39735e-09
3.39593e-09
3.39422e-09
3.39361e-09
3.39257e-09
3.39235e-09
3.39173e-09
3.39168e-09
3.39131e-09
3.39132e-09
3.39113e-09
3.39115e-09
3.39109e-09
3.39109e-09
3.39115e-09
3.39113e-09
3.39132e-09
3.39131e-09
3.39168e-09
3.39173e-09
3.39235e-09
3.39258e-09
3.39362e-09
3.39423e-09
3.39594e-09
3.39737e-09
3.40014e-09
3.4031e-09
3.40768e-09
3.41407e-09
3.42308e-09
3.43573e-09
3.45251e-09
3.47567e-09
3.51178e-09
3.54403e-09
3.6034e-09
3.62687e-09
3.27056e-09
3.24692e-09
3.19858e-09
3.1681e-09
3.13441e-09
3.11252e-09
3.09704e-09
3.08525e-09
3.07689e-09
3.071e-09
3.06674e-09
3.064e-09
3.06144e-09
3.06012e-09
3.05854e-09
3.05799e-09
3.05702e-09
3.05682e-09
3.05624e-09
3.0562e-09
3.05587e-09
3.05588e-09
3.0557e-09
3.05572e-09
3.05566e-09
3.05566e-09
3.05572e-09
3.0557e-09
3.05588e-09
3.05586e-09
3.0562e-09
3.05625e-09
3.05683e-09
3.05703e-09
3.058e-09
3.05856e-09
3.06014e-09
3.06145e-09
3.06401e-09
3.06673e-09
3.07098e-09
3.07689e-09
3.08524e-09
3.09705e-09
3.11252e-09
3.13441e-09
3.16809e-09
3.19855e-09
3.2469e-09
3.27052e-09
2.94443e-09
2.92076e-09
2.87235e-09
2.84249e-09
2.81008e-09
2.78905e-09
2.77451e-09
2.76331e-09
2.75553e-09
2.74997e-09
2.74598e-09
2.74342e-09
2.74103e-09
2.7398e-09
2.73833e-09
2.73781e-09
2.73691e-09
2.73672e-09
2.73618e-09
2.73614e-09
2.73583e-09
2.73584e-09
2.73567e-09
2.73569e-09
2.73564e-09
2.73564e-09
2.73569e-09
2.73567e-09
2.73584e-09
2.73582e-09
2.73614e-09
2.73618e-09
2.73673e-09
2.73692e-09
2.73782e-09
2.73834e-09
2.73982e-09
2.74105e-09
2.74343e-09
2.74597e-09
2.74995e-09
2.75553e-09
2.7633e-09
2.77452e-09
2.78904e-09
2.81008e-09
2.84248e-09
2.87233e-09
2.92073e-09
2.9444e-09
2.63239e-09
2.61581e-09
2.56936e-09
2.54151e-09
2.51134e-09
2.49168e-09
2.47847e-09
2.46813e-09
2.46105e-09
2.4559e-09
2.45226e-09
2.44992e-09
2.44775e-09
2.44663e-09
2.44528e-09
2.44481e-09
2.44398e-09
2.44382e-09
2.44332e-09
2.44328e-09
2.443e-09
2.44301e-09
2.44286e-09
2.44287e-09
2.44282e-09
2.44282e-09
2.44287e-09
2.44285e-09
2.44301e-09
2.44299e-09
2.44328e-09
2.44332e-09
2.44382e-09
2.44399e-09
2.44482e-09
2.44529e-09
2.44664e-09
2.44776e-09
2.44993e-09
2.45225e-09
2.45588e-09
2.46105e-09
2.46813e-09
2.47848e-09
2.49167e-09
2.51134e-09
2.54149e-09
2.56934e-09
2.61578e-09
2.63236e-09
2.3483e-09
2.33209e-09
2.28769e-09
2.26209e-09
2.23349e-09
2.21454e-09
2.20226e-09
2.19245e-09
2.1859e-09
2.18102e-09
2.17765e-09
2.17545e-09
2.17344e-09
2.1724e-09
2.17114e-09
2.17071e-09
2.16993e-09
2.16978e-09
2.16931e-09
2.16929e-09
2.16902e-09
2.16903e-09
2.16889e-09
2.1689e-09
2.16886e-09
2.16886e-09
2.1689e-09
2.16888e-09
2.16903e-09
2.16901e-09
2.16929e-09
2.16932e-09
2.16978e-09
2.16994e-09
2.17071e-09
2.17115e-09
2.17241e-09
2.17345e-09
2.17546e-09
2.17764e-09
2.181e-09
2.18591e-09
2.19245e-09
2.20227e-09
2.21453e-09
2.23348e-09
2.26208e-09
2.28766e-09
2.33206e-09
2.34827e-09
2.08016e-09
2.0641e-09
2.02729e-09
2.00398e-09
1.97721e-09
1.9597e-09
1.94869e-09
1.9397e-09
1.93383e-09
1.92933e-09
1.92632e-09
1.92431e-09
1.9225e-09
1.92156e-09
1.92042e-09
1.92003e-09
1.91933e-09
1.9192e-09
1.91877e-09
1.91875e-09
1.9185e-09
1.91852e-09
1.91839e-09
1.9184e-09
1.91836e-09
1.91836e-09
1.9184e-09
1.91838e-09
1.91851e-09
1.9185e-09
1.91875e-09
1.91877e-09
1.9192e-09
1.91933e-09
1.92004e-09
1.92043e-09
1.92157e-09
1.92251e-09
1.92433e-09
1.9263e-09
1.92932e-09
1.93383e-09
1.9397e-09
1.9487e-09
1.95969e-09
1.9772e-09
2.00396e-09
2.02727e-09
2.06408e-09
2.08014e-09
1.83764e-09
1.82229e-09
1.78681e-09
1.76485e-09
1.73906e-09
1.72254e-09
1.71256e-09
1.70416e-09
1.69885e-09
1.69466e-09
1.69192e-09
1.69007e-09
1.68843e-09
1.68757e-09
1.68652e-09
1.68617e-09
1.68552e-09
1.6854e-09
1.68501e-09
1.68499e-09
1.68477e-09
1.68478e-09
1.68466e-09
1.68468e-09
1.68464e-09
1.68464e-09
1.68468e-09
1.68466e-09
1.68478e-09
1.68477e-09
1.68499e-09
1.68501e-09
1.68541e-09
1.68553e-09
1.68618e-09
1.68653e-09
1.68758e-09
1.68844e-09
1.69009e-09
1.69191e-09
1.69465e-09
1.69885e-09
1.70416e-09
1.71256e-09
1.72253e-09
1.73906e-09
1.76483e-09
1.78679e-09
1.82227e-09
1.83761e-09
1.61034e-09
1.59556e-09
1.5622e-09
1.54249e-09
1.52384e-09
1.50869e-09
1.49986e-09
1.49224e-09
1.48752e-09
1.48373e-09
1.48128e-09
1.47962e-09
1.47816e-09
1.47739e-09
1.47645e-09
1.47614e-09
1.47556e-09
1.47545e-09
1.4751e-09
1.47509e-09
1.47488e-09
1.4749e-09
1.47479e-09
1.4748e-09
1.47477e-09
1.47477e-09
1.4748e-09
1.47479e-09
1.4749e-09
1.47488e-09
1.47509e-09
1.4751e-09
1.47546e-09
1.47556e-09
1.47615e-09
1.47646e-09
1.4774e-09
1.47816e-09
1.47963e-09
1.48127e-09
1.48373e-09
1.48752e-09
1.49224e-09
1.49987e-09
1.50868e-09
1.52383e-09
1.54247e-09
1.56218e-09
1.59554e-09
1.61031e-09
1.40771e-09
1.39393e-09
1.3628e-09
1.34515e-09
1.32824e-09
1.31442e-09
1.30668e-09
1.2998e-09
1.29564e-09
1.29223e-09
1.29005e-09
1.28858e-09
1.28728e-09
1.2866e-09
1.28576e-09
1.28549e-09
1.28497e-09
1.28488e-09
1.28456e-09
1.28455e-09
1.28437e-09
1.28438e-09
1.28428e-09
1.2843e-09
1.28427e-09
1.28427e-09
1.2843e-09
1.28428e-09
1.28438e-09
1.28436e-09
1.28455e-09
1.28456e-09
1.28488e-09
1.28497e-09
1.28549e-09
1.28577e-09
1.2866e-09
1.28728e-09
1.28858e-09
1.29004e-09
1.29223e-09
1.29564e-09
1.2998e-09
1.30668e-09
1.31442e-09
1.32824e-09
1.34513e-09
1.36278e-09
1.39391e-09
1.40768e-09
1.22136e-09
1.20848e-09
1.18237e-09
1.16666e-09
1.15149e-09
1.13897e-09
1.13221e-09
1.12606e-09
1.12242e-09
1.11937e-09
1.11745e-09
1.11614e-09
1.115e-09
1.1144e-09
1.11366e-09
1.11342e-09
1.11296e-09
1.11288e-09
1.1126e-09
1.11259e-09
1.11243e-09
1.11244e-09
1.11236e-09
1.11237e-09
1.11234e-09
1.11234e-09
1.11237e-09
1.11236e-09
1.11244e-09
1.11243e-09
1.11259e-09
1.1126e-09
1.11288e-09
1.11296e-09
1.11342e-09
1.11367e-09
1.1144e-09
1.115e-09
1.11615e-09
1.11744e-09
1.11938e-09
1.12241e-09
1.12606e-09
1.13221e-09
1.13897e-09
1.15148e-09
1.16665e-09
1.18235e-09
1.20847e-09
1.22134e-09
1.05583e-09
1.04398e-09
1.0202e-09
1.00619e-09
9.92697e-10
9.81443e-10
9.75511e-10
9.69798e-10
9.66475e-10
9.63657e-10
9.61898e-10
9.60703e-10
9.59654e-10
9.59109e-10
9.58433e-10
9.58217e-10
9.57794e-10
9.57725e-10
9.57469e-10
9.57463e-10
9.57313e-10
9.57327e-10
9.57248e-10
9.5726e-10
9.57233e-10
9.57233e-10
9.57259e-10
9.57246e-10
9.57325e-10
9.57311e-10
9.57462e-10
9.57468e-10
9.57726e-10
9.57797e-10
9.58221e-10
9.5844e-10
9.59116e-10
9.5966e-10
9.60706e-10
9.61886e-10
9.63661e-10
9.66467e-10
9.69798e-10
9.75511e-10
9.8144e-10
9.92693e-10
1.00618e-09
1.02019e-09
1.04396e-09
1.05581e-09
9.0754e-10
8.96651e-10
8.75301e-10
8.62767e-10
8.50891e-10
8.40868e-10
8.35695e-10
8.30678e-10
8.27772e-10
8.25278e-10
8.23742e-10
8.22692e-10
8.21773e-10
8.21298e-10
8.20705e-10
8.20518e-10
8.20145e-10
8.20087e-10
8.19861e-10
8.19858e-10
8.19726e-10
8.19739e-10
8.19669e-10
8.1968e-10
8.19657e-10
8.19656e-10
8.19679e-10
8.19667e-10
8.19737e-10
8.19724e-10
8.19856e-10
8.19861e-10
8.20088e-10
8.20148e-10
8.20522e-10
8.2071e-10
8.21304e-10
8.21778e-10
8.22694e-10
8.2373e-10
8.25285e-10
8.27763e-10
8.30678e-10
8.35695e-10
8.40866e-10
8.50888e-10
8.62757e-10
8.75288e-10
8.96638e-10
9.07524e-10
7.7551e-10
7.6558e-10
7.46553e-10
7.35394e-10
7.25044e-10
7.16189e-10
7.11689e-10
7.07306e-10
7.04782e-10
7.02598e-10
7.01263e-10
7.00347e-10
6.99545e-10
6.99135e-10
6.98617e-10
6.98457e-10
6.98131e-10
6.98083e-10
6.97885e-10
6.97883e-10
6.97768e-10
6.9778e-10
6.97718e-10
6.97728e-10
6.97708e-10
6.97708e-10
6.97728e-10
6.97717e-10
6.97778e-10
6.97765e-10
6.97882e-10
6.97884e-10
6.98083e-10
6.98133e-10
6.9846e-10
6.98621e-10
6.99141e-10
6.99549e-10
7.00348e-10
7.01253e-10
7.02605e-10
7.04774e-10
7.07306e-10
7.11688e-10
7.16186e-10
7.25042e-10
7.35384e-10
7.46542e-10
7.65569e-10
7.75496e-10
6.58695e-10
6.49739e-10
6.32859e-10
6.22992e-10
6.1404e-10
6.0631e-10
6.02395e-10
5.98592e-10
5.96417e-10
5.94513e-10
5.93364e-10
5.92569e-10
5.91874e-10
5.91524e-10
5.91073e-10
5.90937e-10
5.90654e-10
5.90614e-10
5.90442e-10
5.90442e-10
5.90341e-10
5.90353e-10
5.90299e-10
5.90308e-10
5.90291e-10
5.9029e-10
5.90308e-10
5.90298e-10
5.90351e-10
5.90339e-10
5.90441e-10
5.90442e-10
5.90615e-10
5.90656e-10
5.9094e-10
5.91077e-10
5.91528e-10
5.91878e-10
5.92569e-10
5.93355e-10
5.94521e-10
5.96409e-10
5.98591e-10
6.02394e-10
6.06306e-10
6.14038e-10
6.22984e-10
6.32849e-10
6.49729e-10
6.58683e-10
5.55848e-10
5.47539e-10
5.33105e-10
5.24459e-10
5.16751e-10
5.10086e-10
5.06687e-10
5.0341e-10
5.01545e-10
4.99905e-10
4.98919e-10
4.98234e-10
4.97636e-10
4.97338e-10
4.9695e-10
4.96835e-10
4.96591e-10
4.96558e-10
4.96409e-10
4.9641e-10
4.96323e-10
4.96334e-10
4.96288e-10
4.96296e-10
4.9628e-10
4.9628e-10
4.96295e-10
4.96287e-10
4.96333e-10
4.96322e-10
4.96409e-10
4.96409e-10
4.96559e-10
4.96592e-10
4.96838e-10
4.96953e-10
4.97342e-10
4.97639e-10
4.98232e-10
4.98911e-10
4.99914e-10
5.01537e-10
5.03409e-10
5.06686e-10
5.10082e-10
5.1675e-10
5.24452e-10
5.33096e-10
5.4753e-10
5.55837e-10
4.66152e-10
4.58808e-10
4.46161e-10
4.38654e-10
4.32064e-10
4.26355e-10
4.23426e-10
4.20619e-10
4.19038e-10
4.17638e-10
4.16795e-10
4.16207e-10
4.15698e-10
4.15447e-10
4.15114e-10
4.15018e-10
4.14808e-10
4.14782e-10
4.14654e-10
4.14656e-10
4.14581e-10
4.14591e-10
4.14551e-10
4.14558e-10
4.14545e-10
4.14545e-10
4.14558e-10
4.1455e-10
4.1459e-10
4.1458e-10
4.14655e-10
4.14654e-10
4.14782e-10
4.1481e-10
4.1502e-10
4.15117e-10
4.1545e-10
4.157e-10
4.16205e-10
4.16788e-10
4.17644e-10
4.19032e-10
4.20618e-10
4.23426e-10
4.26351e-10
4.32063e-10
4.38648e-10
4.46153e-10
4.58801e-10
4.66142e-10
3.88349e-10
3.8192e-10
3.70892e-10
3.64438e-10
3.58845e-10
3.53989e-10
3.51484e-10
3.49098e-10
3.47768e-10
3.4658e-10
3.45866e-10
)
;

boundaryField
{
    fuel
    {
        type            fixedValue;
        value           nonuniform 0();
    }
    wall
    {
        type            zeroGradient;
    }
    outlet
    {
        type            zeroGradient;
    }
    frontAndBack
    {
        type            empty;
    }
    procBoundary2to0
    {
        type            processor;
        value           nonuniform List<scalar> 
53
(
1.70925e-08
1.71147e-08
1.70818e-08
1.70613e-08
1.70237e-08
1.7002e-08
1.69762e-08
1.69587e-08
1.6943e-08
1.6933e-08
1.69239e-08
1.69187e-08
1.69134e-08
1.69108e-08
1.69077e-08
1.69064e-08
1.69046e-08
1.69041e-08
1.63395e-08
1.63395e-08
1.63393e-08
1.63387e-08
1.63386e-08
1.63383e-08
1.63383e-08
1.63382e-08
1.63382e-08
1.63383e-08
1.63383e-08
1.57713e-08
1.57713e-08
1.57714e-08
1.5772e-08
1.57722e-08
1.57733e-08
1.57738e-08
1.57756e-08
1.57769e-08
1.578e-08
1.57827e-08
1.57879e-08
1.57933e-08
1.5232e-08
1.5232e-08
1.52423e-08
1.52582e-08
1.52766e-08
1.53035e-08
1.53287e-08
1.53716e-08
1.53987e-08
1.54422e-08
1.54298e-08
)
;
    }
    procBoundary2to3
    {
        type            processor;
        value           nonuniform List<scalar> 
51
(
3.45364e-10
3.44934e-10
3.44724e-10
3.44441e-10
3.44362e-10
3.44183e-10
3.44162e-10
3.44053e-10
3.44055e-10
3.43992e-10
3.44001e-10
3.43966e-10
3.43973e-10
3.43962e-10
3.43961e-10
3.43973e-10
3.43966e-10
3.43999e-10
3.4399e-10
3.44055e-10
3.44052e-10
3.44162e-10
3.44184e-10
3.44363e-10
3.44443e-10
3.44727e-10
3.44936e-10
3.45362e-10
3.45859e-10
3.46585e-10
3.47765e-10
3.49097e-10
3.51483e-10
3.53985e-10
3.58844e-10
3.64432e-10
3.70885e-10
3.81913e-10
3.8834e-10
3.21333e-10
3.15762e-10
3.06184e-10
3.00693e-10
2.95981e-10
2.91882e-10
2.89751e-10
2.87742e-10
2.86634e-10
2.85632e-10
3.45364e-10
2.85032e-10
)
;
    }
}


// ************************************************************************* //
