/*--------------------------------*- C++ -*----------------------------------*\
| =========                 |                                                 |
| \\      /  F ield         | OpenFOAM: The Open Source CFD Toolbox           |
|  \\    /   O peration     | Version:  dev                                   |
|   \\  /    A nd           | Web:      www.OpenFOAM.org                      |
|    \\/     M anipulation  |                                                 |
\*---------------------------------------------------------------------------*/
FoamFile
{
    version     2.0;
    format      ascii;
    class       volScalarField;
    location    "0.085";
    object      HCCO;
}
// * * * * * * * * * * * * * * * * * * * * * * * * * * * * * * * * * * * * * //

dimensions      [0 0 0 0 0 0 0];

internalField   nonuniform List<scalar> 
25
(
9.13568e-11
9.34152e-11
9.57307e-11
9.81947e-11
1.00634e-10
1.03037e-10
1.05382e-10
1.07641e-10
1.09768e-10
1.11715e-10
1.13438e-10
1.14905e-10
1.16085e-10
1.16951e-10
1.17475e-10
1.17628e-10
1.1738e-10
1.16699e-10
1.15558e-10
1.13843e-10
1.11591e-10
1.08773e-10
1.05356e-10
1.01293e-10
9.66363e-11
)
;

boundaryField
{
    wall
    {
        type            zeroGradient;
    }
    fuel
    {
        type            fixedValue;
        value           nonuniform 0();
    }
    outlet
    {
        type            inletOutlet;
        inletValue      nonuniform 0();
        value           nonuniform 0();
    }
    procBoundary2to1
    {
        type            processor;
        value           uniform 8.96607e-11;
    }
    procBoundary2to3
    {
        type            processor;
        value           uniform 9.12752e-11;
    }
}


// ************************************************************************* //
