/*--------------------------------*- C++ -*----------------------------------*\
| =========                 |                                                 |
| \\      /  F ield         | OpenFOAM: The Open Source CFD Toolbox           |
|  \\    /   O peration     | Version:  dev                                   |
|   \\  /    A nd           | Web:      www.OpenFOAM.org                      |
|    \\/     M anipulation  |                                                 |
\*---------------------------------------------------------------------------*/
FoamFile
{
    version     2.0;
    format      ascii;
    class       volScalarField;
    location    "0.085";
    object      i-A1C2H2;
}
// * * * * * * * * * * * * * * * * * * * * * * * * * * * * * * * * * * * * * //

dimensions      [0 0 0 0 0 0 0];

internalField   nonuniform List<scalar> 
250
(
8.65944e-10
4.84255e-09
3.73816e-09
3.60398e-09
3.58655e-09
3.58585e-09
3.58535e-09
3.58457e-09
3.58431e-09
2.156e-09
3.1761e-09
2.23388e-09
2.12471e-09
2.11057e-09
2.10952e-09
2.10867e-09
2.10869e-09
2.10882e-09
3.01565e-09
1.98903e-09
1.21801e-09
1.13515e-09
1.12441e-09
1.12362e-09
1.12256e-09
1.12263e-09
1.1232e-09
3.3765e-09
1.30794e-09
6.71053e-10
6.09677e-10
6.01915e-10
6.01376e-10
5.99718e-10
5.99767e-10
6.01112e-10
3.35684e-09
9.31891e-10
3.92888e-10
3.46856e-10
3.41711e-10
3.41405e-10
3.38205e-10
3.38211e-10
3.41256e-10
3.19888e-09
7.16474e-10
2.49454e-10
2.10041e-10
2.03947e-10
2.03522e-10
2.05692e-10
2.05605e-10
2.03377e-10
3.25025e-09
5.83269e-10
1.71903e-10
1.3909e-10
1.34416e-10
1.34195e-10
1.35316e-10
1.35188e-10
1.34119e-10
3.99042e-09
4.9375e-10
1.26746e-10
9.8966e-11
9.39648e-11
9.34567e-11
9.41669e-11
9.39214e-11
9.33782e-11
5.94356e-09
4.29144e-10
9.59925e-11
7.38679e-11
7.03934e-11
6.99827e-11
7.03917e-11
7.01751e-11
6.99407e-11
8.41212e-09
3.78753e-10
7.82538e-11
5.68308e-11
5.34837e-11
5.31395e-11
5.33564e-11
5.31863e-11
5.31269e-11
8.75587e-09
3.34482e-10
6.48084e-11
4.55172e-11
4.35157e-11
4.32228e-11
4.33391e-11
4.32039e-11
4.32204e-11
4.32852e-11
7.62151e-09
2.93851e-10
5.47394e-11
3.85861e-11
3.61312e-11
3.58116e-11
3.58709e-11
3.57535e-11
3.57989e-11
3.55726e-11
5.75545e-09
2.56498e-10
4.79892e-11
3.29201e-11
3.05981e-11
3.03011e-11
3.03183e-11
3.0225e-11
3.02821e-11
3.04782e-11
3.86536e-09
2.22843e-10
4.224e-11
2.86574e-11
2.64898e-11
2.621e-11
2.62014e-11
2.61249e-11
2.61815e-11
2.61908e-11
2.44253e-09
1.93449e-10
3.79289e-11
2.53508e-11
2.3336e-11
2.30703e-11
2.3046e-11
2.29809e-11
2.3034e-11
2.32883e-11
1.52693e-09
1.64559e-10
3.40199e-11
2.27117e-11
2.08419e-11
2.05886e-11
2.05549e-11
2.04974e-11
2.0545e-11
2.07392e-11
9.69512e-10
1.38359e-10
3.05718e-11
2.05536e-11
1.88197e-11
1.85778e-11
1.85388e-11
1.84866e-11
1.85284e-11
1.86664e-11
6.30785e-10
1.1854e-10
2.76077e-11
1.87537e-11
1.71481e-11
1.69173e-11
1.68755e-11
1.68273e-11
1.68636e-11
1.69567e-11
4.2129e-10
1.01305e-10
2.50344e-11
1.72306e-11
1.57476e-11
1.55276e-11
1.54848e-11
1.54403e-11
1.54714e-11
1.55299e-11
2.89298e-10
8.64012e-11
2.27922e-11
1.59296e-11
1.4565e-11
1.43557e-11
1.43133e-11
1.42725e-11
1.42987e-11
1.43316e-11
2.04857e-10
7.35831e-11
2.08413e-11
1.48132e-11
1.35643e-11
1.33656e-11
1.33243e-11
1.32877e-11
1.33092e-11
1.33242e-11
1.50047e-10
6.26678e-11
1.91541e-11
1.3855e-11
1.27206e-11
1.25321e-11
1.24928e-11
1.2461e-11
1.24778e-11
1.24809e-11
1.13831e-10
5.32965e-11
1.77112e-11
1.31456e-11
1.2103e-11
1.19243e-11
1.1887e-11
1.18597e-11
1.18727e-11
1.18692e-11
8.93214e-11
4.55988e-11
1.64927e-11
1.25567e-11
1.15721e-11
1.14023e-11
1.13671e-11
1.13433e-11
1.13534e-11
1.1346e-11
7.22228e-11
3.92528e-11
1.54795e-11
1.20538e-11
1.12028e-11
1.1042e-11
1.10094e-11
1.09907e-11
1.09968e-11
1.09889e-11
5.98896e-11
3.41278e-11
1.47568e-11
1.17255e-11
1.09552e-11
1.08029e-11
1.07729e-11
1.07599e-11
1.07617e-11
1.07553e-11
)
;

boundaryField
{
    fuel
    {
        type            fixedValue;
        value           uniform 0;
    }
    wall
    {
        type            zeroGradient;
    }
    outlet
    {
        type            zeroGradient;
    }
    frontAndBack
    {
        type            empty;
    }
    procBoundary2to0
    {
        type            processor;
        value           nonuniform List<scalar> 
12
(
1.09911e-11
5.07857e-11
3.0087e-11
1.42147e-11
1.15215e-11
1.08276e-11
1.06831e-11
1.06559e-11
1.06489e-11
1.06462e-11
1.07604e-11
1.06431e-11
)
;
    }
    procBoundary2to3
    {
        type            processor;
        value           nonuniform List<scalar> 
25
(
3.58651e-09
2.10922e-09
1.12305e-09
6.00273e-10
3.38592e-10
2.05203e-10
1.34523e-10
9.2818e-11
6.87998e-11
5.34773e-11
5.34773e-11
4.34033e-11
3.59007e-11
3.0323e-11
2.61886e-11
2.30227e-11
2.05247e-11
1.85043e-11
1.68388e-11
1.54475e-11
1.42769e-11
1.32904e-11
1.24625e-11
1.18607e-11
1.13439e-11
)
;
    }
}


// ************************************************************************* //
