/*--------------------------------*- C++ -*----------------------------------*\
| =========                 |                                                 |
| \\      /  F ield         | OpenFOAM: The Open Source CFD Toolbox           |
|  \\    /   O peration     | Version:  dev                                   |
|   \\  /    A nd           | Web:      www.OpenFOAM.org                      |
|    \\/     M anipulation  |                                                 |
\*---------------------------------------------------------------------------*/
FoamFile
{
    version     2.0;
    format      ascii;
    class       volScalarField;
    location    "0.085";
    object      OH;
}
// * * * * * * * * * * * * * * * * * * * * * * * * * * * * * * * * * * * * * //

dimensions      [0 0 0 0 0 0 0];

internalField   nonuniform List<scalar> 
25
(
6.47351e-05
5.9355e-05
5.42488e-05
4.94869e-05
4.51856e-05
4.12305e-05
3.75793e-05
3.41885e-05
3.10291e-05
2.80866e-05
2.53522e-05
2.28183e-05
2.0476e-05
1.83162e-05
1.6329e-05
1.45056e-05
1.28376e-05
1.13189e-05
9.94706e-06
8.64764e-06
7.48832e-06
6.45568e-06
5.53575e-06
4.71143e-06
3.98532e-06
)
;

boundaryField
{
    wall
    {
        type            zeroGradient;
    }
    fuel
    {
        type            fixedValue;
        value           nonuniform 0();
    }
    outlet
    {
        type            inletOutlet;
        inletValue      nonuniform 0();
        value           nonuniform 0();
    }
    procBoundary2to1
    {
        type            processor;
        value           uniform 7.04007e-05;
    }
    procBoundary2to3
    {
        type            processor;
        value           uniform 3.34551e-06;
    }
}


// ************************************************************************* //
