/*--------------------------------*- C++ -*----------------------------------*\
| =========                 |                                                 |
| \\      /  F ield         | OpenFOAM: The Open Source CFD Toolbox           |
|  \\    /   O peration     | Version:  dev                                   |
|   \\  /    A nd           | Web:      www.OpenFOAM.org                      |
|    \\/     M anipulation  |                                                 |
\*---------------------------------------------------------------------------*/
FoamFile
{
    version     2.0;
    format      ascii;
    class       volScalarField;
    location    "0.085";
    object      p;
}
// * * * * * * * * * * * * * * * * * * * * * * * * * * * * * * * * * * * * * //

dimensions      [1 -1 -2 0 0 0 0];

internalField   nonuniform List<scalar> 
250
(
99998.5
100000
100002
100001
100003
100002
100004
100003
100004
99997.8
100000
100002
100000
100003
100002
100003
100003
100004
99996.2
100000
100002
100000
100003
100002
100003
100003
100004
99995.3
100000
100002
100000
100003
100002
100003
100003
100004
99995.2
100000
100002
100000
100003
100002
100003
100003
100004
99995.6
100000
100002
100000
100003
100002
100003
100003
100004
99996.1
99999.9
100002
100000
100003
100002
100003
100003
100004
99996.5
99999.9
100002
100000
100003
100002
100003
100003
100004
99996.9
99999.8
100002
100000
100003
100002
100003
100003
100004
99997.3
99999.7
100002
100000
100003
100002
100003
100003
100004
99997.7
99999.6
100002
100000
100003
100002
100003
100003
100004
100004
99998.1
99999.5
100002
100000
100003
100002
100003
100003
100004
100004
99998.4
99999.4
100002
100000
100003
100002
100003
100003
100004
100004
99998.7
99999.4
100002
100000
100003
100002
100003
100003
100004
100004
99999
99999.3
100002
100000
100003
100002
100003
100003
100004
100004
99999.3
99999.2
100002
100000
100003
100002
100003
100003
100004
100004
99999.6
99999.2
100002
100000
100003
100002
100003
100003
100004
100004
99999.8
99999.1
100002
100000
100003
100002
100003
100003
100004
100004
100000
99999.1
100002
100000
100003
100002
100003
100003
100004
100004
100000
99999
100002
100000
100003
100002
100003
100003
100004
100004
100000
99999
100002
100000
100003
100002
100003
100003
100004
100004
100001
99998.9
100002
100000
100003
100002
100003
100003
100004
100004
100001
99998.9
100002
100000
100003
100002
100003
100003
100004
100004
100001
99998.9
100002
100000
100003
100002
100003
100003
100004
100004
100001
99998.8
100002
100000
100003
100002
100003
100003
100004
100004
100001
99998.8
100002
100000
100003
100002
100003
100003
100004
100004
)
;

boundaryField
{
    fuel
    {
        type            zeroGradient;
    }
    wall
    {
        type            zeroGradient;
    }
    outlet
    {
        type            totalPressure;
        rho             none;
        psi             none;
        gamma           1;
        p0              uniform 100000;
        value           uniform 100000;
    }
    frontAndBack
    {
        type            empty;
    }
    procBoundary2to0
    {
        type            processor;
        value           nonuniform List<scalar> 
12
(
100004
100001
99998.8
100002
100000
100003
100002
100003
100003
100004
100004
100004
)
;
    }
    procBoundary2to3
    {
        type            processor;
        value           nonuniform List<scalar> 
25
(
100004
100004
100004
100004
100004
100004
100004
100004
100004
100004
100004
100004
100004
100004
100004
100004
100004
100004
100004
100004
100004
100004
100004
100004
100004
)
;
    }
}


// ************************************************************************* //
