/*--------------------------------*- C++ -*----------------------------------*\
| =========                 |                                                 |
| \\      /  F ield         | OpenFOAM: The Open Source CFD Toolbox           |
|  \\    /   O peration     | Version:  dev                                   |
|   \\  /    A nd           | Web:      www.OpenFOAM.org                      |
|    \\/     M anipulation  |                                                 |
\*---------------------------------------------------------------------------*/
FoamFile
{
    version     2.0;
    format      ascii;
    class       volScalarField;
    location    "0.19";
    object      A2C2HA;
}
// * * * * * * * * * * * * * * * * * * * * * * * * * * * * * * * * * * * * * //

dimensions      [0 0 0 0 0 0 0];

internalField   nonuniform List<scalar> 
50
(
1.42691e-19
1.36298e-19
1.30078e-19
1.24e-19
1.18152e-19
1.12431e-19
1.06808e-19
1.0137e-19
9.60102e-20
9.07443e-20
8.55805e-20
8.05686e-20
7.56259e-20
7.07586e-20
6.60395e-20
6.14194e-20
5.69035e-20
5.2506e-20
4.82081e-20
4.40657e-20
4.0064e-20
3.62153e-20
3.2531e-20
2.90226e-20
2.57029e-20
2.25824e-20
1.9657e-20
1.69659e-20
1.44938e-20
1.22459e-20
1.02529e-20
8.49113e-21
6.95622e-21
5.63877e-21
4.52624e-21
3.59654e-21
2.84355e-21
2.24032e-21
1.76645e-21
1.40082e-21
1.12441e-21
9.1799e-22
7.648e-22
6.49559e-22
5.5814e-22
4.77931e-22
3.99443e-22
3.17905e-22
2.3619e-22
1.73984e-22
)
;

boundaryField
{
    wall
    {
        type            zeroGradient;
    }
    fuel
    {
        type            fixedValue;
        value           nonuniform 0();
    }
    outlet
    {
        type            inletOutlet;
        inletValue      uniform 0;
        value           uniform 1.73984e-22;
    }
    procBoundary3to2
    {
        type            processor;
        value           uniform 1.49316e-19;
    }
}


// ************************************************************************* //
