/*--------------------------------*- C++ -*----------------------------------*\
| =========                 |                                                 |
| \\      /  F ield         | OpenFOAM: The Open Source CFD Toolbox           |
|  \\    /   O peration     | Version:  dev                                   |
|   \\  /    A nd           | Web:      www.OpenFOAM.org                      |
|    \\/     M anipulation  |                                                 |
\*---------------------------------------------------------------------------*/
FoamFile
{
    version     2.0;
    format      ascii;
    class       volScalarField;
    location    "0.19";
    object      A3;
}
// * * * * * * * * * * * * * * * * * * * * * * * * * * * * * * * * * * * * * //

dimensions      [0 0 0 0 0 0 0];

internalField   nonuniform List<scalar> 
250
(
1.0851e-07
1.08556e-07
1.08563e-07
1.08541e-07
1.08559e-07
1.08562e-07
1.08672e-07
1.09329e-07
1.15828e-07
2.01638e-07
3.57142e-09
1.33808e-07
1.33859e-07
1.33863e-07
1.33828e-07
1.3386e-07
1.33862e-07
1.34053e-07
1.35233e-07
1.46916e-07
3.20368e-07
8.58575e-09
1.25725e-07
1.25789e-07
1.25783e-07
1.25741e-07
1.25783e-07
1.25785e-07
1.26036e-07
1.27558e-07
1.42292e-07
3.70595e-07
1.20266e-08
1.077e-07
1.07805e-07
1.07785e-07
1.07734e-07
1.07787e-07
1.07797e-07
1.08072e-07
1.098e-07
1.25677e-07
3.7161e-07
1.37342e-08
8.90274e-08
8.92873e-08
8.92563e-08
8.92095e-08
8.92547e-08
8.92807e-08
8.95445e-08
9.13891e-08
1.07111e-07
3.43997e-07
1.42343e-08
7.24238e-08
7.23306e-08
7.23018e-08
7.23202e-08
7.22878e-08
7.23386e-08
7.27172e-08
7.49905e-08
8.97561e-08
3.03551e-07
1.41623e-08
5.89427e-08
5.89741e-08
5.89416e-08
5.89778e-08
5.89055e-08
5.89909e-08
5.93547e-08
6.17681e-08
7.5214e-08
2.60398e-07
1.4043e-08
4.82462e-08
4.83106e-08
4.82732e-08
4.8302e-08
4.81962e-08
4.83339e-08
4.86793e-08
5.12796e-08
6.32674e-08
2.20187e-07
1.42718e-08
3.9716e-08
3.97644e-08
3.97634e-08
3.97362e-08
3.97395e-08
3.9805e-08
4.01119e-08
4.25419e-08
5.31028e-08
1.81816e-07
1.51906e-08
3.3159e-08
3.32003e-08
3.32026e-08
3.31642e-08
3.31216e-08
3.32443e-08
3.3518e-08
3.51133e-08
4.42144e-08
1.45613e-07
1.71622e-08
2.78874e-08
2.79026e-08
2.783e-08
2.79968e-08
2.79451e-08
2.83269e-08
3.00153e-08
3.79625e-08
1.15275e-07
1.97583e-08
2.33725e-08
2.33966e-08
2.32976e-08
2.34754e-08
2.34317e-08
2.38095e-08
2.54983e-08
3.26774e-08
9.48185e-08
2.28101e-08
1.98098e-08
1.9843e-08
1.97029e-08
1.99165e-08
1.9869e-08
2.02473e-08
2.18626e-08
2.82777e-08
7.86362e-08
2.62342e-08
1.69832e-08
1.70247e-08
1.68189e-08
1.70996e-08
1.70414e-08
1.74212e-08
1.89449e-08
2.47656e-08
6.59622e-08
3.00052e-08
1.47283e-08
1.47773e-08
1.47864e-08
1.48566e-08
1.47849e-08
1.51644e-08
1.65862e-08
2.19482e-08
5.61532e-08
3.40925e-08
1.29204e-08
1.29742e-08
1.2961e-08
1.30565e-08
1.29751e-08
1.33511e-08
1.46673e-08
1.9673e-08
4.86488e-08
3.84484e-08
1.14649e-08
1.15208e-08
1.14905e-08
1.16036e-08
1.15172e-08
1.18859e-08
1.30979e-08
1.78197e-08
4.2821e-08
4.30175e-08
1.02895e-08
1.03449e-08
1.03006e-08
1.04254e-08
1.0339e-08
1.06963e-08
1.18092e-08
1.62935e-08
3.85958e-08
4.77625e-08
9.33823e-09
9.39116e-09
9.33318e-09
9.46698e-09
9.38448e-09
9.72678e-09
1.07498e-08
1.50137e-08
3.54911e-08
5.26672e-08
8.56762e-09
8.61629e-09
8.54167e-09
8.68579e-09
8.61015e-09
8.93412e-09
9.87151e-09
1.40591e-08
3.32078e-08
5.77363e-08
7.94319e-09
7.98641e-09
7.96898e-09
8.04857e-09
7.98146e-09
8.28431e-09
9.1366e-09
1.32247e-08
3.1521e-08
6.2959e-08
7.43718e-09
7.47378e-09
7.45199e-09
7.52712e-09
7.47063e-09
7.75004e-09
8.59951e-09
1.24642e-08
3.02488e-08
6.82593e-08
7.07635e-09
7.10741e-09
7.08051e-09
7.15233e-09
7.10552e-09
7.36326e-09
8.16329e-09
1.1884e-08
2.91318e-08
7.34607e-08
6.77105e-09
6.79804e-09
6.78973e-09
6.83585e-09
6.79608e-09
7.03793e-09
7.78924e-09
1.13809e-08
2.82e-08
7.82837e-08
)
;

boundaryField
{
    fuel
    {
        type            fixedValue;
        value           uniform 0;
    }
    wall
    {
        type            zeroGradient;
    }
    outlet
    {
        type            zeroGradient;
    }
    frontAndBack
    {
        type            empty;
    }
    procBoundary3to0
    {
        type            processor;
        value           nonuniform List<scalar> 10(6.55669e-09 6.57817e-09 6.56932e-09 6.60724e-09 6.57728e-09 6.79725e-09 7.50957e-09 1.09152e-08 2.74663e-08 8.23629e-08);
    }
    procBoundary3to2
    {
        type            processor;
        value           nonuniform List<scalar> 
25
(
1.08552e-07
1.33844e-07
1.2577e-07
1.07784e-07
8.92653e-08
7.2311e-08
5.89549e-08
4.82914e-08
3.97569e-08
3.3195e-08
2.78541e-08
2.78541e-08
2.3353e-08
1.98026e-08
1.69859e-08
1.47385e-08
1.29357e-08
1.14833e-08
1.03094e-08
9.35857e-09
8.58751e-09
7.96196e-09
7.45426e-09
7.09169e-09
6.78467e-09
)
;
    }
}


// ************************************************************************* //
