/*--------------------------------*- C++ -*----------------------------------*\
| =========                 |                                                 |
| \\      /  F ield         | OpenFOAM: The Open Source CFD Toolbox           |
|  \\    /   O peration     | Version:  dev                                   |
|   \\  /    A nd           | Web:      www.OpenFOAM.org                      |
|    \\/     M anipulation  |                                                 |
\*---------------------------------------------------------------------------*/
FoamFile
{
    version     2.0;
    format      ascii;
    class       volScalarField;
    location    "0.19";
    object      A4-;
}
// * * * * * * * * * * * * * * * * * * * * * * * * * * * * * * * * * * * * * //

dimensions      [0 0 0 0 0 0 0];

internalField   nonuniform List<scalar> 
250
(
1.39919e-09
1.39811e-09
1.39897e-09
1.39808e-09
1.39878e-09
1.40005e-09
1.40227e-09
1.42184e-09
1.56293e-09
2.32342e-09
2.60984e-11
2.39892e-09
2.39846e-09
2.39907e-09
2.39823e-09
2.39863e-09
2.39982e-09
2.40603e-09
2.44766e-09
2.74917e-09
4.37486e-09
4.005e-11
2.89232e-09
2.89176e-09
2.89283e-09
2.89149e-09
2.89187e-09
2.89399e-09
2.9026e-09
2.96384e-09
3.3979e-09
5.62043e-09
3.61914e-11
3.05283e-09
3.05197e-09
3.05373e-09
3.05169e-09
3.05186e-09
3.05512e-09
3.06531e-09
3.14188e-09
3.66685e-09
6.16364e-09
3.0427e-11
3.03737e-09
3.03588e-09
3.03867e-09
3.03595e-09
3.03507e-09
3.04014e-09
3.05141e-09
3.1395e-09
3.72019e-09
6.26035e-09
2.61236e-11
2.94042e-09
2.94288e-09
2.9423e-09
2.93879e-09
2.94026e-09
2.94378e-09
2.95634e-09
3.05736e-09
3.67098e-09
6.12202e-09
2.3103e-11
2.81973e-09
2.82234e-09
2.82233e-09
2.81826e-09
2.81851e-09
2.82375e-09
2.83738e-09
2.94747e-09
3.58007e-09
5.87056e-09
2.13233e-11
2.69096e-09
2.69372e-09
2.69468e-09
2.68999e-09
2.6893e-09
2.69602e-09
2.71082e-09
2.8299e-09
3.46845e-09
5.564e-09
2.1761e-11
2.55781e-09
2.56326e-09
2.56381e-09
2.56001e-09
2.55642e-09
2.56486e-09
2.57896e-09
2.69913e-09
3.33851e-09
5.23015e-09
3.05064e-11
2.42595e-09
2.43301e-09
2.43451e-09
2.43014e-09
2.42483e-09
2.43542e-09
2.45008e-09
2.55896e-09
3.21554e-09
4.88539e-09
5.8589e-11
2.3044e-09
2.30446e-09
2.29871e-09
2.29002e-09
2.30533e-09
2.32196e-09
2.43488e-09
3.06848e-09
4.54151e-09
1.07198e-10
2.15943e-09
2.15965e-09
2.15256e-09
2.14804e-09
2.16069e-09
2.17769e-09
2.29634e-09
2.91092e-09
4.20861e-09
1.80446e-10
2.01573e-09
2.0161e-09
2.00694e-09
2.01458e-09
2.01755e-09
2.03453e-09
2.15529e-09
2.76811e-09
3.8949e-09
2.6174e-10
1.87522e-09
1.87568e-09
1.8633e-09
1.876e-09
1.87768e-09
1.8944e-09
2.01571e-09
2.60837e-09
3.60552e-09
3.39456e-10
1.73959e-09
1.74011e-09
1.7416e-09
1.7425e-09
1.74271e-09
1.759e-09
1.87921e-09
2.44093e-09
3.34316e-09
4.1219e-10
1.61015e-09
1.61061e-09
1.61123e-09
1.61514e-09
1.61388e-09
1.62965e-09
1.74715e-09
2.2945e-09
3.10833e-09
4.81076e-10
1.48774e-09
1.48807e-09
1.48759e-09
1.49358e-09
1.49199e-09
1.5072e-09
1.6203e-09
2.14581e-09
2.88117e-09
5.45011e-10
1.37274e-09
1.3729e-09
1.37103e-09
1.37783e-09
1.37742e-09
1.39204e-09
1.49896e-09
1.98942e-09
2.66086e-09
6.00565e-10
1.26514e-09
1.26514e-09
1.26145e-09
1.26983e-09
1.27018e-09
1.28412e-09
1.38291e-09
1.83852e-09
2.45735e-09
6.44145e-10
1.16456e-09
1.16446e-09
1.15829e-09
1.16901e-09
1.16988e-09
1.18307e-09
1.28551e-09
1.69389e-09
2.26606e-09
6.7403e-10
1.07036e-09
1.07024e-09
1.07231e-09
1.07469e-09
1.07589e-09
1.08815e-09
1.18597e-09
1.55559e-09
2.10886e-09
6.91469e-10
9.81581e-10
9.81498e-10
9.82686e-10
9.85743e-10
9.8726e-10
9.98326e-10
1.08829e-09
1.42351e-09
1.94598e-09
6.99228e-10
9.06759e-10
9.06753e-10
9.07596e-10
9.1075e-10
9.12503e-10
9.22135e-10
1.00538e-09
1.29763e-09
1.77795e-09
7.00453e-10
8.31148e-10
8.31368e-10
8.32473e-10
8.35218e-10
8.37202e-10
8.50226e-10
9.25585e-10
1.17753e-09
1.63352e-09
6.99783e-10
)
;

boundaryField
{
    fuel
    {
        type            fixedValue;
        value           uniform 0;
    }
    wall
    {
        type            zeroGradient;
    }
    outlet
    {
        type            zeroGradient;
    }
    frontAndBack
    {
        type            empty;
    }
    procBoundary3to0
    {
        type            processor;
        value           nonuniform List<scalar> 10(7.64104e-10 7.6447e-10 7.65616e-10 7.68024e-10 7.70161e-10 7.82159e-10 8.50932e-10 1.06232e-09 1.48838e-09 6.98774e-10);
    }
    procBoundary3to2
    {
        type            processor;
        value           nonuniform List<scalar> 
25
(
1.39914e-09
2.39927e-09
2.89291e-09
3.05367e-09
3.03866e-09
2.94256e-09
2.82285e-09
2.69531e-09
2.56477e-09
2.4355e-09
2.29045e-09
2.29045e-09
2.16063e-09
2.01591e-09
1.87447e-09
1.73811e-09
1.60813e-09
1.48532e-09
1.37004e-09
1.26222e-09
1.16148e-09
1.06718e-09
9.78367e-10
9.03521e-10
8.27778e-10
)
;
    }
}


// ************************************************************************* //
