/*--------------------------------*- C++ -*----------------------------------*\
| =========                 |                                                 |
| \\      /  F ield         | OpenFOAM: The Open Source CFD Toolbox           |
|  \\    /   O peration     | Version:  dev                                   |
|   \\  /    A nd           | Web:      www.OpenFOAM.org                      |
|    \\/     M anipulation  |                                                 |
\*---------------------------------------------------------------------------*/
FoamFile
{
    version     2.0;
    format      ascii;
    class       volScalarField;
    location    "0.19";
    object      CH;
}
// * * * * * * * * * * * * * * * * * * * * * * * * * * * * * * * * * * * * * //

dimensions      [0 0 0 0 0 0 0];

internalField   nonuniform List<scalar> 
50
(
2.00717e-14
2.00249e-14
1.99455e-14
1.98268e-14
1.96673e-14
1.94628e-14
1.92102e-14
1.89129e-14
1.85647e-14
1.81658e-14
1.77167e-14
1.72231e-14
1.66781e-14
1.6083e-14
1.54486e-14
1.4771e-14
1.40532e-14
1.33002e-14
1.25118e-14
1.17019e-14
1.08726e-14
1.00319e-14
9.18852e-15
8.35272e-15
7.53641e-15
6.75253e-15
6.01194e-15
5.33834e-15
4.74369e-15
4.24779e-15
3.87846e-15
3.65644e-15
3.61417e-15
3.7942e-15
4.25367e-15
5.07474e-15
6.34086e-15
8.16e-15
1.06176e-14
1.37489e-14
1.74703e-14
2.15513e-14
2.55571e-14
2.88707e-14
3.07738e-14
3.05957e-14
2.7936e-14
2.29759e-14
1.68423e-14
1.20201e-14
)
;

boundaryField
{
    wall
    {
        type            zeroGradient;
    }
    fuel
    {
        type            fixedValue;
        value           nonuniform 0();
    }
    outlet
    {
        type            inletOutlet;
        inletValue      uniform 0;
        value           uniform 1.20201e-14;
    }
    procBoundary3to2
    {
        type            processor;
        value           uniform 2.00936e-14;
    }
}


// ************************************************************************* //
