/*--------------------------------*- C++ -*----------------------------------*\
| =========                 |                                                 |
| \\      /  F ield         | OpenFOAM: The Open Source CFD Toolbox           |
|  \\    /   O peration     | Version:  dev                                   |
|   \\  /    A nd           | Web:      www.OpenFOAM.org                      |
|    \\/     M anipulation  |                                                 |
\*---------------------------------------------------------------------------*/
FoamFile
{
    version     2.0;
    format      ascii;
    class       volScalarField;
    location    "0.19";
    object      H;
}
// * * * * * * * * * * * * * * * * * * * * * * * * * * * * * * * * * * * * * //

dimensions      [0 0 0 0 0 0 0];

internalField   nonuniform List<scalar> 
250
(
0.000134448
0.000134292
0.000134379
0.000134299
0.000134372
0.000134492
0.000134335
0.000134151
0.000132669
0.000122752
6.2014e-08
0.000126634
0.000126593
0.000126623
0.000126597
0.00012662
0.000126626
0.000126572
0.000126383
0.000124889
0.000116576
9.52968e-08
9.22919e-05
9.22655e-05
9.22902e-05
9.2273e-05
9.22814e-05
9.22849e-05
9.22311e-05
9.20503e-05
9.05744e-05
8.45926e-05
8.53167e-08
6.56204e-05
6.55692e-05
6.56196e-05
6.56034e-05
6.55905e-05
6.56105e-05
6.55576e-05
6.53578e-05
6.39237e-05
6.02554e-05
7.05193e-08
4.92409e-05
4.9106e-05
4.92386e-05
4.92258e-05
4.91298e-05
4.92277e-05
4.91728e-05
4.88992e-05
4.7475e-05
4.54441e-05
6.08377e-08
3.94149e-05
3.95234e-05
3.94172e-05
3.93962e-05
3.95146e-05
3.94075e-05
3.93705e-05
3.92678e-05
3.78537e-05
3.65966e-05
5.67177e-08
3.39595e-05
3.40104e-05
3.39601e-05
3.39412e-05
3.39921e-05
3.39505e-05
3.39123e-05
3.37543e-05
3.22736e-05
3.10077e-05
5.82006e-08
3.08133e-05
3.08298e-05
3.08124e-05
3.07916e-05
3.082e-05
3.08038e-05
3.07674e-05
3.05917e-05
2.88773e-05
2.71594e-05
7.47747e-08
2.89586e-05
2.89798e-05
2.89637e-05
2.89588e-05
2.896e-05
2.89541e-05
2.8898e-05
2.86296e-05
2.67006e-05
2.42771e-05
1.96323e-07
2.78775e-05
2.78896e-05
2.78861e-05
2.78795e-05
2.78786e-05
2.78775e-05
2.78189e-05
2.74236e-05
2.54868e-05
2.19827e-05
7.53339e-07
2.72353e-05
2.72297e-05
2.72196e-05
2.72102e-05
2.72222e-05
2.71667e-05
2.67651e-05
2.45904e-05
2.00945e-05
2.0019e-06
2.6773e-05
2.67709e-05
2.67591e-05
2.67618e-05
2.67648e-05
2.67051e-05
2.62935e-05
2.39499e-05
1.853e-05
3.83434e-06
2.64513e-05
2.6451e-05
2.64359e-05
2.64613e-05
2.64465e-05
2.63827e-05
2.59527e-05
2.35261e-05
1.72499e-05
5.42455e-06
2.61948e-05
2.61955e-05
2.61737e-05
2.62044e-05
2.61928e-05
2.61251e-05
2.56799e-05
2.316e-05
1.6228e-05
6.41982e-06
2.59593e-05
2.59606e-05
2.59591e-05
2.597e-05
2.596e-05
2.58889e-05
2.54334e-05
2.28416e-05
1.5441e-05
7.01066e-06
2.57174e-05
2.57189e-05
2.57128e-05
2.57312e-05
2.5721e-05
2.56472e-05
2.51873e-05
2.25922e-05
1.48649e-05
7.41453e-06
2.54507e-05
2.54523e-05
2.54412e-05
2.54674e-05
2.54575e-05
2.53817e-05
2.49237e-05
2.23529e-05
1.44399e-05
7.72024e-06
2.51453e-05
2.51471e-05
2.51299e-05
2.51624e-05
2.51561e-05
2.5079e-05
2.46284e-05
2.21019e-05
1.41559e-05
7.9316e-06
2.47896e-05
2.47918e-05
2.47658e-05
2.48086e-05
2.48049e-05
2.47275e-05
2.42879e-05
2.18449e-05
1.40038e-05
8.03567e-06
2.43724e-05
2.43754e-05
2.43361e-05
2.43945e-05
2.43931e-05
2.4316e-05
2.39393e-05
2.15694e-05
1.39503e-05
8.0398e-06
2.38822e-05
2.38865e-05
2.38895e-05
2.39085e-05
2.39091e-05
2.38324e-05
2.35016e-05
2.12608e-05
1.39627e-05
7.97723e-06
2.33057e-05
2.33117e-05
2.33091e-05
2.33364e-05
2.33395e-05
2.32624e-05
2.29727e-05
2.09052e-05
1.40147e-05
7.89385e-06
2.27083e-05
2.27161e-05
2.27119e-05
2.27431e-05
2.27487e-05
2.2669e-05
2.24251e-05
2.04887e-05
1.40815e-05
7.82521e-06
2.19704e-05
2.19815e-05
2.19812e-05
2.20125e-05
2.20214e-05
2.19886e-05
2.17853e-05
1.99939e-05
1.41244e-05
7.81236e-06
)
;

boundaryField
{
    fuel
    {
        type            fixedValue;
        value           uniform 0;
    }
    wall
    {
        type            zeroGradient;
    }
    outlet
    {
        type            zeroGradient;
    }
    frontAndBack
    {
        type            empty;
    }
    procBoundary3to0
    {
        type            processor;
        value           nonuniform List<scalar> 10(2.11852e-05 2.11987e-05 2.11995e-05 2.12319e-05 2.12441e-05 2.12158e-05 2.10661e-05 1.94014e-05 1.41277e-05 7.87175e-06);
    }
    procBoundary3to2
    {
        type            processor;
        value           nonuniform List<scalar> 
25
(
0.000134371
0.00012661
9.22755e-05
6.56039e-05
4.9224e-05
3.94064e-05
3.39534e-05
3.08084e-05
2.89645e-05
2.78853e-05
2.7204e-05
2.7204e-05
2.67842e-05
2.64562e-05
2.61955e-05
2.59569e-05
2.57125e-05
2.54435e-05
2.51358e-05
2.47775e-05
2.43574e-05
2.38638e-05
2.32834e-05
2.26819e-05
2.19376e-05
)
;
    }
}


// ************************************************************************* //
