/*--------------------------------*- C++ -*----------------------------------*\
| =========                 |                                                 |
| \\      /  F ield         | OpenFOAM: The Open Source CFD Toolbox           |
|  \\    /   O peration     | Version:  dev                                   |
|   \\  /    A nd           | Web:      www.OpenFOAM.org                      |
|    \\/     M anipulation  |                                                 |
\*---------------------------------------------------------------------------*/
FoamFile
{
    version     2.0;
    format      ascii;
    class       volScalarField;
    location    "0.19";
    object      HO2;
}
// * * * * * * * * * * * * * * * * * * * * * * * * * * * * * * * * * * * * * //

dimensions      [0 0 0 0 0 0 0];

internalField   nonuniform List<scalar> 
50
(
3.51797e-11
3.29493e-11
3.08776e-11
2.89472e-11
2.71784e-11
2.55317e-11
2.39922e-11
2.25764e-11
2.12488e-11
2.00074e-11
1.88479e-11
1.77747e-11
1.67633e-11
1.58098e-11
1.49224e-11
1.40858e-11
1.32951e-11
1.25473e-11
1.18338e-11
1.11588e-11
1.05145e-11
9.89814e-12
9.30676e-12
8.73827e-12
8.19164e-12
7.66679e-12
7.16285e-12
6.68818e-12
6.24357e-12
5.83467e-12
5.47259e-12
5.15845e-12
4.89625e-12
4.68816e-12
4.53485e-12
4.43534e-12
4.39029e-12
4.39873e-12
4.462e-12
4.58398e-12
4.77088e-12
5.03108e-12
5.36986e-12
5.7792e-12
6.22012e-12
6.60373e-12
6.788e-12
6.61058e-12
5.97104e-12
5.11246e-12
)
;

boundaryField
{
    wall
    {
        type            zeroGradient;
    }
    fuel
    {
        type            fixedValue;
        value           nonuniform 0();
    }
    outlet
    {
        type            inletOutlet;
        inletValue      uniform 0;
        value           uniform 5.11246e-12;
    }
    procBoundary3to2
    {
        type            processor;
        value           uniform 3.75842e-11;
    }
}


// ************************************************************************* //
