/*--------------------------------*- C++ -*----------------------------------*\
| =========                 |                                                 |
| \\      /  F ield         | OpenFOAM: The Open Source CFD Toolbox           |
|  \\    /   O peration     | Version:  dev                                   |
|   \\  /    A nd           | Web:      www.OpenFOAM.org                      |
|    \\/     M anipulation  |                                                 |
\*---------------------------------------------------------------------------*/
FoamFile
{
    version     2.0;
    format      ascii;
    class       volScalarField;
    location    "0.19";
    object      i-C4H5;
}
// * * * * * * * * * * * * * * * * * * * * * * * * * * * * * * * * * * * * * //

dimensions      [0 0 0 0 0 0 0];

internalField   nonuniform List<scalar> 
50
(
3.995e-24
3.75819e-24
3.53886e-24
3.33514e-24
3.1493e-24
2.97732e-24
2.81782e-24
2.67265e-24
2.53823e-24
2.4145e-24
2.30116e-24
2.19869e-24
2.10488e-24
2.01953e-24
1.94358e-24
1.87582e-24
1.8161e-24
1.7644e-24
1.7204e-24
1.6846e-24
1.65672e-24
1.63673e-24
1.62442e-24
1.61943e-24
1.62101e-24
1.62799e-24
1.63873e-24
1.65078e-24
1.66123e-24
1.66658e-24
1.66293e-24
1.64637e-24
1.61337e-24
1.56135e-24
1.48924e-24
1.3973e-24
1.2896e-24
1.16987e-24
1.0434e-24
9.15438e-25
7.91083e-25
6.73647e-25
5.65181e-25
4.66143e-25
3.75588e-25
2.91694e-25
2.13162e-25
1.41464e-25
8.32701e-26
4.96728e-26
)
;

boundaryField
{
    wall
    {
        type            zeroGradient;
    }
    fuel
    {
        type            fixedValue;
        value           nonuniform 0();
    }
    outlet
    {
        type            inletOutlet;
        inletValue      uniform 0;
        value           uniform 4.96728e-26;
    }
    procBoundary3to2
    {
        type            processor;
        value           uniform 4.25153e-24;
    }
}


// ************************************************************************* //
