/*--------------------------------*- C++ -*----------------------------------*\
| =========                 |                                                 |
| \\      /  F ield         | OpenFOAM: The Open Source CFD Toolbox           |
|  \\    /   O peration     | Version:  dev                                   |
|   \\  /    A nd           | Web:      www.OpenFOAM.org                      |
|    \\/     M anipulation  |                                                 |
\*---------------------------------------------------------------------------*/
FoamFile
{
    version     2.0;
    format      ascii;
    class       volScalarField;
    location    "0.19";
    object      i-C4H5;
}
// * * * * * * * * * * * * * * * * * * * * * * * * * * * * * * * * * * * * * //

dimensions      [0 0 0 0 0 0 0];

internalField   nonuniform List<scalar> 
250
(
9.86597e-08
9.82403e-08
9.73177e-08
9.78926e-08
9.79304e-08
9.65876e-08
9.77243e-08
9.82565e-08
1.03285e-07
2.4498e-07
5.50091e-11
2.92643e-08
2.9193e-08
2.90278e-08
2.91281e-08
2.91392e-08
2.8895e-08
2.91101e-08
2.92443e-08
3.06688e-08
6.74812e-08
4.93602e-11
8.85091e-09
8.84059e-09
8.80797e-09
8.82694e-09
8.83058e-09
8.78183e-09
8.82959e-09
8.86941e-09
9.30272e-09
2.02265e-08
2.70624e-10
2.92171e-09
2.9225e-09
2.91524e-09
2.91895e-09
2.92036e-09
2.90998e-09
2.92215e-09
2.93732e-09
3.08321e-09
7.19935e-09
2.36533e-09
1.15595e-09
1.16241e-09
1.16039e-09
1.16118e-09
1.16172e-09
1.1594e-09
1.16233e-09
1.16818e-09
1.22539e-09
3.0907e-09
1.69555e-08
5.7607e-10
5.71956e-10
5.71384e-10
5.71845e-10
5.71723e-10
5.71272e-10
5.74231e-10
5.82992e-10
6.09214e-10
1.77017e-09
8.51985e-08
3.60424e-10
3.5977e-10
3.5953e-10
3.59944e-10
3.59554e-10
3.596e-10
3.6131e-10
3.67587e-10
3.82553e-10
1.44955e-09
2.46611e-07
2.66659e-10
2.66741e-10
2.66611e-10
2.66797e-10
2.66393e-10
2.66724e-10
2.68037e-10
2.73852e-10
2.83579e-10
1.22513e-09
3.72652e-07
2.18471e-10
2.18569e-10
2.18678e-10
2.1847e-10
2.18754e-10
2.18672e-10
2.19794e-10
2.24203e-10
2.31185e-10
7.98323e-10
3.00647e-07
1.90901e-10
1.90983e-10
1.91135e-10
1.90815e-10
1.90991e-10
1.91116e-10
1.92199e-10
1.93599e-10
1.98895e-10
4.91084e-10
1.4175e-07
1.72354e-10
1.7258e-10
1.72082e-10
1.73024e-10
1.7255e-10
1.74105e-10
1.76142e-10
1.80565e-10
3.04038e-10
4.98729e-08
1.5781e-10
1.58096e-10
1.57446e-10
1.58504e-10
1.58032e-10
1.59705e-10
1.62057e-10
1.66869e-10
2.20388e-10
1.68046e-08
1.46369e-10
1.46717e-10
1.45866e-10
1.47143e-10
1.46616e-10
1.48431e-10
1.50863e-10
1.55904e-10
1.79807e-10
5.83778e-09
1.36778e-10
1.37185e-10
1.36058e-10
1.37659e-10
1.37048e-10
1.39005e-10
1.41448e-10
1.46883e-10
1.59166e-10
2.11943e-09
1.28387e-10
1.2885e-10
1.28531e-10
1.29382e-10
1.28676e-10
1.30759e-10
1.33161e-10
1.39045e-10
1.47535e-10
8.29442e-10
1.20847e-10
1.21354e-10
1.20929e-10
1.21937e-10
1.21151e-10
1.23335e-10
1.25651e-10
1.31966e-10
1.40086e-10
3.72579e-10
1.13963e-10
1.145e-10
1.13973e-10
1.15117e-10
1.14274e-10
1.16529e-10
1.18723e-10
1.25398e-10
1.34536e-10
2.0767e-10
1.07614e-10
1.08166e-10
1.07537e-10
1.08802e-10
1.07924e-10
1.10218e-10
1.12261e-10
1.19179e-10
1.30074e-10
1.4745e-10
1.0172e-10
1.02271e-10
1.01526e-10
1.02911e-10
1.0202e-10
1.0432e-10
1.06185e-10
1.13187e-10
1.26064e-10
1.26114e-10
9.62149e-11
9.67534e-11
9.58593e-11
9.73836e-11
9.64974e-11
9.87706e-11
1.00416e-10
1.08101e-10
1.22205e-10
1.19764e-10
9.10398e-11
9.15575e-11
9.11577e-11
9.21662e-11
9.1295e-11
9.35114e-11
9.48731e-11
1.03002e-10
1.18314e-10
1.19086e-10
8.61337e-11
8.66233e-11
8.61515e-11
8.71907e-11
8.63527e-11
8.84853e-11
9.02632e-11
9.76716e-11
1.14268e-10
1.20066e-10
8.20376e-11
8.25114e-11
8.1938e-11
8.30305e-11
8.22232e-11
8.42697e-11
8.59292e-11
9.31101e-11
1.09443e-10
1.20855e-10
7.78025e-11
7.82956e-11
7.79629e-11
7.87903e-11
7.79595e-11
8.00278e-11
8.1522e-11
8.86412e-11
1.04345e-10
1.20714e-10
)
;

boundaryField
{
    fuel
    {
        type            fixedValue;
        value           uniform 0;
    }
    wall
    {
        type            zeroGradient;
    }
    outlet
    {
        type            zeroGradient;
    }
    frontAndBack
    {
        type            empty;
    }
    procBoundary3to0
    {
        type            processor;
        value           nonuniform List<scalar> 10(7.41097e-11 7.4595e-11 7.42046e-11 7.50337e-11 7.42322e-11 7.62129e-11 7.75968e-11 8.39274e-11 9.98473e-11 1.19151e-10);
    }
    procBoundary3to2
    {
        type            processor;
        value           nonuniform List<scalar> 
25
(
9.73534e-08
2.90345e-08
8.81081e-09
2.91673e-09
1.16122e-09
5.71721e-10
3.59709e-10
2.66715e-10
2.18607e-10
1.9103e-10
1.7232e-10
1.7232e-10
1.5782e-10
1.46423e-10
1.36871e-10
1.28513e-10
1.21002e-10
1.14141e-10
1.07812e-10
1.01933e-10
9.64385e-11
9.12685e-11
8.63614e-11
8.22614e-11
7.80266e-11
)
;
    }
}


// ************************************************************************* //
