/*--------------------------------*- C++ -*----------------------------------*\
| =========                 |                                                 |
| \\      /  F ield         | OpenFOAM: The Open Source CFD Toolbox           |
|  \\    /   O peration     | Version:  dev                                   |
|   \\  /    A nd           | Web:      www.OpenFOAM.org                      |
|    \\/     M anipulation  |                                                 |
\*---------------------------------------------------------------------------*/
FoamFile
{
    version     2.0;
    format      ascii;
    class       volScalarField;
    location    "0.19";
    object      N2;
}
// * * * * * * * * * * * * * * * * * * * * * * * * * * * * * * * * * * * * * //

dimensions      [0 0 0 0 0 0 0];

internalField   nonuniform List<scalar> 
250
(
1.1367e-09
0
0
0
0
1.32471e-08
3.97961e-07
3.89777e-06
3.65764e-05
0.000338187
0.00272434
2.66759e-08
0
0
0
0
4.7745e-08
7.81649e-07
7.41129e-06
6.9026e-05
0.000646305
0.00779402
6.20078e-08
0
0
0
0
1.009e-07
1.23052e-06
1.13824e-05
0.000105034
0.000986439
0.0129529
9.59472e-08
0
0
0
0
1.66867e-07
1.74472e-06
1.5799e-05
0.000144085
0.00134348
0.0175037
1.21541e-07
0
0
0
0
2.42495e-07
2.31562e-06
2.05727e-05
0.000184952
0.00169627
0.020994
1.34705e-07
0
0
0
6.59212e-09
3.27579e-07
2.95957e-06
2.56172e-05
0.000226124
0.00202478
0.0232358
1.33157e-07
0
0
0
1.81191e-08
4.14155e-07
3.61944e-06
3.07387e-05
0.000265916
0.00231309
0.0242668
1.16858e-07
0
0
0
2.76824e-08
5.04259e-07
4.30388e-06
3.5816e-05
0.000304655
0.00255062
0.0242717
8.52477e-08
0
0
0
3.52192e-08
5.98166e-07
5.0212e-06
4.12095e-05
0.000342314
0.00273176
0.0235
3.52279e-08
0
0
0
4.1204e-08
6.92385e-07
5.71983e-06
4.66546e-05
0.000371458
0.00285495
0.0222043
0
0
0
4.39959e-08
7.88933e-07
6.39884e-06
5.10994e-05
0.000399313
0.00292218
0.0206
0
0
0
5.18512e-08
8.99259e-07
7.13991e-06
5.55763e-05
0.000421924
0.00293813
0.0188466
0
0
0
5.33331e-08
1.01139e-06
7.84905e-06
5.95946e-05
0.000436341
0.00290936
0.0170518
0
0
0
6.69412e-08
1.12586e-06
8.52705e-06
6.30114e-05
0.000446248
0.00284348
0.0152862
0
0
0
7.65491e-08
1.24251e-06
9.16673e-06
6.57857e-05
0.000450693
0.00274842
0.0135973
0
0
0
8.83551e-08
1.35982e-06
9.75867e-06
6.79006e-05
0.000449918
0.00263193
0.0120161
0
0
0
1.06476e-07
1.47675e-06
1.02927e-05
6.93603e-05
0.000444691
0.00249006
0.0105612
0
0
0
1.2902e-07
1.5919e-06
1.07611e-05
7.01816e-05
0.00043481
0.00232716
0.00924184
0
0
0
1.54912e-07
1.70359e-06
1.1154e-05
7.04012e-05
0.000421433
0.00215746
0.0080603
0
0
0
1.83787e-07
1.81002e-06
1.14648e-05
7.01069e-05
0.00040529
0.00198484
0.00701415
0
0
0
2.14979e-07
1.90945e-06
1.16907e-05
6.9299e-05
0.000387093
0.00183615
0.00609718
0
0
0
2.47688e-07
2.00025e-06
1.18315e-05
6.80009e-05
0.000367309
0.00168014
0.00529496
0
0
0
2.76909e-07
2.07121e-06
1.18821e-05
6.64902e-05
0.000346419
0.00152102
0.00457318
0
0
0
3.07584e-07
2.13498e-06
1.18588e-05
6.4654e-05
0.000324884
0.0013877
0.0039663
)
;

boundaryField
{
    fuel
    {
        type            fixedValue;
        value           uniform 0;
    }
    wall
    {
        type            zeroGradient;
    }
    outlet
    {
        type            zeroGradient;
    }
    frontAndBack
    {
        type            empty;
    }
    procBoundary3to0
    {
        type            processor;
        value           nonuniform List<scalar> 10(0 0 0 3.37023e-07 2.18467e-06 1.17674e-05 6.26132e-05 0.000302936 0.00125891 0.0034511);
    }
    procBoundary3to2
    {
        type            processor;
        value           nonuniform List<scalar> 
25
(
0
1.65511e-08
4.61668e-08
7.47054e-08
9.55198e-08
1.04325e-07
9.85224e-08
7.77989e-08
4.30255e-08
0
0
0
0
0
0
0
0
0
0
0
0
0
0
0
0
)
;
    }
}


// ************************************************************************* //
