/*--------------------------------*- C++ -*----------------------------------*\
| =========                 |                                                 |
| \\      /  F ield         | OpenFOAM: The Open Source CFD Toolbox           |
|  \\    /   O peration     | Version:  dev                                   |
|   \\  /    A nd           | Web:      www.OpenFOAM.org                      |
|    \\/     M anipulation  |                                                 |
\*---------------------------------------------------------------------------*/
FoamFile
{
    version     2.0;
    format      ascii;
    class       volScalarField;
    location    "0.19";
    object      OH;
}
// * * * * * * * * * * * * * * * * * * * * * * * * * * * * * * * * * * * * * //

dimensions      [0 0 0 0 0 0 0];

internalField   nonuniform List<scalar> 
250
(
0.000290704
0.000290278
0.000290477
0.000290295
0.000290458
0.000290811
0.000290372
0.000289965
0.000286497
0.000262986
2.32808e-07
0.000249889
0.000249764
0.000249853
0.000249782
0.000249833
0.000249869
0.000249734
0.000249385
0.000246231
0.000227455
2.57797e-07
0.000171784
0.000171703
0.000171784
0.000171732
0.000171752
0.000171774
0.000171656
0.000171341
0.000168386
0.00015436
2.01575e-07
0.000117289
0.000117166
0.000117294
0.000117248
0.000117222
0.000117276
0.000117168
0.000116822
0.000114014
0.000104151
1.52962e-07
8.53399e-05
8.50655e-05
8.53439e-05
8.53054e-05
8.5117e-05
8.5321e-05
8.52153e-05
8.47406e-05
8.19883e-05
7.49051e-05
1.21731e-07
6.65485e-05
6.67509e-05
6.65624e-05
6.65089e-05
6.67284e-05
6.65417e-05
6.64753e-05
6.63491e-05
6.365e-05
5.78003e-05
1.1073e-07
5.6108e-05
5.62053e-05
5.61206e-05
5.60709e-05
5.61607e-05
5.61001e-05
5.60356e-05
5.58255e-05
5.30382e-05
4.71151e-05
1.20224e-07
4.99399e-05
4.99761e-05
4.99534e-05
4.98996e-05
4.99453e-05
4.99347e-05
4.98775e-05
4.96573e-05
4.64685e-05
3.98441e-05
1.8699e-07
4.61049e-05
4.61606e-05
4.61376e-05
4.61167e-05
4.61031e-05
4.61165e-05
4.60207e-05
4.56279e-05
4.20925e-05
3.45027e-05
5.42857e-07
4.3665e-05
4.37113e-05
4.37132e-05
4.36874e-05
4.36645e-05
4.3694e-05
4.3596e-05
4.29284e-05
3.95021e-05
3.03657e-05
1.42788e-06
4.20503e-05
4.20421e-05
4.20049e-05
4.19548e-05
4.20251e-05
4.1941e-05
4.12801e-05
3.74303e-05
2.7065e-05
2.24039e-06
4.06762e-05
4.06743e-05
4.06292e-05
4.06172e-05
4.06609e-05
4.0572e-05
3.9924e-05
3.58192e-05
2.44103e-05
2.89332e-06
3.95677e-05
3.9569e-05
3.95104e-05
3.95839e-05
3.95603e-05
3.94661e-05
3.88076e-05
3.46681e-05
2.22919e-05
3.22803e-06
3.85968e-05
3.85997e-05
3.85175e-05
3.86182e-05
3.85965e-05
3.84971e-05
3.7832e-05
3.36025e-05
2.06299e-05
3.39703e-06
3.7689e-05
3.76928e-05
3.7696e-05
3.7719e-05
3.76958e-05
3.75917e-05
3.69266e-05
3.26277e-05
1.93595e-05
3.56962e-06
3.67986e-05
3.68023e-05
3.67939e-05
3.68407e-05
3.68127e-05
3.67049e-05
3.60475e-05
3.18434e-05
1.84243e-05
3.81835e-06
3.58949e-05
3.58981e-05
3.5877e-05
3.59444e-05
3.59165e-05
3.58065e-05
3.51638e-05
3.10869e-05
1.77141e-05
4.14478e-06
3.4955e-05
3.49578e-05
3.49211e-05
3.50021e-05
3.49849e-05
3.48741e-05
3.42511e-05
3.03062e-05
1.7205e-05
4.51526e-06
3.39602e-05
3.39629e-05
3.39054e-05
3.40085e-05
3.3999e-05
3.38886e-05
3.32857e-05
2.95387e-05
1.68836e-05
4.8893e-06
3.28928e-05
3.28963e-05
3.28087e-05
3.29448e-05
3.29414e-05
3.28326e-05
3.23741e-05
2.8763e-05
1.66981e-05
5.23833e-06
3.17354e-05
3.1741e-05
3.17526e-05
3.17935e-05
3.17946e-05
3.16872e-05
3.13156e-05
2.79543e-05
1.66166e-05
5.55466e-06
3.04679e-05
3.04762e-05
3.04762e-05
3.05319e-05
3.05384e-05
3.04306e-05
3.01256e-05
2.70905e-05
1.65741e-05
5.84935e-06
2.92297e-05
2.92412e-05
2.92377e-05
2.9299e-05
2.93105e-05
2.91973e-05
2.89653e-05
2.61513e-05
1.65345e-05
6.14011e-06
2.77839e-05
2.78013e-05
2.78047e-05
2.7864e-05
2.78816e-05
2.78572e-05
2.76835e-05
2.51114e-05
1.64693e-05
6.44061e-06
)
;

boundaryField
{
    fuel
    {
        type            fixedValue;
        value           uniform 0;
    }
    wall
    {
        type            zeroGradient;
    }
    outlet
    {
        type            zeroGradient;
    }
    frontAndBack
    {
        type            empty;
    }
    procBoundary3to0
    {
        type            processor;
        value           nonuniform List<scalar> 10(2.63157e-05 2.6337e-05 2.63423e-05 2.64011e-05 2.64243e-05 2.6406e-05 2.63117e-05 2.39431e-05 1.6336e-05 6.76612e-06);
    }
    procBoundary3to2
    {
        type            processor;
        value           nonuniform List<scalar> 
25
(
0.000290456
0.000249815
0.000171742
0.000117254
8.53093e-05
6.65393e-05
5.61075e-05
4.9946e-05
4.614e-05
4.3713e-05
4.19438e-05
4.19438e-05
4.07027e-05
3.95787e-05
3.85962e-05
3.76798e-05
3.67828e-05
3.58735e-05
3.49285e-05
3.39286e-05
3.28559e-05
3.16929e-05
3.04195e-05
2.91752e-05
2.77199e-05
)
;
    }
}


// ************************************************************************* //
