/*--------------------------------*- C++ -*----------------------------------*\
| =========                 |                                                 |
| \\      /  F ield         | OpenFOAM: The Open Source CFD Toolbox           |
|  \\    /   O peration     | Version:  dev                                   |
|   \\  /    A nd           | Web:      www.OpenFOAM.org                      |
|    \\/     M anipulation  |                                                 |
\*---------------------------------------------------------------------------*/
FoamFile
{
    version     2.0;
    format      ascii;
    class       volScalarField;
    location    "0.19";
    object      P2;
}
// * * * * * * * * * * * * * * * * * * * * * * * * * * * * * * * * * * * * * //

dimensions      [0 0 0 0 0 0 0];

internalField   nonuniform List<scalar> 
250
(
8.88048e-08
8.88441e-08
8.88692e-08
8.88432e-08
8.88549e-08
8.88834e-08
8.89105e-08
8.92396e-08
9.28704e-08
1.46536e-07
3.3368e-09
7.55985e-08
7.56289e-08
7.56341e-08
7.56127e-08
7.56328e-08
7.56306e-08
7.57101e-08
7.62092e-08
8.17127e-08
1.83174e-07
7.2792e-09
5.173e-08
5.17612e-08
5.17552e-08
5.17371e-08
5.17596e-08
5.17503e-08
5.1843e-08
5.23701e-08
5.80956e-08
1.79416e-07
9.19205e-09
3.23952e-08
3.24407e-08
3.24279e-08
3.24097e-08
3.24341e-08
3.24273e-08
3.25061e-08
3.29842e-08
3.80081e-08
1.56861e-07
9.35388e-09
1.9523e-08
1.9635e-08
1.962e-08
1.96062e-08
1.96246e-08
1.96239e-08
1.96729e-08
2.00612e-08
2.40782e-08
1.27848e-07
8.48918e-09
1.15876e-08
1.153e-08
1.15195e-08
1.1528e-08
1.15205e-08
1.15258e-08
1.16032e-08
1.20397e-08
1.50639e-08
9.93371e-08
7.21632e-09
6.98351e-09
6.97874e-09
6.96991e-09
6.98315e-09
6.96669e-09
6.97748e-09
7.03326e-09
7.39859e-09
9.62293e-09
7.467e-08
5.91345e-09
4.34123e-09
4.3484e-09
4.34057e-09
4.35007e-09
4.33083e-09
4.3487e-09
4.38966e-09
4.71255e-09
6.32556e-09
5.5015e-08
4.75933e-09
2.79577e-09
2.8008e-09
2.79999e-09
2.79892e-09
2.80053e-09
2.80376e-09
2.83191e-09
3.06978e-09
4.23003e-09
3.88421e-08
3.8335e-09
1.904e-09
1.90793e-09
1.90777e-09
1.90529e-09
1.90108e-09
1.9109e-09
1.93093e-09
2.03478e-09
2.84637e-09
2.58319e-08
3.19599e-09
1.35419e-09
1.35531e-09
1.35007e-09
1.36444e-09
1.35802e-09
1.38515e-09
1.48481e-09
2.07928e-09
1.66276e-08
2.75057e-09
9.86235e-10
9.87946e-10
9.81601e-10
9.94075e-10
9.89731e-10
1.01336e-09
1.10149e-09
1.55989e-09
1.13562e-08
2.46242e-09
7.51158e-10
7.53322e-10
7.45354e-10
7.5804e-10
7.54315e-10
7.75791e-10
8.5079e-10
1.20561e-09
7.82053e-09
2.29888e-09
5.94463e-10
5.96948e-10
5.86285e-10
6.0109e-10
5.97316e-10
6.17287e-10
6.81387e-10
9.66667e-10
5.47106e-09
2.22927e-09
4.85601e-10
4.88314e-10
4.8798e-10
4.92253e-10
4.88189e-10
5.06928e-10
5.62022e-10
7.99791e-10
3.92196e-09
2.22367e-09
4.07103e-10
4.09889e-10
4.08575e-10
4.13667e-10
4.09451e-10
4.27036e-10
4.74681e-10
6.79151e-10
2.90461e-09
2.25985e-09
3.48713e-10
3.51447e-10
3.49502e-10
3.55013e-10
3.50833e-10
3.67255e-10
4.08716e-10
5.8898e-10
2.21952e-09
2.32419e-09
3.04233e-10
3.06815e-10
3.04443e-10
3.101e-10
3.06128e-10
3.21343e-10
3.57649e-10
5.19509e-10
1.7808e-09
2.41274e-09
2.69802e-10
2.72151e-10
2.69437e-10
2.75098e-10
2.71467e-10
2.85423e-10
3.1749e-10
4.64227e-10
1.49187e-09
2.53067e-09
2.42939e-10
2.44994e-10
2.41902e-10
2.47567e-10
2.44366e-10
2.57016e-10
2.85423e-10
4.2465e-10
1.29856e-09
2.6912e-09
2.22016e-10
2.23733e-10
2.22756e-10
2.25917e-10
2.23193e-10
2.34497e-10
2.59593e-10
3.91422e-10
1.16766e-09
2.91027e-09
2.05943e-10
2.0728e-10
2.06382e-10
2.09036e-10
2.06859e-10
2.16782e-10
2.41567e-10
3.62565e-10
1.07779e-09
3.20018e-09
1.95418e-10
1.96419e-10
1.95577e-10
1.97779e-10
1.96105e-10
2.04802e-10
2.27898e-10
3.41934e-10
1.00834e-09
3.56434e-09
1.87874e-10
1.88542e-10
1.88376e-10
1.89515e-10
1.88329e-10
1.95904e-10
2.17501e-10
3.25769e-10
9.60779e-10
3.99372e-09
)
;

boundaryField
{
    fuel
    {
        type            fixedValue;
        value           uniform 0;
    }
    wall
    {
        type            zeroGradient;
    }
    outlet
    {
        type            zeroGradient;
    }
    frontAndBack
    {
        type            empty;
    }
    procBoundary3to0
    {
        type            processor;
        value           nonuniform List<scalar> 10(1.84277e-10 1.84565e-10 1.84627e-10 1.85109e-10 1.84505e-10 1.90819e-10 2.11361e-10 3.13179e-10 9.32687e-10 4.46755e-09);
    }
    procBoundary3to2
    {
        type            processor;
        value           nonuniform List<scalar> 
25
(
8.88596e-08
7.56246e-08
5.17544e-08
3.24344e-08
1.96297e-08
1.15266e-08
6.97605e-09
4.346e-09
2.80039e-09
1.90766e-09
1.35162e-09
1.35162e-09
9.84977e-10
7.5079e-10
5.94665e-10
4.86152e-10
4.07851e-10
3.49558e-10
3.0511e-10
2.70666e-10
2.43758e-10
2.22761e-10
2.06588e-10
1.95957e-10
1.88287e-10
)
;
    }
}


// ************************************************************************* //
