/*--------------------------------*- C++ -*----------------------------------*\
| =========                 |                                                 |
| \\      /  F ield         | OpenFOAM: The Open Source CFD Toolbox           |
|  \\    /   O peration     | Version:  dev                                   |
|   \\  /    A nd           | Web:      www.OpenFOAM.org                      |
|    \\/     M anipulation  |                                                 |
\*---------------------------------------------------------------------------*/
FoamFile
{
    version     2.0;
    format      ascii;
    class       volScalarField;
    location    "0.19";
    object      P2-H;
}
// * * * * * * * * * * * * * * * * * * * * * * * * * * * * * * * * * * * * * //

dimensions      [0 0 0 0 0 0 0];

internalField   nonuniform List<scalar> 
50
(
2.08699e-29
1.85261e-29
1.63785e-29
1.44126e-29
1.26506e-29
1.10539e-29
9.60882e-30
8.32921e-30
7.18066e-30
6.15904e-30
5.25696e-30
4.47255e-30
3.78287e-30
3.18048e-30
2.66484e-30
2.22101e-30
1.84119e-30
1.51865e-30
1.24477e-30
1.01622e-30
8.25601e-31
6.67745e-31
5.37933e-31
4.31943e-31
3.46072e-31
2.76987e-31
2.21555e-31
1.77861e-31
1.434e-31
1.16448e-31
9.58638e-32
8.01826e-32
6.84573e-32
5.99343e-32
5.40454e-32
5.03772e-32
4.87632e-32
4.91463e-32
5.17185e-32
5.70243e-32
6.61196e-32
8.11398e-32
1.06439e-31
1.51559e-31
2.39154e-31
4.27103e-31
8.67497e-31
1.91487e-30
3.50808e-30
3.53121e-30
)
;

boundaryField
{
    wall
    {
        type            zeroGradient;
    }
    fuel
    {
        type            fixedValue;
        value           nonuniform 0();
    }
    outlet
    {
        type            inletOutlet;
        inletValue      uniform 0;
        value           uniform 3.53121e-30;
    }
    procBoundary3to2
    {
        type            processor;
        value           uniform 2.34321e-29;
    }
}


// ************************************************************************* //
