/*--------------------------------*- C++ -*----------------------------------*\
| =========                 |                                                 |
| \\      /  F ield         | OpenFOAM: The Open Source CFD Toolbox           |
|  \\    /   O peration     | Version:  dev                                   |
|   \\  /    A nd           | Web:      www.OpenFOAM.org                      |
|    \\/     M anipulation  |                                                 |
\*---------------------------------------------------------------------------*/
FoamFile
{
    version     2.0;
    format      ascii;
    class       surfaceScalarField;
    location    "0.19";
    object      phi;
}
// * * * * * * * * * * * * * * * * * * * * * * * * * * * * * * * * * * * * * //

dimensions      [1 0 -1 0 0 0 0];

internalField   nonuniform List<scalar> 
465
(
-1.6876e-09
8.17015e-06
5.53489e-09
8.17536e-06
1.72384e-08
8.1715e-06
2.80552e-08
8.17495e-06
3.38457e-08
8.17714e-06
5.12659e-08
8.16559e-06
4.95321e-08
8.18491e-06
5.71217e-08
8.17551e-06
4.38752e-08
8.19262e-06
-6.10609e-08
8.29196e-06
5.96671e-06
-3.52648e-09
8.15076e-06
9.38086e-09
8.16279e-06
2.74339e-08
8.154e-06
4.27765e-08
8.16039e-06
5.69069e-08
8.16347e-06
7.59822e-08
8.14696e-06
8.46608e-08
8.17653e-06
8.09583e-08
8.17935e-06
7.00405e-08
8.20091e-06
-3.15298e-07
8.67981e-06
4.6555e-06
-5.9155e-09
8.12519e-06
1.33877e-08
8.14407e-06
3.76719e-08
8.13035e-06
5.83323e-08
8.14031e-06
8.00791e-08
8.14235e-06
1.01799e-07
8.12583e-06
1.20094e-07
8.1588e-06
1.05998e-07
8.19379e-06
9.84087e-08
8.20544e-06
-4.15446e-07
9.18862e-06
4.37239e-06
-8.23468e-09
8.09455e-06
1.68031e-08
8.11974e-06
4.62054e-08
8.10165e-06
7.31127e-08
8.11394e-06
1.02314e-07
8.11388e-06
1.27862e-07
8.10096e-06
1.55253e-07
8.13213e-06
1.31842e-07
8.21766e-06
1.3079e-07
8.20255e-06
-4.22633e-07
9.72347e-06
4.75895e-06
-1.10965e-08
8.0585e-06
2.0621e-08
8.08878e-06
5.55809e-08
8.06743e-06
8.92171e-08
8.08076e-06
1.24437e-07
8.07942e-06
1.53905e-07
8.07223e-06
1.89605e-07
8.0972e-06
1.6026e-07
8.24748e-06
1.6881e-07
8.18896e-06
-3.78956e-07
1.02359e-05
5.52498e-06
-1.42304e-08
8.01494e-06
2.44496e-08
8.05099e-06
6.46299e-08
8.02814e-06
1.05221e-07
8.04131e-06
1.45877e-07
8.03969e-06
1.79867e-07
8.03913e-06
2.22882e-07
8.05514e-06
1.90159e-07
8.28084e-06
2.12065e-07
8.16135e-06
-3.04497e-07
1.07002e-05
6.47743e-06
-1.74953e-08
7.96625e-06
2.823e-08
8.00609e-06
7.34148e-08
7.98377e-06
1.21176e-07
7.99453e-06
1.66668e-07
7.99505e-06
2.05866e-07
8.00075e-06
2.55017e-07
8.00688e-06
2.22191e-07
8.31425e-06
2.58983e-07
8.1179e-06
-2.094e-07
1.11013e-05
7.48217e-06
-2.08024e-08
7.9123e-06
3.19751e-08
7.95401e-06
8.20351e-08
7.93441e-06
1.37055e-07
7.94024e-06
1.86948e-07
7.94588e-06
2.32028e-07
7.95638e-06
2.86103e-07
7.95356e-06
2.56531e-07
8.34434e-06
3.08196e-07
8.05885e-06
-1.00959e-07
1.14316e-05
8.42812e-06
-2.40537e-08
7.85291e-06
3.5722e-08
7.8948e-06
9.06192e-08
7.88007e-06
1.52869e-07
7.87856e-06
2.06886e-07
7.89242e-06
2.58471e-07
7.90538e-06
3.16419e-07
7.89626e-06
2.93256e-07
8.36793e-06
3.5829e-07
7.98608e-06
1.09738e-08
1.16876e-05
9.19382e-06
-2.71463e-08
3.95277e-08
7.82851e-06
9.93064e-08
7.82066e-06
1.68665e-07
7.80957e-06
2.26697e-07
7.83475e-06
2.85253e-07
7.84722e-06
3.46344e-07
7.83564e-06
3.32388e-07
8.38219e-06
4.08174e-07
7.90236e-06
1.62963e-07
1.18369e-05
9.65684e-06
4.34576e-08
7.75521e-06
1.08223e-07
7.75602e-06
1.84508e-07
7.73341e-06
2.46621e-07
7.77276e-06
3.124e-07
7.78159e-06
3.76305e-07
7.77196e-06
3.73861e-07
8.38484e-06
4.57595e-07
7.81079e-06
3.07324e-07
1.18921e-05
9.60923e-06
4.75767e-08
7.67509e-06
1.17474e-07
7.68604e-06
2.00457e-07
7.65035e-06
2.66851e-07
7.70628e-06
3.39933e-07
7.70846e-06
4.06684e-07
7.70522e-06
4.17437e-07
8.3742e-06
5.06684e-07
7.71422e-06
4.26709e-07
1.18801e-05
9.25089e-06
5.19424e-08
7.58835e-06
1.27139e-07
7.61057e-06
2.1658e-07
7.56065e-06
2.87548e-07
7.63506e-06
3.67884e-07
7.62789e-06
4.37848e-07
7.63509e-06
4.62846e-07
8.34925e-06
5.55462e-07
7.61495e-06
5.21727e-07
1.18264e-05
8.90015e-06
5.65927e-08
7.4952e-06
1.37258e-07
7.52951e-06
2.32911e-07
7.4646e-06
3.08797e-07
7.5588e-06
3.9625e-07
7.5401e-06
4.70043e-07
7.56098e-06
5.09774e-07
8.30955e-06
6.04485e-07
7.51445e-06
6.11389e-07
1.17383e-05
8.56133e-06
6.15437e-08
7.39587e-06
1.47832e-07
7.44274e-06
2.49465e-07
7.36252e-06
3.30619e-07
7.4772e-06
4.25008e-07
7.44531e-06
5.03373e-07
7.48219e-06
5.57887e-07
8.2551e-06
6.543e-07
7.41327e-06
6.97355e-07
1.16217e-05
8.23811e-06
6.6788e-08
7.29056e-06
1.58828e-07
7.35021e-06
2.66229e-07
7.25464e-06
3.52982e-07
7.38995e-06
4.54111e-07
7.34379e-06
5.37806e-07
7.39801e-06
6.06824e-07
8.18625e-06
7.0526e-07
7.31115e-06
7.80619e-07
1.14837e-05
7.93379e-06
7.2298e-08
7.17948e-06
1.70183e-07
7.25186e-06
2.83172e-07
7.1412e-06
3.75813e-07
7.29681e-06
4.83477e-07
7.23578e-06
5.73198e-07
7.30778e-06
6.56217e-07
8.10354e-06
7.57461e-07
7.20733e-06
8.61715e-07
1.13218e-05
7.65118e-06
7.80323e-08
7.06279e-06
1.81823e-07
7.14767e-06
3.00245e-07
7.02239e-06
3.9901e-07
7.19757e-06
5.12999e-07
7.12155e-06
6.09344e-07
7.21091e-06
7.05704e-07
8.00783e-06
8.10799e-07
7.10059e-06
9.40999e-07
1.11468e-05
7.39263e-06
8.39409e-08
6.94066e-06
1.93663e-07
7.03767e-06
3.17389e-07
6.89834e-06
4.22449e-07
7.09207e-06
5.42557e-07
7.00133e-06
6.45998e-07
7.10694e-06
7.5495e-07
7.8997e-06
8.64977e-07
6.98995e-06
1.01842e-06
1.09598e-05
7.1595e-06
8.99697e-08
6.8132e-06
2.05623e-07
6.92185e-06
3.34537e-07
6.76918e-06
4.4598e-07
6.98024e-06
5.72054e-07
6.87529e-06
6.82885e-07
6.99558e-06
8.03649e-07
7.78004e-06
9.19588e-07
6.8742e-06
1.09376e-06
1.07622e-05
6.95215e-06
9.60651e-08
6.68053e-06
2.17615e-07
6.80023e-06
3.51608e-07
6.63504e-06
4.69491e-07
6.86202e-06
6.01383e-07
6.74359e-06
7.19688e-07
6.87672e-06
8.51607e-07
7.64951e-06
9.74268e-07
6.75251e-06
1.16675e-06
1.05555e-05
6.76978e-06
1.02178e-07
6.54272e-06
2.29596e-07
6.67282e-06
3.68578e-07
6.49601e-06
4.92888e-07
6.73741e-06
6.30465e-07
6.60637e-06
7.5611e-07
6.75048e-06
8.98607e-07
7.5087e-06
1.02863e-06
6.62408e-06
1.23713e-06
1.03408e-05
6.61056e-06
1.08249e-07
6.39987e-06
2.41461e-07
6.53962e-06
3.8534e-07
6.35221e-06
5.16008e-07
6.60646e-06
6.59139e-07
6.46374e-06
7.91967e-07
6.61697e-06
9.4445e-07
7.35823e-06
1.0822e-06
6.48829e-06
1.30473e-06
1.01197e-05
6.47174e-06
1.14266e-07
2.5321e-07
4.01933e-07
5.38919e-07
6.87511e-07
8.27268e-07
9.89145e-07
1.13474e-06
1.36953e-06
)
;

boundaryField
{
    fuel
    {
        type            calculated;
        value           nonuniform List<scalar> 
11
(
-8.18322e-06
-8.18322e-06
-8.18322e-06
-8.18322e-06
-8.18322e-06
-8.18322e-06
-8.18321e-06
-8.18321e-06
-8.18319e-06
-8.18321e-06
-8.18316e-06
)
;
    }
    wall
    {
        type            calculated;
        value           nonuniform 0();
    }
    outlet
    {
        type            calculated;
        value           nonuniform List<scalar> 
24
(
-4.02099e-07
-1.5046e-06
-2.19897e-06
-2.52676e-06
-2.61749e-06
-2.55606e-06
-2.38148e-06
-2.10236e-06
-1.70406e-06
-1.14998e-06
-4.08998e-07
8.88092e-08
2.49284e-07
3.99857e-07
5.40794e-07
6.72653e-07
7.96023e-07
9.11439e-07
1.01937e-06
1.12024e-06
1.2145e-06
1.3026e-06
1.38502e-06
1.46231e-06
)
;
    }
    frontAndBack
    {
        type            empty;
        value           nonuniform 0();
    }
    procBoundary3to0
    {
        type            processor;
        value           nonuniform List<scalar> 10(6.25208e-06 6.40071e-06 6.20369e-06 6.46923e-06 6.31589e-06 6.47641e-06 7.19887e-06 6.34466e-06 9.89169e-06 6.34989e-06);
    }
    procBoundary3to2
    {
        type            processor;
        value           nonuniform List<scalar> 
25
(
1.5192e-08
2.34153e-08
3.21534e-08
3.98718e-08
4.88323e-08
5.77004e-08
6.65464e-08
7.53147e-08
8.39504e-08
9.23972e-08
7.78803e-06
2.99805e-08
3.247e-08
3.45504e-08
3.61816e-08
3.73503e-08
3.80685e-08
3.837e-08
3.83044e-08
3.79319e-08
3.7317e-08
3.6524e-08
3.56135e-08
3.4634e-08
3.36414e-08
)
;
    }
}


// ************************************************************************* //
