/*--------------------------------*- C++ -*----------------------------------*\
| =========                 |                                                 |
| \\      /  F ield         | OpenFOAM: The Open Source CFD Toolbox           |
|  \\    /   O peration     | Version:  dev                                   |
|   \\  /    A nd           | Web:      www.OpenFOAM.org                      |
|    \\/     M anipulation  |                                                 |
\*---------------------------------------------------------------------------*/
FoamFile
{
    version     2.0;
    format      ascii;
    class       volScalarField;
    location    "0.095";
    object      CH3;
}
// * * * * * * * * * * * * * * * * * * * * * * * * * * * * * * * * * * * * * //

dimensions      [0 0 0 0 0 0 0];

internalField   nonuniform List<scalar> 
25
(
1.18848e-05
1.07986e-05
9.81083e-06
8.91189e-06
8.09355e-06
7.34852e-06
6.6702e-06
6.05264e-06
5.4904e-06
4.97859e-06
4.5119e-06
4.08794e-06
3.70159e-06
3.34944e-06
3.02926e-06
2.73563e-06
2.47073e-06
2.22984e-06
2.00954e-06
1.81066e-06
1.63022e-06
1.46599e-06
1.3181e-06
1.18323e-06
1.06273e-06
)
;

boundaryField
{
    wall
    {
        type            zeroGradient;
    }
    fuel
    {
        type            fixedValue;
        value           nonuniform 0();
    }
    outlet
    {
        type            inletOutlet;
        inletValue      nonuniform 0();
        value           nonuniform 0();
    }
    procBoundary1to0
    {
        type            processor;
        value           uniform 1.30795e-05;
    }
    procBoundary1to2
    {
        type            processor;
        value           uniform 9.5398e-07;
    }
}


// ************************************************************************* //
