/*--------------------------------*- C++ -*----------------------------------*\
| =========                 |                                                 |
| \\      /  F ield         | OpenFOAM: The Open Source CFD Toolbox           |
|  \\    /   O peration     | Version:  dev                                   |
|   \\  /    A nd           | Web:      www.OpenFOAM.org                      |
|    \\/     M anipulation  |                                                 |
\*---------------------------------------------------------------------------*/
FoamFile
{
    version     2.0;
    format      ascii;
    class       volScalarField;
    location    "0.095";
    object      PC3H4;
}
// * * * * * * * * * * * * * * * * * * * * * * * * * * * * * * * * * * * * * //

dimensions      [0 0 0 0 0 0 0];

internalField   nonuniform List<scalar> 
25
(
4.52595e-15
2.84291e-15
1.88007e-15
1.3055e-15
9.45529e-16
7.07586e-16
5.46684e-16
4.29302e-16
3.40806e-16
2.72529e-16
2.1911e-16
1.77047e-16
1.43891e-16
1.1781e-16
9.7406e-17
8.12567e-17
6.8697e-17
5.90976e-17
5.20531e-17
4.67391e-17
4.27826e-17
3.99451e-17
3.81723e-17
3.72036e-17
3.69466e-17
)
;

boundaryField
{
    wall
    {
        type            zeroGradient;
    }
    fuel
    {
        type            fixedValue;
        value           nonuniform 0();
    }
    outlet
    {
        type            inletOutlet;
        inletValue      nonuniform 0();
        value           nonuniform 0();
    }
    procBoundary1to0
    {
        type            processor;
        value           uniform 7.58421e-15;
    }
    procBoundary1to2
    {
        type            processor;
        value           uniform 3.72788e-17;
    }
}


// ************************************************************************* //
