/*--------------------------------*- C++ -*----------------------------------*\
| =========                 |                                                 |
| \\      /  F ield         | OpenFOAM: The Open Source CFD Toolbox           |
|  \\    /   O peration     | Version:  dev                                   |
|   \\  /    A nd           | Web:      www.OpenFOAM.org                      |
|    \\/     M anipulation  |                                                 |
\*---------------------------------------------------------------------------*/
FoamFile
{
    version     2.0;
    format      ascii;
    class       volScalarField;
    location    "0.09";
    object      A1C2H*;
}
// * * * * * * * * * * * * * * * * * * * * * * * * * * * * * * * * * * * * * //

dimensions      [0 0 0 0 0 0 0];

internalField   nonuniform List<scalar> 
250
(
6.51134e-07
6.51439e-07
6.51381e-07
6.51398e-07
6.51702e-07
6.51371e-07
6.51727e-07
6.5254e-07
6.57248e-07
6.55592e-07
1.23691e-09
5.53368e-07
5.53452e-07
5.53333e-07
5.53468e-07
5.53719e-07
5.53387e-07
5.5403e-07
5.55467e-07
5.69206e-07
7.04421e-07
7.74634e-10
3.58114e-07
3.5818e-07
3.58024e-07
3.58224e-07
3.58553e-07
3.58111e-07
3.58922e-07
3.60545e-07
3.74799e-07
5.26739e-07
4.0096e-10
2.17555e-07
2.17623e-07
2.17469e-07
2.17682e-07
2.1821e-07
2.17581e-07
2.18521e-07
2.20097e-07
2.3195e-07
3.57588e-07
2.404e-10
1.33517e-07
1.33579e-07
1.33453e-07
1.33639e-07
1.34622e-07
1.33575e-07
1.34822e-07
1.36184e-07
1.453e-07
2.38298e-07
1.61021e-10
8.54078e-08
8.54594e-08
8.53709e-08
8.55089e-08
8.4969e-08
8.54814e-08
8.52613e-08
8.71755e-08
9.45965e-08
1.61513e-07
1.1487e-10
5.74931e-08
5.75288e-08
5.74705e-08
5.75715e-08
5.73171e-08
5.75813e-08
5.75717e-08
5.93655e-08
6.51597e-08
1.13582e-07
9.02959e-11
4.06944e-08
4.07049e-08
4.06654e-08
4.07504e-08
4.0623e-08
4.07911e-08
4.08999e-08
4.27214e-08
4.73274e-08
8.38956e-08
8.60181e-11
3.01029e-08
2.99845e-08
3.00298e-08
3.01417e-08
3.01071e-08
3.015e-08
3.02957e-08
3.1776e-08
3.5409e-08
6.26194e-08
1.06887e-10
2.32626e-08
2.30317e-08
2.31269e-08
2.32842e-08
2.32934e-08
2.32892e-08
2.34654e-08
2.40898e-08
2.70231e-08
4.73683e-08
2.03879e-10
1.83006e-08
1.81434e-08
1.84443e-08
1.85046e-08
1.84146e-08
1.86969e-08
1.95249e-08
2.19599e-08
3.69505e-08
4.14577e-10
1.4961e-08
1.48507e-08
1.48536e-08
1.49427e-08
1.47682e-08
1.5079e-08
1.59094e-08
1.82003e-08
3.04192e-08
8.23856e-10
1.23662e-08
1.24965e-08
1.22781e-08
1.23852e-08
1.21035e-08
1.24443e-08
1.32665e-08
1.53185e-08
2.54259e-08
1.45977e-09
1.03833e-08
1.05377e-08
1.03671e-08
1.04855e-08
1.03297e-08
1.07009e-08
1.12796e-08
1.31581e-08
2.16003e-08
2.33644e-09
8.8513e-09
9.04555e-09
8.9045e-09
9.02832e-09
8.97227e-09
9.30224e-09
9.73725e-09
1.14869e-08
1.86832e-08
3.47279e-09
7.78122e-09
7.87871e-09
7.75351e-09
7.87807e-09
7.75851e-09
8.125e-09
8.50607e-09
1.01538e-08
1.6254e-08
4.88392e-09
6.80902e-09
6.9417e-09
6.8258e-09
6.94866e-09
6.88467e-09
7.1698e-09
7.50033e-09
9.05931e-09
1.45014e-08
6.5496e-09
6.10095e-09
6.17207e-09
6.06292e-09
6.18276e-09
6.16981e-09
6.38159e-09
6.65909e-09
8.13448e-09
1.31391e-08
8.38872e-09
5.43725e-09
5.52812e-09
5.42518e-09
5.54151e-09
5.49477e-09
5.71847e-09
6.03897e-09
7.43066e-09
1.20536e-08
1.02847e-08
4.93745e-09
4.98286e-09
4.88464e-09
4.9985e-09
4.98344e-09
5.14912e-09
5.46431e-09
6.79361e-09
1.11658e-08
1.21242e-08
4.45852e-09
4.51664e-09
4.42048e-09
4.53415e-09
4.49568e-09
4.70604e-09
4.95421e-09
6.19632e-09
1.04198e-08
1.38151e-08
4.08862e-09
4.11458e-09
4.06336e-09
4.13351e-09
4.12348e-09
4.32197e-09
4.51111e-09
5.66383e-09
9.68662e-09
1.52798e-08
3.77042e-09
3.80459e-09
3.75464e-09
3.82452e-09
3.80537e-09
3.9909e-09
4.17055e-09
5.23823e-09
9.01145e-09
1.64482e-08
3.49612e-09
3.51202e-09
3.46619e-09
3.53222e-09
3.50819e-09
3.67925e-09
3.84282e-09
4.82546e-09
8.43446e-09
1.72551e-08
)
;

boundaryField
{
    fuel
    {
        type            fixedValue;
        value           uniform 0;
    }
    wall
    {
        type            zeroGradient;
    }
    outlet
    {
        type            zeroGradient;
    }
    frontAndBack
    {
        type            empty;
    }
    procBoundary3to0
    {
        type            processor;
        value           nonuniform List<scalar> 10(3.2594e-09 3.27818e-09 3.23861e-09 3.29868e-09 3.27467e-09 3.4288e-09 3.58022e-09 4.47841e-09 7.89469e-09 1.76354e-08);
    }
    procBoundary3to2
    {
        type            processor;
        value           nonuniform List<scalar> 
25
(
6.51532e-07
5.53543e-07
3.58319e-07
2.17825e-07
1.33793e-07
8.54424e-08
5.74898e-08
4.07103e-08
3.01225e-08
2.32854e-08
1.84366e-08
1.84366e-08
1.48556e-08
1.22835e-08
1.03716e-08
8.90348e-09
7.74264e-09
6.79951e-09
6.01464e-09
5.42899e-09
4.93159e-09
4.47239e-09
4.07181e-09
3.76299e-09
3.47216e-09
)
;
    }
}


// ************************************************************************* //
