/*--------------------------------*- C++ -*----------------------------------*\
| =========                 |                                                 |
| \\      /  F ield         | OpenFOAM: The Open Source CFD Toolbox           |
|  \\    /   O peration     | Version:  dev                                   |
|   \\  /    A nd           | Web:      www.OpenFOAM.org                      |
|    \\/     M anipulation  |                                                 |
\*---------------------------------------------------------------------------*/
FoamFile
{
    version     2.0;
    format      ascii;
    class       volScalarField;
    location    "0.09";
    object      A2C2HA*;
}
// * * * * * * * * * * * * * * * * * * * * * * * * * * * * * * * * * * * * * //

dimensions      [0 0 0 0 0 0 0];

internalField   nonuniform List<scalar> 
250
(
9.79006e-10
9.79572e-10
9.79493e-10
9.79428e-10
9.79966e-10
9.79501e-10
9.80347e-10
9.83458e-10
1.01268e-09
1.32493e-09
2.24016e-12
5.78744e-10
5.78859e-10
5.78725e-10
5.78824e-10
5.79187e-10
5.78797e-10
5.79747e-10
5.82822e-10
6.16018e-10
1.15201e-09
1.06793e-12
2.81255e-10
2.81311e-10
2.81163e-10
2.8133e-10
2.81639e-10
2.81254e-10
2.82095e-10
2.84377e-10
3.07128e-10
7.1237e-10
4.60366e-13
1.4148e-10
1.4152e-10
1.41394e-10
1.41562e-10
1.41931e-10
1.41495e-10
1.42248e-10
1.43926e-10
1.58411e-10
4.19292e-10
2.46755e-13
7.8148e-11
7.81772e-11
7.80843e-11
7.82224e-11
7.88376e-11
7.81818e-11
7.90306e-11
8.02603e-11
8.96329e-11
2.50473e-10
1.51034e-13
4.78196e-11
4.78399e-11
4.77781e-11
4.78784e-11
4.75868e-11
4.78606e-11
4.78042e-11
4.91801e-11
5.57955e-11
1.55288e-10
9.97483e-14
3.20273e-11
3.20375e-11
3.19985e-11
3.20716e-11
3.19547e-11
3.20751e-11
3.21338e-11
3.33379e-11
3.81028e-11
1.01162e-10
7.22837e-14
2.30453e-11
2.30407e-11
2.30155e-11
2.30761e-11
2.30293e-11
2.30966e-11
2.32113e-11
2.4375e-11
2.79695e-11
6.99496e-11
6.13877e-14
1.74827e-11
1.74079e-11
1.74296e-11
1.75031e-11
1.75037e-11
1.7507e-11
1.76341e-11
1.85893e-11
2.13413e-11
4.9021e-11
6.55585e-14
1.38534e-11
1.37154e-11
1.3765e-11
1.38634e-11
1.38855e-11
1.38649e-11
1.40028e-11
1.44828e-11
1.66589e-11
3.50055e-11
1.13121e-13
1.11278e-11
1.10379e-11
1.12162e-11
1.12644e-11
1.11972e-11
1.13895e-11
1.19728e-11
1.37742e-11
2.60242e-11
2.13984e-13
9.22764e-12
9.16399e-12
9.16799e-12
9.23061e-12
9.11512e-12
9.32061e-12
9.90117e-12
1.15671e-11
2.07297e-11
4.24999e-13
7.68577e-12
7.76695e-12
7.63217e-12
7.7036e-12
7.52408e-12
7.74488e-12
8.31883e-12
9.81454e-12
1.69164e-11
7.936e-13
6.45874e-12
6.55622e-12
6.44577e-12
6.52273e-12
6.42358e-12
6.66149e-12
7.08076e-12
8.45472e-12
1.41554e-11
1.35848e-12
5.47898e-12
5.60279e-12
5.50817e-12
5.58763e-12
5.55482e-12
5.76455e-12
6.08838e-12
7.37146e-12
1.21581e-11
2.13635e-12
4.77884e-12
4.8392e-12
4.75362e-12
4.83301e-12
4.75959e-12
4.99239e-12
5.27788e-12
6.48762e-12
1.05726e-11
3.12353e-12
4.13317e-12
4.21685e-12
4.13714e-12
4.21521e-12
4.17856e-12
4.35731e-12
4.60619e-12
5.75079e-12
9.46755e-12
4.30446e-12
3.65889e-12
3.70175e-12
3.62671e-12
3.70285e-12
3.69938e-12
3.82974e-12
4.03986e-12
5.12212e-12
8.62642e-12
5.65041e-12
3.21253e-12
3.26927e-12
3.19866e-12
3.27279e-12
3.24528e-12
3.38468e-12
3.62053e-12
4.64066e-12
7.959e-12
7.11694e-12
2.8751e-12
2.90215e-12
2.83488e-12
2.90792e-12
2.90017e-12
3.00178e-12
3.23104e-12
4.20293e-12
7.40576e-12
8.63571e-12
2.55021e-12
2.5868e-12
2.52083e-12
2.59456e-12
2.56939e-12
2.70251e-12
2.88393e-12
3.79036e-12
6.92776e-12
1.01145e-11
2.29676e-12
2.3123e-12
2.27652e-12
2.32165e-12
2.31432e-12
2.44094e-12
2.57981e-12
3.41928e-12
6.43974e-12
1.14505e-11
2.07536e-12
2.09732e-12
2.06178e-12
2.10778e-12
2.09277e-12
2.21234e-12
2.34259e-12
3.11853e-12
5.97154e-12
1.25512e-11
1.8805e-12
1.89006e-12
1.85658e-12
1.90101e-12
1.88121e-12
1.99291e-12
2.10976e-12
2.82177e-12
5.55583e-12
1.33463e-11
)
;

boundaryField
{
    fuel
    {
        type            fixedValue;
        value           uniform 0;
    }
    wall
    {
        type            zeroGradient;
    }
    outlet
    {
        type            zeroGradient;
    }
    frontAndBack
    {
        type            empty;
    }
    procBoundary3to0
    {
        type            processor;
        value           nonuniform List<scalar> 10(1.70821e-12 1.72028e-12 1.69041e-12 1.73151e-12 1.71065e-12 1.81229e-12 1.91882e-12 2.56738e-12 5.15519e-12 1.37831e-11);
    }
    procBoundary3to2
    {
        type            processor;
        value           nonuniform List<scalar> 
25
(
9.79738e-10
5.78952e-10
2.81421e-10
1.41658e-10
7.83144e-11
4.78482e-11
3.20325e-11
2.30588e-11
1.74972e-11
1.38687e-11
1.1214e-11
1.1214e-11
9.17247e-12
7.63959e-12
6.45357e-12
5.51345e-12
4.75337e-12
4.12742e-12
3.60263e-12
3.20926e-12
2.87404e-12
2.56315e-12
2.28945e-12
2.07514e-12
1.86901e-12
)
;
    }
}


// ************************************************************************* //
