/*--------------------------------*- C++ -*----------------------------------*\
| =========                 |                                                 |
| \\      /  F ield         | OpenFOAM: The Open Source CFD Toolbox           |
|  \\    /   O peration     | Version:  dev                                   |
|   \\  /    A nd           | Web:      www.OpenFOAM.org                      |
|    \\/     M anipulation  |                                                 |
\*---------------------------------------------------------------------------*/
FoamFile
{
    version     2.0;
    format      ascii;
    class       volScalarField;
    location    "0.09";
    object      C;
}
// * * * * * * * * * * * * * * * * * * * * * * * * * * * * * * * * * * * * * //

dimensions      [0 0 0 0 0 0 0];

internalField   nonuniform List<scalar> 
250
(
2.40238e-06
2.41083e-06
2.4112e-06
2.41021e-06
2.41001e-06
2.41038e-06
2.41131e-06
2.40793e-06
2.30991e-06
1.14639e-06
2.57723e-10
2.09418e-06
2.09623e-06
2.09584e-06
2.09603e-06
2.09579e-06
2.09544e-06
2.09585e-06
2.09024e-06
2.02343e-06
1.1807e-06
4.02292e-10
8.93709e-07
8.94491e-07
8.94098e-07
8.94407e-07
8.94345e-07
8.93877e-07
8.94521e-07
8.91651e-07
8.61527e-07
5.12762e-07
2.23716e-10
3.20761e-07
3.21127e-07
3.20872e-07
3.21104e-07
3.21348e-07
3.20816e-07
3.21466e-07
3.20413e-07
3.0767e-07
1.83391e-07
9.32137e-11
1.18142e-07
1.18314e-07
1.18178e-07
1.18314e-07
1.19184e-07
1.1819e-07
1.19164e-07
1.18597e-07
1.12421e-07
6.44358e-08
3.63173e-11
5.02075e-08
5.02896e-08
5.02238e-08
5.02935e-08
4.95876e-08
5.02405e-08
4.96712e-08
4.99229e-08
4.67788e-08
2.45193e-08
1.4966e-11
2.63242e-08
2.63636e-08
2.63327e-08
2.63703e-08
2.61142e-08
2.63493e-08
2.61416e-08
2.62699e-08
2.40929e-08
1.08699e-08
7.13352e-12
1.69986e-08
1.70169e-08
1.70013e-08
1.70251e-08
1.69256e-08
1.70192e-08
1.69457e-08
1.70587e-08
1.53246e-08
5.91689e-09
4.20227e-12
1.28309e-08
1.28055e-08
1.28212e-08
1.2848e-08
1.28185e-08
1.28314e-08
1.28041e-08
1.28006e-08
1.12944e-08
3.78926e-09
3.22462e-12
1.07348e-08
1.06803e-08
1.07117e-08
1.07462e-08
1.07442e-08
1.0729e-08
1.07273e-08
1.05107e-08
9.17361e-09
2.8601e-09
4.91156e-12
9.44881e-09
9.42291e-09
9.49024e-09
9.50928e-09
9.46351e-09
9.49875e-09
9.34948e-09
8.1076e-09
2.48738e-09
7.94304e-12
8.64189e-09
8.63145e-09
8.63007e-09
8.66241e-09
8.58787e-09
8.63984e-09
8.50177e-09
7.39506e-09
2.38706e-09
1.37515e-11
8.00977e-09
8.06192e-09
8.00691e-09
8.04952e-09
7.93952e-09
8.00963e-09
7.87985e-09
6.86225e-09
2.40522e-09
2.5585e-11
7.48414e-09
7.55021e-09
7.50291e-09
7.55461e-09
7.46907e-09
7.55789e-09
7.37583e-09
6.44063e-09
2.48882e-09
5.01959e-11
7.01726e-09
7.10499e-09
7.05885e-09
7.11893e-09
7.05665e-09
7.1448e-09
6.93208e-09
6.07479e-09
2.60099e-09
9.91928e-11
6.63184e-09
6.6929e-09
6.64318e-09
6.71129e-09
6.61915e-09
6.73501e-09
6.51799e-09
5.73478e-09
2.72392e-09
1.89939e-10
6.20941e-09
6.29398e-09
6.23825e-09
6.31474e-09
6.24119e-09
6.33652e-09
6.11608e-09
5.40361e-09
2.81623e-09
3.40969e-10
5.83773e-09
5.8967e-09
5.83361e-09
5.91915e-09
5.86736e-09
5.93981e-09
5.71444e-09
5.07038e-09
2.86967e-09
5.59397e-10
5.41437e-09
5.49397e-09
5.42274e-09
5.51827e-09
5.4387e-09
5.53658e-09
5.36215e-09
4.77103e-09
2.87586e-09
8.26155e-10
5.03029e-09
5.08212e-09
5.00129e-09
5.10842e-09
5.0487e-09
5.1188e-09
4.97259e-09
4.4523e-09
2.83152e-09
1.0948e-09
4.5867e-09
4.65838e-09
4.56574e-09
4.68678e-09
4.6015e-09
4.73099e-09
4.56101e-09
4.10301e-09
2.73925e-09
1.3099e-09
4.17904e-09
4.22077e-09
4.16671e-09
4.2512e-09
4.19507e-09
4.33272e-09
4.13685e-09
3.74202e-09
2.58614e-09
1.4318e-09
3.76394e-09
3.82113e-09
3.75739e-09
3.85326e-09
3.78216e-09
3.92788e-09
3.75383e-09
3.41117e-09
2.38988e-09
1.45069e-09
3.34415e-09
3.37533e-09
3.30571e-09
3.40827e-09
3.32545e-09
3.47979e-09
3.32092e-09
3.04449e-09
2.18205e-09
1.38283e-09
)
;

boundaryField
{
    fuel
    {
        type            fixedValue;
        value           uniform 0;
    }
    wall
    {
        type            zeroGradient;
    }
    outlet
    {
        type            zeroGradient;
    }
    frontAndBack
    {
        type            empty;
    }
    procBoundary3to0
    {
        type            processor;
        value           nonuniform List<scalar> 10(2.92444e-09 2.96302e-09 2.89349e-09 2.9965e-09 2.90956e-09 3.06325e-09 2.92248e-09 2.69898e-09 1.96574e-09 1.25564e-09);
    }
    procBoundary3to2
    {
        type            processor;
        value           nonuniform List<scalar> 
25
(
2.41332e-06
2.09661e-06
8.94587e-07
3.21231e-07
1.1842e-07
5.02383e-08
2.6316e-08
1.69988e-08
1.28355e-08
1.07428e-08
9.48296e-09
9.48296e-09
8.62539e-09
8.00286e-09
7.49826e-09
7.05225e-09
6.6332e-09
6.22264e-09
5.80894e-09
5.43706e-09
5.05676e-09
4.63402e-09
4.19254e-09
3.78968e-09
3.34177e-09
)
;
    }
}


// ************************************************************************* //
