/*--------------------------------*- C++ -*----------------------------------*\
| =========                 |                                                 |
| \\      /  F ield         | OpenFOAM: The Open Source CFD Toolbox           |
|  \\    /   O peration     | Version:  dev                                   |
|   \\  /    A nd           | Web:      www.OpenFOAM.org                      |
|    \\/     M anipulation  |                                                 |
\*---------------------------------------------------------------------------*/
FoamFile
{
    version     2.0;
    format      ascii;
    class       volScalarField;
    location    "0.09";
    object      C2H;
}
// * * * * * * * * * * * * * * * * * * * * * * * * * * * * * * * * * * * * * //

dimensions      [0 0 0 0 0 0 0];

internalField   nonuniform List<scalar> 
25
(
1.83057e-12
1.43153e-12
1.09792e-12
8.19043e-13
6.00935e-13
4.28232e-13
2.98323e-13
2.01898e-13
1.32388e-13
8.38278e-14
5.10386e-14
2.97166e-14
1.64303e-14
8.54946e-15
4.13915e-15
1.83778e-15
7.35281e-16
2.59733e-16
7.91256e-17
2.02533e-17
4.2514e-18
7.27706e-19
1.11235e-19
2.63364e-20
1.47655e-20
)
;

boundaryField
{
    wall
    {
        type            zeroGradient;
    }
    fuel
    {
        type            fixedValue;
        value           nonuniform 0();
    }
    outlet
    {
        type            inletOutlet;
        inletValue      uniform 0;
        value           uniform 1.47655e-20;
    }
    procBoundary3to2
    {
        type            processor;
        value           uniform 2.30417e-12;
    }
}


// ************************************************************************* //
