/*--------------------------------*- C++ -*----------------------------------*\
| =========                 |                                                 |
| \\      /  F ield         | OpenFOAM: The Open Source CFD Toolbox           |
|  \\    /   O peration     | Version:  dev                                   |
|   \\  /    A nd           | Web:      www.OpenFOAM.org                      |
|    \\/     M anipulation  |                                                 |
\*---------------------------------------------------------------------------*/
FoamFile
{
    version     2.0;
    format      ascii;
    class       volScalarField;
    location    "0.09";
    object      C4H;
}
// * * * * * * * * * * * * * * * * * * * * * * * * * * * * * * * * * * * * * //

dimensions      [0 0 0 0 0 0 0];

internalField   nonuniform List<scalar> 
1989
(
3.42764e-10
3.4243e-10
3.42276e-10
3.42059e-10
3.42003e-10
3.41866e-10
3.41853e-10
3.4177e-10
3.41775e-10
3.41726e-10
3.41735e-10
3.41709e-10
3.41715e-10
3.41706e-10
3.41706e-10
3.41715e-10
3.41709e-10
3.41734e-10
3.41726e-10
3.41775e-10
3.4177e-10
3.41853e-10
3.41867e-10
3.42003e-10
3.42061e-10
3.42278e-10
3.42432e-10
3.42766e-10
3.43158e-10
3.43733e-10
3.44656e-10
3.45689e-10
3.47579e-10
3.49513e-10
3.53289e-10
3.57546e-10
3.62519e-10
3.71052e-10
3.75988e-10
3.22123e-10
3.17676e-10
3.09996e-10
3.05602e-10
3.0189e-10
2.9858e-10
2.96882e-10
2.95228e-10
2.94333e-10
2.93524e-10
2.93028e-10
2.92678e-10
2.92388e-10
2.92255e-10
2.92066e-10
2.92018e-10
2.91899e-10
2.91889e-10
2.91816e-10
2.91821e-10
2.91778e-10
2.91786e-10
2.91763e-10
2.91769e-10
2.91761e-10
2.91761e-10
2.91769e-10
2.91763e-10
2.91786e-10
2.91778e-10
2.9182e-10
2.91816e-10
2.91889e-10
2.91899e-10
2.92019e-10
2.92067e-10
2.92257e-10
2.92389e-10
2.92679e-10
2.93025e-10
2.93525e-10
2.94334e-10
2.95226e-10
2.96879e-10
2.98576e-10
3.01885e-10
3.05595e-10
3.09986e-10
3.1767e-10
3.22115e-10
2.74281e-10
2.70306e-10
2.63428e-10
2.59577e-10
2.56366e-10
2.53487e-10
2.52004e-10
2.5057e-10
2.49804e-10
2.49099e-10
2.4867e-10
2.48365e-10
2.48114e-10
2.48001e-10
2.47837e-10
2.47797e-10
2.47693e-10
2.47686e-10
2.47623e-10
2.47628e-10
2.4759e-10
2.47598e-10
2.47578e-10
2.47583e-10
2.47576e-10
2.47576e-10
2.47583e-10
2.47578e-10
2.47597e-10
2.4759e-10
2.47627e-10
2.47622e-10
2.47686e-10
2.47694e-10
2.47798e-10
2.47838e-10
2.48003e-10
2.48116e-10
2.48366e-10
2.48668e-10
2.49099e-10
2.49805e-10
2.50568e-10
2.52002e-10
2.53484e-10
2.56361e-10
2.59571e-10
2.63418e-10
2.70301e-10
2.74274e-10
2.31669e-10
2.28116e-10
2.21926e-10
2.18562e-10
2.15787e-10
2.13288e-10
2.12014e-10
2.10765e-10
2.10111e-10
2.09498e-10
2.09127e-10
2.08863e-10
2.08646e-10
2.0855e-10
2.08408e-10
2.08375e-10
2.08286e-10
2.0828e-10
2.08226e-10
2.08231e-10
2.08198e-10
2.08205e-10
2.08188e-10
2.08192e-10
2.08187e-10
2.08186e-10
2.08192e-10
2.08188e-10
2.08205e-10
2.08198e-10
2.0823e-10
2.08225e-10
2.0828e-10
2.08286e-10
2.08376e-10
2.08409e-10
2.08551e-10
2.08647e-10
2.08863e-10
2.09126e-10
2.09497e-10
2.10112e-10
2.10763e-10
2.12011e-10
2.13285e-10
2.15783e-10
2.18557e-10
2.21917e-10
2.28113e-10
2.31663e-10
1.93844e-10
1.90749e-10
1.85988e-10
1.83117e-10
1.80747e-10
1.78601e-10
1.77531e-10
1.76451e-10
1.759e-10
1.75375e-10
1.75057e-10
1.74833e-10
1.74646e-10
1.74566e-10
1.74445e-10
1.74418e-10
1.74342e-10
1.74338e-10
1.74291e-10
1.74296e-10
1.74268e-10
1.74274e-10
1.7426e-10
1.74263e-10
1.74258e-10
1.74258e-10
1.74263e-10
1.74259e-10
1.74274e-10
1.74268e-10
1.74296e-10
1.74291e-10
1.74338e-10
1.74342e-10
1.74419e-10
1.74446e-10
1.74567e-10
1.74647e-10
1.74833e-10
1.75057e-10
1.75374e-10
1.75901e-10
1.7645e-10
1.77529e-10
1.78598e-10
1.80743e-10
1.83112e-10
1.8598e-10
1.90746e-10
1.93838e-10
1.61607e-10
1.58917e-10
1.5468e-10
1.5213e-10
1.50072e-10
1.48191e-10
1.47276e-10
1.46331e-10
1.4586e-10
1.45406e-10
1.45131e-10
1.44938e-10
1.44776e-10
1.44708e-10
1.44603e-10
1.44581e-10
1.44515e-10
1.44512e-10
1.44472e-10
1.44476e-10
1.44452e-10
1.44458e-10
1.44445e-10
1.44449e-10
1.44444e-10
1.44444e-10
1.44448e-10
1.44445e-10
1.44458e-10
1.44452e-10
1.44476e-10
1.44472e-10
1.44512e-10
1.44515e-10
1.44581e-10
1.44604e-10
1.44709e-10
1.44777e-10
1.44937e-10
1.45131e-10
1.45405e-10
1.45861e-10
1.4633e-10
1.47274e-10
1.48188e-10
1.50069e-10
1.52126e-10
1.54673e-10
1.58915e-10
1.61602e-10
1.3372e-10
1.31388e-10
1.27732e-10
1.25556e-10
1.23833e-10
1.22235e-10
1.21479e-10
1.20673e-10
1.20282e-10
1.19898e-10
1.19667e-10
1.19504e-10
1.19367e-10
1.19311e-10
1.19223e-10
1.19205e-10
1.19149e-10
1.19148e-10
1.19114e-10
1.19118e-10
1.19098e-10
1.19103e-10
1.19092e-10
1.19095e-10
1.19091e-10
1.19091e-10
1.19095e-10
1.19092e-10
1.19102e-10
1.19097e-10
1.19118e-10
1.19114e-10
1.19148e-10
1.19149e-10
1.19206e-10
1.19224e-10
1.19312e-10
1.19368e-10
1.19503e-10
1.19667e-10
1.19897e-10
1.20283e-10
1.20672e-10
1.21477e-10
1.22233e-10
1.2383e-10
1.25552e-10
1.27726e-10
1.31386e-10
1.33716e-10
1.09662e-10
1.07616e-10
1.04472e-10
1.02592e-10
1.0115e-10
9.97844e-11
9.91559e-11
9.84665e-11
9.8141e-11
9.78142e-11
9.76192e-11
9.74803e-11
9.7365e-11
9.73184e-11
9.7244e-11
9.72301e-11
9.7183e-11
9.71825e-11
9.71536e-11
9.71578e-11
9.71406e-11
9.71451e-11
9.71359e-11
9.71386e-11
9.71356e-11
9.71355e-11
9.71386e-11
9.71358e-11
9.71449e-11
9.71404e-11
9.71576e-11
9.71535e-11
9.71825e-11
9.71831e-11
9.72304e-11
9.72446e-11
9.73192e-11
9.73657e-11
9.748e-11
9.76193e-11
9.78131e-11
9.8141e-11
9.84653e-11
9.91542e-11
9.97825e-11
1.01147e-10
1.02589e-10
1.04467e-10
1.07614e-10
1.09659e-10
8.8848e-11
8.71069e-11
8.44985e-11
8.28974e-11
8.17193e-11
8.05871e-11
8.00772e-11
7.9504e-11
7.92398e-11
7.89686e-11
7.88087e-11
7.86937e-11
7.85985e-11
7.85606e-11
7.84996e-11
7.84886e-11
7.84499e-11
7.84499e-11
7.84262e-11
7.84298e-11
7.84157e-11
7.84195e-11
7.84119e-11
7.84142e-11
7.84117e-11
7.84117e-11
7.84142e-11
7.84118e-11
7.84194e-11
7.84155e-11
7.84296e-11
7.84261e-11
7.84499e-11
7.845e-11
7.84888e-11
7.85001e-11
7.85613e-11
7.85991e-11
7.86935e-11
7.88087e-11
7.8968e-11
7.92397e-11
7.9503e-11
8.00758e-11
8.05855e-11
8.17173e-11
8.28949e-11
8.44946e-11
8.71051e-11
8.8845e-11
7.12951e-11
6.98267e-11
6.7698e-11
6.63316e-11
6.53799e-11
6.44518e-11
6.40426e-11
6.35713e-11
6.33595e-11
6.31358e-11
6.30071e-11
6.29129e-11
6.2835e-11
6.28044e-11
6.27549e-11
6.27464e-11
6.27151e-11
6.27153e-11
6.26961e-11
6.26992e-11
6.26878e-11
6.2691e-11
6.26848e-11
6.26867e-11
6.26847e-11
6.26847e-11
6.26867e-11
6.26847e-11
6.26909e-11
6.26876e-11
6.26991e-11
6.2696e-11
6.27153e-11
6.27151e-11
6.27466e-11
6.27553e-11
6.2805e-11
6.28354e-11
6.29128e-11
6.3007e-11
6.31354e-11
6.33593e-11
6.35705e-11
6.40415e-11
6.44505e-11
6.53783e-11
6.63296e-11
6.7695e-11
6.9825e-11
7.12926e-11
5.66259e-11
5.54013e-11
5.36831e-11
5.27466e-11
5.19829e-11
5.12216e-11
5.08972e-11
5.05094e-11
5.03404e-11
5.0158e-11
5.0054e-11
4.9978e-11
4.99139e-11
4.98896e-11
4.98495e-11
4.98432e-11
4.98177e-11
4.98183e-11
4.98027e-11
4.98055e-11
4.97962e-11
4.9799e-11
4.97939e-11
4.97956e-11
4.97939e-11
4.97939e-11
4.97955e-11
4.97938e-11
4.97989e-11
4.9796e-11
4.98054e-11
4.98026e-11
4.98183e-11
4.98177e-11
4.98433e-11
4.98499e-11
4.98901e-11
4.99143e-11
4.9978e-11
5.0054e-11
5.01578e-11
5.03402e-11
5.05087e-11
5.08963e-11
5.12206e-11
5.19816e-11
5.27449e-11
5.36809e-11
5.53997e-11
5.66238e-11
4.46739e-11
4.3661e-11
4.22748e-11
4.15039e-11
4.08977e-11
4.02798e-11
4.00259e-11
3.971e-11
3.95768e-11
3.94281e-11
3.93408e-11
3.92773e-11
3.92222e-11
3.92019e-11
3.91681e-11
3.9163e-11
3.91416e-11
3.91423e-11
3.91291e-11
3.91316e-11
3.91237e-11
3.91261e-11
3.91218e-11
3.91232e-11
3.91218e-11
3.91217e-11
3.91232e-11
3.91217e-11
3.9126e-11
3.91235e-11
3.91315e-11
3.9129e-11
3.91422e-11
3.91416e-11
3.91631e-11
3.91684e-11
3.92022e-11
3.92225e-11
3.92773e-11
3.93408e-11
3.94279e-11
3.95766e-11
3.97094e-11
4.00252e-11
4.0279e-11
4.08967e-11
4.15025e-11
4.22732e-11
4.36596e-11
4.46721e-11
3.47606e-11
3.39144e-11
3.27873e-11
3.21562e-11
3.16769e-11
3.11866e-11
3.09903e-11
3.07383e-11
3.06349e-11
3.05163e-11
3.04479e-11
3.03976e-11
3.0353e-11
3.03368e-11
3.03101e-11
3.03064e-11
3.02894e-11
3.02901e-11
3.02797e-11
3.02818e-11
3.02756e-11
3.02775e-11
3.02741e-11
3.02753e-11
3.02742e-11
3.02741e-11
3.02753e-11
3.02741e-11
3.02775e-11
3.02755e-11
3.02817e-11
3.02797e-11
3.02901e-11
3.02894e-11
3.03065e-11
3.03104e-11
3.03371e-11
3.03532e-11
3.03975e-11
3.04479e-11
3.05163e-11
3.06347e-11
3.07379e-11
3.09897e-11
3.11859e-11
3.1676e-11
3.21552e-11
3.27861e-11
3.39131e-11
3.47591e-11
2.66445e-11
2.59614e-11
2.50762e-11
2.45774e-11
2.42058e-11
2.38231e-11
2.36736e-11
2.34755e-11
2.33962e-11
2.33031e-11
2.32502e-11
2.32108e-11
2.31751e-11
2.31624e-11
2.31416e-11
2.31388e-11
2.31256e-11
2.31263e-11
2.31183e-11
2.312e-11
2.31151e-11
2.31167e-11
2.3114e-11
2.3115e-11
2.31141e-11
2.31141e-11
2.3115e-11
2.3114e-11
2.31166e-11
2.3115e-11
2.31199e-11
2.31182e-11
2.31263e-11
2.31256e-11
2.31389e-11
2.31418e-11
2.31626e-11
2.31753e-11
2.32108e-11
2.32502e-11
2.33032e-11
2.3396e-11
2.34751e-11
2.36731e-11
2.38225e-11
2.42051e-11
2.45765e-11
2.50753e-11
2.59604e-11
2.66434e-11
2.02298e-11
1.96774e-11
1.89939e-11
1.86003e-11
1.83147e-11
1.80182e-11
1.79066e-11
1.77517e-11
1.76918e-11
1.76195e-11
1.75789e-11
1.75485e-11
1.752e-11
1.751e-11
1.74939e-11
1.74919e-11
1.74817e-11
1.74824e-11
1.74761e-11
1.74776e-11
1.74738e-11
1.74751e-11
1.7473e-11
1.74737e-11
1.74731e-11
1.74731e-11
1.74737e-11
1.7473e-11
1.7475e-11
1.74737e-11
1.74775e-11
1.74761e-11
1.74824e-11
1.74817e-11
1.7492e-11
1.7494e-11
1.75102e-11
1.75201e-11
1.75484e-11
1.7579e-11
1.76195e-11
1.76916e-11
1.77514e-11
1.79062e-11
1.80177e-11
1.83142e-11
1.85997e-11
1.89932e-11
1.96767e-11
2.02289e-11
1.51296e-11
1.46936e-11
1.41751e-11
1.38659e-11
1.36485e-11
1.34143e-11
1.33303e-11
1.3208e-11
1.31624e-11
1.31056e-11
1.30745e-11
1.30507e-11
1.30279e-11
1.30199e-11
1.30073e-11
1.30059e-11
1.2998e-11
1.29986e-11
1.29937e-11
1.29949e-11
1.2992e-11
1.2993e-11
1.29914e-11
1.2992e-11
1.29915e-11
1.29915e-11
1.2992e-11
1.29914e-11
1.2993e-11
1.29919e-11
1.29949e-11
1.29937e-11
1.29986e-11
1.2998e-11
1.3006e-11
1.30074e-11
1.302e-11
1.3028e-11
1.30507e-11
1.30746e-11
1.31057e-11
1.31623e-11
1.32077e-11
1.333e-11
1.3414e-11
1.36481e-11
1.38654e-11
1.41745e-11
1.4693e-11
1.51289e-11
1.11292e-11
1.0797e-11
1.04067e-11
1.01684e-11
1.00079e-11
9.8307e-12
9.77007e-12
9.67706e-12
9.64363e-12
9.60079e-12
9.57775e-12
9.55977e-12
9.54195e-12
9.53565e-12
9.52611e-12
9.52521e-12
9.51919e-12
9.51978e-12
9.51609e-12
9.51706e-12
9.51484e-12
9.51567e-12
9.51444e-12
9.5149e-12
9.51449e-12
9.51449e-12
9.5149e-12
9.51442e-12
9.51564e-12
9.5148e-12
9.51703e-12
9.51607e-12
9.51977e-12
9.51919e-12
9.52524e-12
9.52619e-12
9.53576e-12
9.54204e-12
9.55976e-12
9.57781e-12
9.60081e-12
9.64349e-12
9.67689e-12
9.76985e-12
9.83045e-12
1.00077e-11
1.01681e-11
1.04063e-11
1.07966e-11
1.11287e-11
8.04115e-12
7.79285e-12
7.5042e-12
7.32438e-12
7.208e-12
7.0764e-12
7.03373e-12
6.96422e-12
6.94012e-12
6.90837e-12
6.89167e-12
6.87835e-12
6.86466e-12
6.85969e-12
6.85254e-12
6.85197e-12
6.8475e-12
6.84801e-12
6.84527e-12
6.84604e-12
6.84439e-12
6.84503e-12
6.84412e-12
6.84448e-12
6.84417e-12
6.84417e-12
6.84448e-12
6.84411e-12
6.84501e-12
6.84436e-12
6.84602e-12
6.84526e-12
6.848e-12
6.8475e-12
6.85199e-12
6.8526e-12
6.85977e-12
6.86472e-12
6.87835e-12
6.89171e-12
6.90839e-12
6.94001e-12
6.96408e-12
7.03357e-12
7.07622e-12
7.20778e-12
7.3241e-12
7.50389e-12
7.79252e-12
8.04078e-12
5.69102e-12
5.50509e-12
5.29191e-12
5.15759e-12
5.07341e-12
4.97724e-12
4.94744e-12
4.89627e-12
4.87891e-12
4.85581e-12
4.84384e-12
4.83408e-12
4.82365e-12
4.81967e-12
4.81432e-12
4.81395e-12
4.81069e-12
4.8111e-12
4.80911e-12
4.8097e-12
4.8085e-12
4.80899e-12
4.80833e-12
4.80859e-12
4.80837e-12
4.80837e-12
4.80859e-12
4.80832e-12
4.80897e-12
4.80848e-12
4.80968e-12
4.8091e-12
4.8111e-12
4.81069e-12
4.81396e-12
4.81437e-12
4.81973e-12
4.8237e-12
4.83409e-12
4.84387e-12
4.85583e-12
4.87884e-12
4.89618e-12
4.94732e-12
4.97711e-12
5.07326e-12
5.15739e-12
5.29168e-12
5.50483e-12
5.69076e-12
3.94302e-12
3.80907e-12
3.65721e-12
3.56031e-12
3.50141e-12
3.43316e-12
3.4133e-12
3.37656e-12
3.36434e-12
3.34803e-12
3.33969e-12
3.33278e-12
3.32505e-12
3.32197e-12
3.31794e-12
3.31772e-12
3.3154e-12
3.31572e-12
3.3143e-12
3.31474e-12
3.31389e-12
3.31425e-12
3.31378e-12
3.31398e-12
3.31382e-12
3.31382e-12
3.31398e-12
3.31378e-12
3.31424e-12
3.31388e-12
3.31473e-12
3.31429e-12
3.31571e-12
3.3154e-12
3.31773e-12
3.31797e-12
3.32201e-12
3.32508e-12
3.33278e-12
3.33971e-12
3.34803e-12
3.36429e-12
3.37649e-12
3.41322e-12
3.43307e-12
3.5013e-12
3.56017e-12
3.65706e-12
3.80886e-12
3.94285e-12
2.66598e-12
2.57166e-12
2.46596e-12
2.39796e-12
2.35759e-12
2.31064e-12
2.29792e-12
2.27218e-12
2.2635e-12
2.25227e-12
2.24662e-12
2.24186e-12
2.23626e-12
2.23399e-12
2.23085e-12
2.23072e-12
2.22911e-12
2.22935e-12
2.22836e-12
2.22869e-12
2.2281e-12
2.22836e-12
2.22803e-12
2.22817e-12
2.22806e-12
2.22806e-12
2.22817e-12
2.22803e-12
2.22835e-12
2.22808e-12
2.22868e-12
2.22836e-12
2.22935e-12
2.22911e-12
2.23073e-12
2.23087e-12
2.23402e-12
2.23629e-12
2.24187e-12
2.24664e-12
2.25227e-12
2.26347e-12
2.27213e-12
2.29787e-12
2.31058e-12
2.35752e-12
2.39786e-12
2.46587e-12
2.57149e-12
2.66587e-12
1.75417e-12
1.68943e-12
1.61769e-12
1.57149e-12
1.54439e-12
1.51079e-12
1.5029e-12
1.48502e-12
1.48176e-12
1.47425e-12
1.47055e-12
1.46738e-12
1.46343e-12
1.4619e-12
1.45925e-12
1.45918e-12
1.45809e-12
1.45826e-12
1.45759e-12
1.45782e-12
1.45742e-12
1.45761e-12
1.45739e-12
1.45749e-12
1.45741e-12
1.45741e-12
1.45749e-12
1.45738e-12
1.4576e-12
1.45741e-12
1.45781e-12
1.45759e-12
1.45826e-12
1.45808e-12
1.45919e-12
1.45926e-12
1.46192e-12
1.46344e-12
1.46738e-12
1.47056e-12
1.47425e-12
1.48174e-12
1.48499e-12
1.50286e-12
1.51076e-12
1.54434e-12
1.57142e-12
1.61763e-12
1.6893e-12
1.75411e-12
1.11991e-12
1.07639e-12
1.02962e-12
9.992e-13
9.81272e-13
9.59415e-13
9.55057e-13
9.43142e-13
9.41187e-13
9.36324e-13
9.33984e-13
9.31954e-13
9.29244e-13
9.28402e-13
9.25818e-13
9.25791e-13
9.25067e-13
9.2519e-13
9.24748e-13
9.249e-13
9.24637e-13
9.24765e-13
9.24621e-13
9.2469e-13
9.24642e-13
9.24642e-13
9.2469e-13
9.24619e-13
9.24761e-13
9.24632e-13
9.24896e-13
9.24745e-13
9.25189e-13
9.25066e-13
9.25793e-13
9.25828e-13
9.28415e-13
9.29257e-13
9.31961e-13
9.33991e-13
9.36323e-13
9.41172e-13
9.43121e-13
9.55033e-13
9.59394e-13
9.81238e-13
9.99157e-13
1.02959e-12
1.07629e-12
1.11988e-12
6.90697e-13
6.6201e-13
6.32238e-13
6.12212e-13
6.02769e-13
5.88192e-13
5.84425e-13
5.76664e-13
5.75525e-13
5.72469e-13
5.71032e-13
5.69771e-13
5.67949e-13
5.67617e-13
5.67899e-13
5.67896e-13
5.67435e-13
5.67516e-13
5.67233e-13
5.67331e-13
5.67162e-13
5.67246e-13
5.67156e-13
5.67203e-13
5.67172e-13
5.67172e-13
5.67202e-13
5.67155e-13
5.67244e-13
5.67159e-13
5.67328e-13
5.67231e-13
5.67515e-13
5.67434e-13
5.67897e-13
5.67905e-13
5.67625e-13
5.67958e-13
5.69776e-13
5.71037e-13
5.72467e-13
5.75517e-13
5.7665e-13
5.84411e-13
5.8817e-13
6.02748e-13
6.12185e-13
6.32205e-13
6.61944e-13
6.90679e-13
4.10679e-13
3.9286e-13
3.74743e-13
3.62463e-13
3.5681e-13
3.47981e-13
3.4592e-13
3.40975e-13
3.40371e-13
3.38534e-13
3.37712e-13
3.36974e-13
3.35782e-13
3.35712e-13
3.35709e-13
3.35715e-13
3.35432e-13
3.35484e-13
3.35309e-13
3.35368e-13
3.35263e-13
3.35313e-13
3.35262e-13
3.35293e-13
3.35275e-13
3.35275e-13
3.35293e-13
3.35261e-13
3.35312e-13
3.35261e-13
3.35367e-13
3.35308e-13
3.35483e-13
3.35432e-13
3.35716e-13
3.35713e-13
3.35717e-13
3.35786e-13
3.36978e-13
3.37715e-13
3.38532e-13
3.40365e-13
3.40966e-13
3.45912e-13
3.47968e-13
3.56797e-13
3.62446e-13
3.74726e-13
3.9282e-13
4.10667e-13
2.34577e-13
2.23824e-13
2.13312e-13
2.06157e-13
2.02504e-13
1.97131e-13
1.96034e-13
1.9366e-13
1.9339e-13
1.92347e-13
1.91914e-13
1.91514e-13
1.90735e-13
1.90751e-13
1.90668e-13
1.90679e-13
1.90512e-13
1.90543e-13
1.90439e-13
1.90474e-13
1.90409e-13
1.90435e-13
1.90394e-13
1.90405e-13
1.90392e-13
1.90392e-13
1.90405e-13
1.90394e-13
1.90434e-13
1.90408e-13
1.90473e-13
1.90439e-13
1.90543e-13
1.90512e-13
1.9068e-13
1.90671e-13
1.90754e-13
1.90737e-13
1.91516e-13
1.91915e-13
1.92345e-13
1.93387e-13
1.93656e-13
1.96029e-13
1.97123e-13
2.02495e-13
2.06147e-13
2.13303e-13
2.23802e-13
2.34568e-13
1.27191e-13
1.21968e-13
1.15639e-13
1.11294e-13
1.10075e-13
1.07112e-13
1.06587e-13
1.04986e-13
1.04714e-13
1.04036e-13
1.03743e-13
1.03485e-13
1.02877e-13
1.02871e-13
1.02778e-13
1.02776e-13
1.02684e-13
1.02701e-13
1.02643e-13
1.02661e-13
1.02624e-13
1.02636e-13
1.02614e-13
1.0262e-13
1.02612e-13
1.02612e-13
1.0262e-13
1.02613e-13
1.02636e-13
1.02623e-13
1.0266e-13
1.02642e-13
1.027e-13
1.02684e-13
1.02777e-13
1.02779e-13
1.02873e-13
1.02879e-13
1.03486e-13
1.03745e-13
1.04035e-13
1.04712e-13
1.04983e-13
1.06584e-13
1.07108e-13
1.10071e-13
1.11288e-13
1.15635e-13
1.21958e-13
1.27185e-13
6.59653e-14
6.28365e-14
5.98047e-14
5.74744e-14
5.66029e-14
5.49289e-14
5.46541e-14
5.38003e-14
5.36609e-14
5.3303e-14
5.31573e-14
5.30322e-14
5.30744e-14
5.30718e-14
5.30119e-14
5.30127e-14
5.29636e-14
5.29722e-14
5.29411e-14
5.29501e-14
5.29301e-14
5.29362e-14
5.29242e-14
5.29274e-14
5.29234e-14
5.29234e-14
5.29273e-14
5.2924e-14
5.29359e-14
5.29297e-14
5.29498e-14
5.29409e-14
5.29722e-14
5.29635e-14
5.30129e-14
5.30127e-14
5.30728e-14
5.30753e-14
5.3033e-14
5.31581e-14
5.33026e-14
5.36598e-14
5.37987e-14
5.46533e-14
5.49268e-14
5.66004e-14
5.74715e-14
5.98028e-14
6.28288e-14
6.59617e-14
3.22961e-14
3.07006e-14
2.91918e-14
2.80114e-14
2.7589e-14
2.675e-14
2.66287e-14
2.61937e-14
2.6129e-14
2.59459e-14
2.58778e-14
2.58204e-14
2.58409e-14
2.58382e-14
2.58055e-14
2.58066e-14
2.57819e-14
2.57862e-14
2.57704e-14
2.57747e-14
2.57644e-14
2.57674e-14
2.57614e-14
2.5763e-14
2.5761e-14
2.5761e-14
2.57629e-14
2.57612e-14
2.57672e-14
2.57642e-14
2.57745e-14
2.57703e-14
2.57861e-14
2.57818e-14
2.58067e-14
2.58059e-14
2.58387e-14
2.58414e-14
2.58208e-14
2.58782e-14
2.59457e-14
2.61285e-14
2.61929e-14
2.66284e-14
2.67489e-14
2.75877e-14
2.801e-14
2.91909e-14
3.06971e-14
3.22942e-14
1.47681e-14
1.40077e-14
1.33034e-14
1.27439e-14
1.25553e-14
1.21624e-14
1.21109e-14
1.19069e-14
1.18799e-14
1.17898e-14
1.17603e-14
1.17355e-14
1.17435e-14
1.17412e-14
1.17253e-14
1.17262e-14
1.17147e-14
1.17166e-14
1.17091e-14
1.17111e-14
1.17062e-14
1.17076e-14
1.17048e-14
1.17055e-14
1.17046e-14
1.17046e-14
1.17055e-14
1.17047e-14
1.17075e-14
1.17061e-14
1.1711e-14
1.17091e-14
1.17166e-14
1.17146e-14
1.17263e-14
1.17255e-14
1.17415e-14
1.17438e-14
1.17358e-14
1.17605e-14
1.17897e-14
1.18796e-14
1.19065e-14
1.21109e-14
1.21619e-14
1.25548e-14
1.27432e-14
1.3303e-14
1.40063e-14
1.47672e-14
6.22309e-15
5.88935e-15
5.58222e-15
5.33745e-15
5.26288e-15
5.09361e-15
5.07035e-15
4.98587e-15
4.97643e-15
4.93191e-15
4.9203e-15
4.91035e-15
4.91279e-15
4.91133e-15
4.90441e-15
4.90497e-15
4.9e-15
4.9008e-15
4.89757e-15
4.89837e-15
4.89627e-15
4.89685e-15
4.89565e-15
4.89598e-15
4.89558e-15
4.89557e-15
4.89597e-15
4.89562e-15
4.89682e-15
4.89623e-15
4.89833e-15
4.89754e-15
4.9008e-15
4.89999e-15
4.90498e-15
4.90449e-15
4.91143e-15
4.91291e-15
4.91044e-15
4.92036e-15
4.93188e-15
4.97633e-15
4.98573e-15
5.07034e-15
5.09338e-15
5.26265e-15
5.33717e-15
5.58199e-15
5.8888e-15
6.22272e-15
2.36256e-15
2.23189e-15
2.12225e-15
2.02507e-15
1.99076e-15
1.92297e-15
1.92282e-15
1.88209e-15
1.87972e-15
1.86924e-15
1.86514e-15
1.86147e-15
1.86199e-15
1.86123e-15
1.85854e-15
1.85884e-15
1.85692e-15
1.85722e-15
1.85595e-15
1.85626e-15
1.85544e-15
1.85566e-15
1.8552e-15
1.85533e-15
1.85517e-15
1.85517e-15
1.85532e-15
1.85519e-15
1.85565e-15
1.85542e-15
1.85624e-15
1.85595e-15
1.85722e-15
1.85691e-15
1.85884e-15
1.85858e-15
1.86127e-15
1.86204e-15
1.8615e-15
1.86517e-15
1.86923e-15
1.87968e-15
1.88204e-15
1.92276e-15
1.92288e-15
1.99065e-15
2.02496e-15
2.12216e-15
2.23169e-15
2.36242e-15
8.02135e-16
7.56216e-16
7.18425e-16
6.84168e-16
6.7276e-16
6.49002e-16
6.49318e-16
6.35357e-16
6.35024e-16
6.3104e-16
6.2977e-16
6.2854e-16
6.28568e-16
6.28244e-16
6.27324e-16
6.27459e-16
6.26805e-16
6.26904e-16
6.26468e-16
6.26569e-16
6.2629e-16
6.26366e-16
6.26207e-16
6.26251e-16
6.26198e-16
6.26197e-16
6.26249e-16
6.26204e-16
6.26362e-16
6.26284e-16
6.26564e-16
6.26465e-16
6.26903e-16
6.26804e-16
6.27455e-16
6.27335e-16
6.28259e-16
6.28587e-16
6.28554e-16
6.29778e-16
6.31034e-16
6.3501e-16
6.35338e-16
6.49281e-16
6.4897e-16
6.72725e-16
6.84131e-16
7.18388e-16
7.56152e-16
8.02087e-16
2.37926e-16
2.23775e-16
2.12425e-16
2.01759e-16
1.98438e-16
1.91424e-16
1.91616e-16
1.87106e-16
1.87126e-16
1.85806e-16
1.85464e-16
1.85097e-16
1.8506e-16
1.8494e-16
1.84665e-16
1.84714e-16
1.84525e-16
1.84552e-16
1.84421e-16
1.84451e-16
1.84367e-16
1.84389e-16
1.84342e-16
1.84355e-16
1.84339e-16
1.84339e-16
1.84354e-16
1.84341e-16
1.84388e-16
1.84365e-16
1.84449e-16
1.8442e-16
1.84552e-16
1.84524e-16
1.84712e-16
1.84668e-16
1.84944e-16
1.85066e-16
1.85102e-16
1.85466e-16
1.85804e-16
1.87122e-16
1.871e-16
1.91603e-16
1.91414e-16
1.98428e-16
2.01748e-16
2.12414e-16
2.23757e-16
2.37911e-16
6.02738e-17
5.65684e-17
5.36742e-17
5.0874e-17
5.00682e-17
4.82501e-17
4.83265e-17
4.71576e-17
4.71878e-17
4.68228e-17
4.67458e-17
4.66515e-17
4.66306e-17
4.6594e-17
4.65244e-17
4.65384e-17
4.6495e-17
4.65015e-17
4.64682e-17
4.64755e-17
4.64543e-17
4.64599e-17
4.64478e-17
4.6451e-17
4.64471e-17
4.6447e-17
4.64509e-17
4.64476e-17
4.64595e-17
4.64538e-17
4.64751e-17
4.6468e-17
4.65014e-17
4.64949e-17
4.65372e-17
4.65253e-17
4.65951e-17
4.66327e-17
4.66527e-17
4.67464e-17
4.68224e-17
4.71867e-17
4.7156e-17
4.83228e-17
4.82476e-17
5.00655e-17
5.08712e-17
5.36711e-17
5.65638e-17
6.02699e-17
1.26883e-17
1.18806e-17
1.12701e-17
1.06603e-17
1.04994e-17
1.01072e-17
1.01299e-17
9.87761e-18
9.8884e-18
9.80582e-18
9.79159e-18
9.77115e-18
9.76361e-18
9.75384e-18
9.73922e-18
9.74189e-18
9.73624e-18
9.73749e-18
9.73054e-18
9.73198e-18
9.72756e-18
9.72869e-18
9.72618e-18
9.72684e-18
9.72601e-18
9.726e-18
9.72682e-18
9.72613e-18
9.72863e-18
9.72746e-18
9.7319e-18
9.73048e-18
9.73748e-18
9.73622e-18
9.74161e-18
9.73941e-18
9.75409e-18
9.76422e-18
9.77141e-18
9.79172e-18
9.80572e-18
9.88816e-18
9.87726e-18
1.01291e-17
1.01067e-17
1.04989e-17
1.06597e-17
1.12694e-17
1.18797e-17
1.26875e-17
2.15014e-18
2.00785e-18
1.90349e-18
1.79546e-18
1.76934e-18
1.70063e-18
1.70557e-18
1.6613e-18
1.66376e-18
1.64876e-18
1.64664e-18
1.64303e-18
1.6429e-18
1.64203e-18
1.63955e-18
1.6398e-18
1.63677e-18
1.63696e-18
1.63578e-18
1.63601e-18
1.63527e-18
1.63545e-18
1.63503e-18
1.63513e-18
1.63499e-18
1.63499e-18
1.63513e-18
1.63502e-18
1.63544e-18
1.63525e-18
1.636e-18
1.63577e-18
1.63695e-18
1.63677e-18
1.63977e-18
1.63958e-18
1.64207e-18
1.64289e-18
1.64307e-18
1.64666e-18
1.64874e-18
1.66372e-18
1.66124e-18
1.70544e-18
1.70054e-18
1.76925e-18
1.79535e-18
1.90337e-18
2.00769e-18
2.15e-18
2.86316e-19
2.66474e-19
2.52475e-19
2.37511e-19
2.34237e-19
2.24772e-19
2.25593e-19
2.19477e-19
2.19891e-19
2.17737e-19
2.17488e-19
2.16985e-19
2.16966e-19
2.16843e-19
2.16512e-19
2.16519e-19
2.16125e-19
2.16145e-19
2.1599e-19
2.16019e-19
2.1592e-19
2.15943e-19
2.15887e-19
2.15901e-19
2.15882e-19
2.15882e-19
2.159e-19
2.15886e-19
2.15942e-19
2.15918e-19
2.16017e-19
2.15989e-19
2.16145e-19
2.16124e-19
2.16518e-19
2.16517e-19
2.16849e-19
2.16965e-19
2.16991e-19
2.17491e-19
2.17734e-19
2.19885e-19
2.19469e-19
2.25576e-19
2.2476e-19
2.34224e-19
2.37497e-19
2.52459e-19
2.66451e-19
2.86296e-19
2.96281e-20
2.74789e-20
2.60626e-20
2.44499e-20
2.40867e-20
2.30767e-20
2.31742e-20
2.252e-20
2.25701e-20
2.23684e-20
2.23457e-20
2.22908e-20
2.22894e-20
2.22754e-20
2.22412e-20
2.22401e-20
2.21997e-20
2.22014e-20
2.21854e-20
2.21882e-20
2.2178e-20
2.21803e-20
2.21745e-20
2.21758e-20
2.21739e-20
2.21739e-20
2.21758e-20
2.21744e-20
2.21801e-20
2.21778e-20
2.21879e-20
2.21853e-20
2.22014e-20
2.21997e-20
2.224e-20
2.22417e-20
2.2276e-20
2.22892e-20
2.22914e-20
2.2346e-20
2.23682e-20
2.25695e-20
2.25191e-20
2.31724e-20
2.30754e-20
2.40853e-20
2.44484e-20
2.60609e-20
2.74765e-20
2.9626e-20
2.44148e-21
2.25767e-21
2.14142e-21
2.00495e-21
1.97545e-21
1.89043e-21
1.89919e-21
1.84401e-21
1.84862e-21
1.83152e-21
1.82986e-21
1.82513e-21
1.82511e-21
1.82383e-21
1.82106e-21
1.82084e-21
1.81757e-21
1.81766e-21
1.81637e-21
1.81656e-21
1.81574e-21
1.81591e-21
1.81544e-21
1.81555e-21
1.81539e-21
1.81539e-21
1.81554e-21
1.81543e-21
1.8159e-21
1.81572e-21
1.81654e-21
1.81636e-21
1.81766e-21
1.81756e-21
1.82084e-21
1.8211e-21
1.82389e-21
1.82509e-21
1.82518e-21
1.82989e-21
1.8315e-21
1.84857e-21
1.84393e-21
1.89904e-21
1.89032e-21
1.97533e-21
2.00483e-21
2.14128e-21
2.25747e-21
2.44131e-21
)
;

boundaryField
{
    fuel
    {
        type            fixedValue;
        value           nonuniform 0();
    }
    wall
    {
        type            zeroGradient;
    }
    outlet
    {
        type            zeroGradient;
    }
    frontAndBack
    {
        type            empty;
    }
    procBoundary3to2
    {
        type            processor;
        value           nonuniform List<scalar> 
51
(
3.99022e-10
3.9864e-10
3.98461e-10
3.98214e-10
3.98148e-10
3.97993e-10
3.97977e-10
3.97883e-10
3.97887e-10
3.97832e-10
3.97841e-10
3.97812e-10
3.97818e-10
3.97808e-10
3.97808e-10
3.97818e-10
3.97811e-10
3.97841e-10
3.97831e-10
3.97887e-10
3.97883e-10
3.97977e-10
3.97993e-10
3.98149e-10
3.98216e-10
3.98463e-10
3.98642e-10
3.99024e-10
3.99465e-10
4.00121e-10
4.01168e-10
4.02356e-10
4.04501e-10
4.06689e-10
4.10971e-10
4.15822e-10
4.21401e-10
4.30843e-10
4.36273e-10
3.75996e-10
3.71058e-10
3.62529e-10
3.57553e-10
3.53295e-10
3.49516e-10
3.47582e-10
3.45691e-10
3.44655e-10
3.43732e-10
3.43161e-10
3.43161e-10
)
;
    }
}


// ************************************************************************* //
