/*--------------------------------*- C++ -*----------------------------------*\
| =========                 |                                                 |
| \\      /  F ield         | OpenFOAM: The Open Source CFD Toolbox           |
|  \\    /   O peration     | Version:  dev                                   |
|   \\  /    A nd           | Web:      www.OpenFOAM.org                      |
|    \\/     M anipulation  |                                                 |
\*---------------------------------------------------------------------------*/
FoamFile
{
    version     2.0;
    format      ascii;
    class       volScalarField;
    location    "0.09";
    object      C6H5OH;
}
// * * * * * * * * * * * * * * * * * * * * * * * * * * * * * * * * * * * * * //

dimensions      [0 0 0 0 0 0 0];

internalField   nonuniform List<scalar> 
1989
(
4.54711e-08
4.5477e-08
4.54797e-08
4.54834e-08
4.54845e-08
4.54869e-08
4.54872e-08
4.54886e-08
4.54887e-08
4.54895e-08
4.54894e-08
4.54899e-08
4.54898e-08
4.549e-08
4.549e-08
4.54898e-08
4.54899e-08
4.54895e-08
4.54895e-08
4.54887e-08
4.54886e-08
4.54872e-08
4.54868e-08
4.54845e-08
4.54834e-08
4.54797e-08
4.54769e-08
4.54711e-08
4.54638e-08
4.54533e-08
4.54368e-08
4.54192e-08
4.53859e-08
4.53514e-08
4.52845e-08
4.52101e-08
4.51135e-08
4.4951e-08
4.4845e-08
4.59113e-08
4.60167e-08
4.61801e-08
4.6275e-08
4.63471e-08
4.64125e-08
4.6446e-08
4.64786e-08
4.64956e-08
4.65117e-08
4.65218e-08
4.65291e-08
4.65348e-08
4.65374e-08
4.6541e-08
4.6542e-08
4.65443e-08
4.65446e-08
4.6546e-08
4.6546e-08
4.65468e-08
4.65467e-08
4.65471e-08
4.65471e-08
4.65472e-08
4.65472e-08
4.65471e-08
4.65471e-08
4.65467e-08
4.65468e-08
4.6546e-08
4.6546e-08
4.65446e-08
4.65442e-08
4.6542e-08
4.65409e-08
4.65373e-08
4.65347e-08
4.65291e-08
4.65219e-08
4.65117e-08
4.64956e-08
4.64787e-08
4.64461e-08
4.64126e-08
4.63472e-08
4.62752e-08
4.61803e-08
4.60169e-08
4.59115e-08
4.69788e-08
4.70821e-08
4.7244e-08
4.73357e-08
4.74044e-08
4.74672e-08
4.74994e-08
4.75306e-08
4.75466e-08
4.75621e-08
4.75718e-08
4.75788e-08
4.75842e-08
4.75866e-08
4.75901e-08
4.7591e-08
4.75932e-08
4.75934e-08
4.75948e-08
4.75948e-08
4.75955e-08
4.75955e-08
4.75959e-08
4.75958e-08
4.7596e-08
4.7596e-08
4.75958e-08
4.75959e-08
4.75955e-08
4.75956e-08
4.75948e-08
4.75948e-08
4.75934e-08
4.75932e-08
4.7591e-08
4.759e-08
4.75866e-08
4.75842e-08
4.75788e-08
4.75718e-08
4.75622e-08
4.75466e-08
4.75307e-08
4.74995e-08
4.74674e-08
4.74046e-08
4.73359e-08
4.72442e-08
4.70822e-08
4.6979e-08
4.80398e-08
4.81402e-08
4.82997e-08
4.83872e-08
4.8452e-08
4.85118e-08
4.85417e-08
4.85715e-08
4.85865e-08
4.86012e-08
4.86103e-08
4.8617e-08
4.86221e-08
4.86243e-08
4.86276e-08
4.86284e-08
4.86304e-08
4.86307e-08
4.86319e-08
4.86319e-08
4.86326e-08
4.86325e-08
4.86329e-08
4.86329e-08
4.8633e-08
4.8633e-08
4.86329e-08
4.86329e-08
4.86326e-08
4.86326e-08
4.86319e-08
4.86319e-08
4.86307e-08
4.86304e-08
4.86284e-08
4.86275e-08
4.86243e-08
4.86221e-08
4.8617e-08
4.86104e-08
4.86012e-08
4.85865e-08
4.85716e-08
4.85418e-08
4.85119e-08
4.84522e-08
4.83874e-08
4.83e-08
4.81403e-08
4.804e-08
4.90787e-08
4.91728e-08
4.93042e-08
4.93847e-08
4.94442e-08
4.94995e-08
4.95264e-08
4.95542e-08
4.95677e-08
4.95812e-08
4.95897e-08
4.95957e-08
4.96005e-08
4.96025e-08
4.96055e-08
4.96062e-08
4.96081e-08
4.96082e-08
4.96094e-08
4.96093e-08
4.961e-08
4.96099e-08
4.96103e-08
4.96103e-08
4.96104e-08
4.96104e-08
4.96103e-08
4.96103e-08
4.961e-08
4.961e-08
4.96093e-08
4.96094e-08
4.96082e-08
4.96081e-08
4.96061e-08
4.96054e-08
4.96024e-08
4.96005e-08
4.95957e-08
4.95897e-08
4.95813e-08
4.95676e-08
4.95543e-08
4.95265e-08
4.94996e-08
4.94443e-08
4.93849e-08
4.93045e-08
4.91728e-08
4.90789e-08
5.00404e-08
5.0127e-08
5.02522e-08
5.03283e-08
5.03833e-08
5.0435e-08
5.04594e-08
5.04853e-08
5.04975e-08
5.051e-08
5.05178e-08
5.05234e-08
5.05278e-08
5.05295e-08
5.05323e-08
5.05329e-08
5.05346e-08
5.05348e-08
5.05358e-08
5.05358e-08
5.05364e-08
5.05363e-08
5.05367e-08
5.05366e-08
5.05367e-08
5.05368e-08
5.05366e-08
5.05367e-08
5.05363e-08
5.05364e-08
5.05358e-08
5.05358e-08
5.05348e-08
5.05346e-08
5.05329e-08
5.05323e-08
5.05295e-08
5.05277e-08
5.05234e-08
5.05178e-08
5.05101e-08
5.04975e-08
5.04854e-08
5.04595e-08
5.04352e-08
5.03835e-08
5.03285e-08
5.02524e-08
5.01271e-08
5.00405e-08
5.09296e-08
5.1008e-08
5.11215e-08
5.11893e-08
5.12372e-08
5.1283e-08
5.13038e-08
5.13268e-08
5.13373e-08
5.13482e-08
5.13551e-08
5.136e-08
5.13638e-08
5.13653e-08
5.13677e-08
5.13682e-08
5.13698e-08
5.13699e-08
5.13708e-08
5.13708e-08
5.13713e-08
5.13712e-08
5.13716e-08
5.13715e-08
5.13716e-08
5.13716e-08
5.13715e-08
5.13716e-08
5.13713e-08
5.13713e-08
5.13708e-08
5.13708e-08
5.13699e-08
5.13698e-08
5.13682e-08
5.13677e-08
5.13653e-08
5.13638e-08
5.136e-08
5.13551e-08
5.13483e-08
5.13373e-08
5.13268e-08
5.13039e-08
5.12831e-08
5.12374e-08
5.11895e-08
5.11217e-08
5.10081e-08
5.09298e-08
5.17352e-08
5.18056e-08
5.19066e-08
5.19667e-08
5.20077e-08
5.20477e-08
5.20653e-08
5.20854e-08
5.20943e-08
5.21038e-08
5.21097e-08
5.21139e-08
5.21173e-08
5.21185e-08
5.21206e-08
5.2121e-08
5.21223e-08
5.21224e-08
5.21232e-08
5.21231e-08
5.21236e-08
5.21236e-08
5.21238e-08
5.21238e-08
5.21239e-08
5.21239e-08
5.21238e-08
5.21238e-08
5.21236e-08
5.21236e-08
5.21231e-08
5.21232e-08
5.21224e-08
5.21223e-08
5.2121e-08
5.21206e-08
5.21185e-08
5.21173e-08
5.2114e-08
5.21097e-08
5.21038e-08
5.20943e-08
5.20855e-08
5.20654e-08
5.20478e-08
5.20079e-08
5.19668e-08
5.19068e-08
5.18057e-08
5.17353e-08
5.24527e-08
5.25127e-08
5.25974e-08
5.26488e-08
5.26821e-08
5.27151e-08
5.27291e-08
5.27457e-08
5.27528e-08
5.27605e-08
5.27654e-08
5.27689e-08
5.27716e-08
5.27726e-08
5.27743e-08
5.27746e-08
5.27757e-08
5.27757e-08
5.27764e-08
5.27763e-08
5.27767e-08
5.27767e-08
5.27769e-08
5.27769e-08
5.2777e-08
5.2777e-08
5.27769e-08
5.27769e-08
5.27767e-08
5.27767e-08
5.27763e-08
5.27764e-08
5.27757e-08
5.27757e-08
5.27746e-08
5.27743e-08
5.27726e-08
5.27716e-08
5.27689e-08
5.27654e-08
5.27606e-08
5.27528e-08
5.27457e-08
5.27292e-08
5.27152e-08
5.26822e-08
5.2649e-08
5.25976e-08
5.25127e-08
5.24529e-08
5.30606e-08
5.31098e-08
5.31779e-08
5.32209e-08
5.32468e-08
5.32727e-08
5.32835e-08
5.32965e-08
5.33019e-08
5.3308e-08
5.33117e-08
5.33145e-08
5.33166e-08
5.33173e-08
5.33186e-08
5.33188e-08
5.33197e-08
5.33197e-08
5.33203e-08
5.33202e-08
5.33206e-08
5.33205e-08
5.33207e-08
5.33207e-08
5.33207e-08
5.33207e-08
5.33207e-08
5.33207e-08
5.33205e-08
5.33206e-08
5.33202e-08
5.33203e-08
5.33197e-08
5.33197e-08
5.33188e-08
5.33186e-08
5.33173e-08
5.33166e-08
5.33145e-08
5.33117e-08
5.3308e-08
5.33019e-08
5.32965e-08
5.32836e-08
5.32728e-08
5.32469e-08
5.3221e-08
5.31781e-08
5.31099e-08
5.30607e-08
5.35561e-08
5.35947e-08
5.3647e-08
5.3674e-08
5.36931e-08
5.37127e-08
5.37205e-08
5.37302e-08
5.37341e-08
5.37387e-08
5.37415e-08
5.37435e-08
5.37451e-08
5.37456e-08
5.37465e-08
5.37467e-08
5.37473e-08
5.37473e-08
5.37477e-08
5.37477e-08
5.3748e-08
5.3748e-08
5.37481e-08
5.37481e-08
5.37481e-08
5.37481e-08
5.37481e-08
5.37481e-08
5.3748e-08
5.3748e-08
5.37477e-08
5.37477e-08
5.37473e-08
5.37473e-08
5.37467e-08
5.37465e-08
5.37455e-08
5.3745e-08
5.37435e-08
5.37415e-08
5.37387e-08
5.37341e-08
5.37303e-08
5.37205e-08
5.37128e-08
5.36931e-08
5.3674e-08
5.36471e-08
5.35947e-08
5.35562e-08
5.39354e-08
5.39639e-08
5.40024e-08
5.40219e-08
5.4035e-08
5.40489e-08
5.40541e-08
5.40609e-08
5.40634e-08
5.40666e-08
5.40686e-08
5.40701e-08
5.40713e-08
5.40716e-08
5.40723e-08
5.40724e-08
5.40729e-08
5.40729e-08
5.40733e-08
5.40733e-08
5.40735e-08
5.40735e-08
5.40736e-08
5.40736e-08
5.40736e-08
5.40736e-08
5.40736e-08
5.40736e-08
5.40735e-08
5.40735e-08
5.40733e-08
5.40733e-08
5.40729e-08
5.40729e-08
5.40724e-08
5.40723e-08
5.40716e-08
5.40713e-08
5.40701e-08
5.40687e-08
5.40666e-08
5.40634e-08
5.40609e-08
5.40541e-08
5.4049e-08
5.40351e-08
5.4022e-08
5.40025e-08
5.3964e-08
5.39354e-08
5.42166e-08
5.42366e-08
5.42635e-08
5.42764e-08
5.42844e-08
5.4293e-08
5.4296e-08
5.43001e-08
5.43015e-08
5.43034e-08
5.43047e-08
5.43056e-08
5.43063e-08
5.43065e-08
5.43069e-08
5.4307e-08
5.43073e-08
5.43073e-08
5.43075e-08
5.43076e-08
5.43077e-08
5.43077e-08
5.43078e-08
5.43078e-08
5.43078e-08
5.43078e-08
5.43078e-08
5.43078e-08
5.43077e-08
5.43077e-08
5.43076e-08
5.43075e-08
5.43073e-08
5.43073e-08
5.4307e-08
5.43069e-08
5.43065e-08
5.43063e-08
5.43056e-08
5.43047e-08
5.43034e-08
5.43016e-08
5.43002e-08
5.42961e-08
5.42931e-08
5.42845e-08
5.42764e-08
5.42635e-08
5.42366e-08
5.42167e-08
5.44079e-08
5.44198e-08
5.44362e-08
5.44431e-08
5.44468e-08
5.44511e-08
5.44523e-08
5.44541e-08
5.44546e-08
5.44554e-08
5.44561e-08
5.44565e-08
5.44568e-08
5.44569e-08
5.44571e-08
5.44571e-08
5.44573e-08
5.44573e-08
5.44574e-08
5.44575e-08
5.44575e-08
5.44576e-08
5.44576e-08
5.44577e-08
5.44577e-08
5.44577e-08
5.44577e-08
5.44576e-08
5.44576e-08
5.44575e-08
5.44575e-08
5.44574e-08
5.44573e-08
5.44573e-08
5.44571e-08
5.4457e-08
5.44568e-08
5.44568e-08
5.44565e-08
5.44561e-08
5.44555e-08
5.44546e-08
5.44542e-08
5.44523e-08
5.44511e-08
5.44469e-08
5.44431e-08
5.44362e-08
5.44199e-08
5.4408e-08
5.45182e-08
5.45236e-08
5.45316e-08
5.45337e-08
5.45342e-08
5.4535e-08
5.45349e-08
5.4535e-08
5.45348e-08
5.45347e-08
5.45349e-08
5.4535e-08
5.45349e-08
5.45349e-08
5.45349e-08
5.45349e-08
5.4535e-08
5.4535e-08
5.45351e-08
5.45351e-08
5.45352e-08
5.45352e-08
5.45353e-08
5.45353e-08
5.45353e-08
5.45353e-08
5.45353e-08
5.45353e-08
5.45352e-08
5.45352e-08
5.45351e-08
5.45351e-08
5.4535e-08
5.4535e-08
5.45349e-08
5.45349e-08
5.45349e-08
5.45349e-08
5.4535e-08
5.45349e-08
5.45348e-08
5.45348e-08
5.4535e-08
5.45349e-08
5.4535e-08
5.45342e-08
5.45337e-08
5.45316e-08
5.45237e-08
5.45182e-08
5.45648e-08
5.45651e-08
5.45666e-08
5.4565e-08
5.45632e-08
5.45614e-08
5.45604e-08
5.45592e-08
5.45585e-08
5.45578e-08
5.45576e-08
5.45574e-08
5.45571e-08
5.4557e-08
5.45569e-08
5.45569e-08
5.45569e-08
5.4557e-08
5.4557e-08
5.4557e-08
5.4557e-08
5.45571e-08
5.45571e-08
5.45572e-08
5.45572e-08
5.45572e-08
5.45572e-08
5.45571e-08
5.45571e-08
5.4557e-08
5.4557e-08
5.4557e-08
5.45569e-08
5.45569e-08
5.45569e-08
5.45569e-08
5.4557e-08
5.45571e-08
5.45574e-08
5.45577e-08
5.45578e-08
5.45585e-08
5.45592e-08
5.45605e-08
5.45615e-08
5.45632e-08
5.45651e-08
5.45666e-08
5.45652e-08
5.45648e-08
5.45622e-08
5.45588e-08
5.45556e-08
5.45514e-08
5.4548e-08
5.45444e-08
5.45428e-08
5.45406e-08
5.45396e-08
5.45385e-08
5.45381e-08
5.45377e-08
5.45372e-08
5.4537e-08
5.45368e-08
5.45369e-08
5.45368e-08
5.45368e-08
5.45368e-08
5.45369e-08
5.45369e-08
5.4537e-08
5.4537e-08
5.4537e-08
5.4537e-08
5.4537e-08
5.4537e-08
5.4537e-08
5.4537e-08
5.45369e-08
5.45369e-08
5.45368e-08
5.45368e-08
5.45368e-08
5.45368e-08
5.45368e-08
5.4537e-08
5.45372e-08
5.45377e-08
5.45381e-08
5.45385e-08
5.45396e-08
5.45406e-08
5.45428e-08
5.45444e-08
5.4548e-08
5.45514e-08
5.45556e-08
5.45588e-08
5.45622e-08
5.45242e-08
5.45184e-08
5.45122e-08
5.45063e-08
5.45019e-08
5.44972e-08
5.44953e-08
5.44926e-08
5.44914e-08
5.449e-08
5.44894e-08
5.44889e-08
5.44883e-08
5.44881e-08
5.44879e-08
5.44879e-08
5.44878e-08
5.44879e-08
5.44878e-08
5.44879e-08
5.44879e-08
5.4488e-08
5.4488e-08
5.4488e-08
5.4488e-08
5.4488e-08
5.4488e-08
5.4488e-08
5.4488e-08
5.44879e-08
5.44879e-08
5.44878e-08
5.44879e-08
5.44878e-08
5.44879e-08
5.44879e-08
5.44881e-08
5.44883e-08
5.44889e-08
5.44895e-08
5.44901e-08
5.44914e-08
5.44926e-08
5.44954e-08
5.44973e-08
5.45019e-08
5.45063e-08
5.45122e-08
5.45184e-08
5.45243e-08
5.44635e-08
5.44561e-08
5.44481e-08
5.44412e-08
5.44363e-08
5.44311e-08
5.44291e-08
5.4426e-08
5.44247e-08
5.44233e-08
5.44226e-08
5.4422e-08
5.44214e-08
5.44212e-08
5.44209e-08
5.44209e-08
5.44208e-08
5.44209e-08
5.44208e-08
5.44209e-08
5.44209e-08
5.4421e-08
5.4421e-08
5.4421e-08
5.4421e-08
5.4421e-08
5.4421e-08
5.4421e-08
5.4421e-08
5.44209e-08
5.44209e-08
5.44208e-08
5.44209e-08
5.44208e-08
5.44209e-08
5.44209e-08
5.44212e-08
5.44214e-08
5.4422e-08
5.44226e-08
5.44233e-08
5.44248e-08
5.44261e-08
5.44291e-08
5.44311e-08
5.44364e-08
5.44412e-08
5.44481e-08
5.44562e-08
5.44635e-08
5.43912e-08
5.43833e-08
5.43745e-08
5.43674e-08
5.43625e-08
5.43572e-08
5.43553e-08
5.43522e-08
5.43509e-08
5.43494e-08
5.43487e-08
5.43481e-08
5.43475e-08
5.43473e-08
5.4347e-08
5.4347e-08
5.43469e-08
5.4347e-08
5.43469e-08
5.4347e-08
5.4347e-08
5.43471e-08
5.43471e-08
5.43471e-08
5.43471e-08
5.43471e-08
5.43471e-08
5.43471e-08
5.43471e-08
5.4347e-08
5.4347e-08
5.43469e-08
5.4347e-08
5.43469e-08
5.4347e-08
5.4347e-08
5.43473e-08
5.43475e-08
5.43481e-08
5.43488e-08
5.43494e-08
5.43509e-08
5.43522e-08
5.43553e-08
5.43573e-08
5.43625e-08
5.43674e-08
5.43746e-08
5.43833e-08
5.43912e-08
5.43158e-08
5.4308e-08
5.42993e-08
5.42924e-08
5.42878e-08
5.42828e-08
5.42809e-08
5.4278e-08
5.42767e-08
5.42754e-08
5.42747e-08
5.42742e-08
5.42736e-08
5.42733e-08
5.4273e-08
5.42731e-08
5.4273e-08
5.4273e-08
5.4273e-08
5.42731e-08
5.42731e-08
5.42732e-08
5.42731e-08
5.42732e-08
5.42732e-08
5.42732e-08
5.42732e-08
5.42731e-08
5.42732e-08
5.42731e-08
5.42731e-08
5.4273e-08
5.4273e-08
5.4273e-08
5.42731e-08
5.4273e-08
5.42733e-08
5.42736e-08
5.42741e-08
5.42747e-08
5.42754e-08
5.42767e-08
5.4278e-08
5.42809e-08
5.42828e-08
5.42878e-08
5.42925e-08
5.42993e-08
5.4308e-08
5.43158e-08
5.42438e-08
5.42365e-08
5.42285e-08
5.42221e-08
5.42178e-08
5.42131e-08
5.42114e-08
5.42087e-08
5.42078e-08
5.42066e-08
5.4206e-08
5.42055e-08
5.4205e-08
5.42047e-08
5.42044e-08
5.42045e-08
5.42044e-08
5.42045e-08
5.42044e-08
5.42045e-08
5.42045e-08
5.42046e-08
5.42046e-08
5.42046e-08
5.42046e-08
5.42046e-08
5.42046e-08
5.42046e-08
5.42046e-08
5.42045e-08
5.42045e-08
5.42044e-08
5.42045e-08
5.42044e-08
5.42045e-08
5.42044e-08
5.42047e-08
5.4205e-08
5.42055e-08
5.4206e-08
5.42066e-08
5.42078e-08
5.42087e-08
5.42114e-08
5.42131e-08
5.42178e-08
5.42222e-08
5.42285e-08
5.42365e-08
5.42438e-08
5.41796e-08
5.4173e-08
5.41659e-08
5.41603e-08
5.41564e-08
5.41522e-08
5.41508e-08
5.41484e-08
5.41476e-08
5.41465e-08
5.4146e-08
5.41455e-08
5.41451e-08
5.41449e-08
5.41446e-08
5.41446e-08
5.41445e-08
5.41446e-08
5.41446e-08
5.41447e-08
5.41447e-08
5.41447e-08
5.41448e-08
5.41448e-08
5.41448e-08
5.41448e-08
5.41448e-08
5.41448e-08
5.41447e-08
5.41447e-08
5.41447e-08
5.41446e-08
5.41446e-08
5.41445e-08
5.41446e-08
5.41446e-08
5.41449e-08
5.41451e-08
5.41455e-08
5.4146e-08
5.41465e-08
5.41476e-08
5.41484e-08
5.41508e-08
5.41522e-08
5.41564e-08
5.41603e-08
5.41659e-08
5.4173e-08
5.41796e-08
5.41253e-08
5.41195e-08
5.41134e-08
5.41084e-08
5.41053e-08
5.41016e-08
5.41001e-08
5.4098e-08
5.40973e-08
5.40964e-08
5.40959e-08
5.40955e-08
5.40952e-08
5.40951e-08
5.40951e-08
5.40952e-08
5.40951e-08
5.40952e-08
5.40952e-08
5.40953e-08
5.40953e-08
5.40953e-08
5.40953e-08
5.40954e-08
5.40954e-08
5.40954e-08
5.40954e-08
5.40953e-08
5.40953e-08
5.40953e-08
5.40953e-08
5.40952e-08
5.40952e-08
5.40951e-08
5.40952e-08
5.40951e-08
5.40951e-08
5.40952e-08
5.40955e-08
5.40959e-08
5.40964e-08
5.40973e-08
5.4098e-08
5.41001e-08
5.41016e-08
5.41053e-08
5.41084e-08
5.41134e-08
5.41195e-08
5.41253e-08
5.4082e-08
5.40771e-08
5.40719e-08
5.40677e-08
5.4065e-08
5.40619e-08
5.40606e-08
5.40588e-08
5.40582e-08
5.40574e-08
5.4057e-08
5.40567e-08
5.40564e-08
5.40564e-08
5.40564e-08
5.40564e-08
5.40564e-08
5.40565e-08
5.40565e-08
5.40565e-08
5.40565e-08
5.40566e-08
5.40566e-08
5.40567e-08
5.40567e-08
5.40567e-08
5.40567e-08
5.40566e-08
5.40566e-08
5.40565e-08
5.40565e-08
5.40565e-08
5.40565e-08
5.40564e-08
5.40564e-08
5.40564e-08
5.40564e-08
5.40564e-08
5.40567e-08
5.4057e-08
5.40574e-08
5.40582e-08
5.40588e-08
5.40606e-08
5.40619e-08
5.4065e-08
5.40677e-08
5.40719e-08
5.40771e-08
5.40821e-08
5.40492e-08
5.4045e-08
5.40407e-08
5.40372e-08
5.40347e-08
5.40321e-08
5.40309e-08
5.40296e-08
5.4029e-08
5.40284e-08
5.4028e-08
5.40278e-08
5.40275e-08
5.40276e-08
5.40275e-08
5.40276e-08
5.40276e-08
5.40276e-08
5.40276e-08
5.40277e-08
5.40277e-08
5.40278e-08
5.40278e-08
5.40278e-08
5.40278e-08
5.40278e-08
5.40278e-08
5.40278e-08
5.40278e-08
5.40277e-08
5.40277e-08
5.40276e-08
5.40276e-08
5.40276e-08
5.40276e-08
5.40275e-08
5.40275e-08
5.40275e-08
5.40278e-08
5.4028e-08
5.40284e-08
5.4029e-08
5.40296e-08
5.40309e-08
5.40321e-08
5.40348e-08
5.40372e-08
5.40407e-08
5.40451e-08
5.40492e-08
5.40252e-08
5.4022e-08
5.40182e-08
5.40152e-08
5.40133e-08
5.40111e-08
5.401e-08
5.40088e-08
5.40083e-08
5.40077e-08
5.40074e-08
5.40072e-08
5.40069e-08
5.40069e-08
5.40069e-08
5.40069e-08
5.40069e-08
5.4007e-08
5.4007e-08
5.40071e-08
5.40071e-08
5.40072e-08
5.40072e-08
5.40072e-08
5.40072e-08
5.40072e-08
5.40072e-08
5.40072e-08
5.40072e-08
5.40071e-08
5.40071e-08
5.4007e-08
5.4007e-08
5.40069e-08
5.40069e-08
5.40069e-08
5.40069e-08
5.40069e-08
5.40072e-08
5.40074e-08
5.40077e-08
5.40083e-08
5.40088e-08
5.401e-08
5.40111e-08
5.40133e-08
5.40152e-08
5.40183e-08
5.4022e-08
5.40252e-08
5.4009e-08
5.40061e-08
5.40031e-08
5.40004e-08
5.39986e-08
5.39968e-08
5.39958e-08
5.39948e-08
5.39943e-08
5.39938e-08
5.39935e-08
5.39934e-08
5.39933e-08
5.39933e-08
5.39933e-08
5.39934e-08
5.39934e-08
5.39934e-08
5.39934e-08
5.39935e-08
5.39935e-08
5.39936e-08
5.39936e-08
5.39936e-08
5.39936e-08
5.39936e-08
5.39936e-08
5.39936e-08
5.39936e-08
5.39935e-08
5.39935e-08
5.39934e-08
5.39934e-08
5.39934e-08
5.39933e-08
5.39933e-08
5.39933e-08
5.39933e-08
5.39934e-08
5.39936e-08
5.39938e-08
5.39943e-08
5.39948e-08
5.39958e-08
5.39968e-08
5.39986e-08
5.40005e-08
5.40031e-08
5.40061e-08
5.4009e-08
5.39984e-08
5.39959e-08
5.39932e-08
5.3991e-08
5.39893e-08
5.39877e-08
5.39869e-08
5.3986e-08
5.39855e-08
5.39851e-08
5.39849e-08
5.39848e-08
5.39847e-08
5.39847e-08
5.39847e-08
5.39848e-08
5.39848e-08
5.39848e-08
5.39849e-08
5.39849e-08
5.39849e-08
5.3985e-08
5.3985e-08
5.3985e-08
5.3985e-08
5.3985e-08
5.3985e-08
5.3985e-08
5.3985e-08
5.39849e-08
5.39849e-08
5.39849e-08
5.39848e-08
5.39848e-08
5.39847e-08
5.39847e-08
5.39847e-08
5.39847e-08
5.39848e-08
5.39849e-08
5.39851e-08
5.39855e-08
5.3986e-08
5.39869e-08
5.39878e-08
5.39893e-08
5.3991e-08
5.39933e-08
5.39959e-08
5.39984e-08
5.39917e-08
5.39894e-08
5.39871e-08
5.39851e-08
5.39836e-08
5.39822e-08
5.39814e-08
5.39806e-08
5.39802e-08
5.39799e-08
5.39797e-08
5.39796e-08
5.39795e-08
5.39795e-08
5.39795e-08
5.39796e-08
5.39796e-08
5.39796e-08
5.39797e-08
5.39797e-08
5.39797e-08
5.39798e-08
5.39798e-08
5.39798e-08
5.39798e-08
5.39798e-08
5.39798e-08
5.39798e-08
5.39798e-08
5.39797e-08
5.39797e-08
5.39797e-08
5.39796e-08
5.39796e-08
5.39795e-08
5.39795e-08
5.39795e-08
5.39795e-08
5.39796e-08
5.39797e-08
5.39799e-08
5.39802e-08
5.39806e-08
5.39814e-08
5.39822e-08
5.39836e-08
5.39851e-08
5.39871e-08
5.39894e-08
5.39917e-08
5.39874e-08
5.39853e-08
5.39832e-08
5.39814e-08
5.398e-08
5.39788e-08
5.3978e-08
5.39774e-08
5.3977e-08
5.39767e-08
5.39765e-08
5.39764e-08
5.39764e-08
5.39764e-08
5.39764e-08
5.39764e-08
5.39764e-08
5.39765e-08
5.39765e-08
5.39766e-08
5.39766e-08
5.39766e-08
5.39767e-08
5.39767e-08
5.39767e-08
5.39767e-08
5.39767e-08
5.39767e-08
5.39766e-08
5.39766e-08
5.39766e-08
5.39765e-08
5.39765e-08
5.39764e-08
5.39764e-08
5.39764e-08
5.39764e-08
5.39764e-08
5.39764e-08
5.39765e-08
5.39767e-08
5.3977e-08
5.39774e-08
5.3978e-08
5.39788e-08
5.398e-08
5.39814e-08
5.39832e-08
5.39853e-08
5.39874e-08
5.39844e-08
5.39824e-08
5.39805e-08
5.39789e-08
5.39776e-08
5.39764e-08
5.39757e-08
5.39751e-08
5.39748e-08
5.39745e-08
5.39744e-08
5.39743e-08
5.39743e-08
5.39743e-08
5.39743e-08
5.39743e-08
5.39743e-08
5.39744e-08
5.39744e-08
5.39744e-08
5.39745e-08
5.39745e-08
5.39745e-08
5.39746e-08
5.39746e-08
5.39746e-08
5.39746e-08
5.39745e-08
5.39745e-08
5.39745e-08
5.39744e-08
5.39744e-08
5.39744e-08
5.39743e-08
5.39743e-08
5.39742e-08
5.39742e-08
5.39742e-08
5.39743e-08
5.39744e-08
5.39745e-08
5.39748e-08
5.39751e-08
5.39758e-08
5.39765e-08
5.39776e-08
5.39789e-08
5.39806e-08
5.39825e-08
5.39844e-08
5.3982e-08
5.39801e-08
5.39783e-08
5.39767e-08
5.39755e-08
5.39745e-08
5.39739e-08
5.39733e-08
5.3973e-08
5.39727e-08
5.39726e-08
5.39725e-08
5.39725e-08
5.39725e-08
5.39725e-08
5.39725e-08
5.39726e-08
5.39726e-08
5.39727e-08
5.39727e-08
5.39727e-08
5.39728e-08
5.39728e-08
5.39728e-08
5.39728e-08
5.39728e-08
5.39728e-08
5.39728e-08
5.39728e-08
5.39727e-08
5.39727e-08
5.39727e-08
5.39726e-08
5.39726e-08
5.39725e-08
5.39725e-08
5.39725e-08
5.39725e-08
5.39725e-08
5.39726e-08
5.39727e-08
5.3973e-08
5.39733e-08
5.39739e-08
5.39745e-08
5.39755e-08
5.39768e-08
5.39783e-08
5.39801e-08
5.3982e-08
5.39796e-08
5.39778e-08
5.39761e-08
5.39747e-08
5.39736e-08
5.39726e-08
5.3972e-08
5.39715e-08
5.39712e-08
5.3971e-08
5.39709e-08
5.39708e-08
5.39708e-08
5.39708e-08
5.39708e-08
5.39708e-08
5.39708e-08
5.39709e-08
5.39709e-08
5.3971e-08
5.3971e-08
5.3971e-08
5.39711e-08
5.39711e-08
5.39711e-08
5.39711e-08
5.39711e-08
5.39711e-08
5.3971e-08
5.3971e-08
5.3971e-08
5.39709e-08
5.39709e-08
5.39708e-08
5.39708e-08
5.39708e-08
5.39708e-08
5.39708e-08
5.39708e-08
5.39709e-08
5.3971e-08
5.39712e-08
5.39715e-08
5.3972e-08
5.39726e-08
5.39736e-08
5.39747e-08
5.39762e-08
5.39778e-08
5.39797e-08
5.39772e-08
5.39754e-08
5.39739e-08
5.39725e-08
5.39715e-08
5.39706e-08
5.397e-08
5.39696e-08
5.39693e-08
5.39691e-08
5.3969e-08
5.39689e-08
5.39689e-08
5.39689e-08
5.39689e-08
5.3969e-08
5.3969e-08
5.3969e-08
5.39691e-08
5.39691e-08
5.39691e-08
5.39692e-08
5.39692e-08
5.39692e-08
5.39692e-08
5.39692e-08
5.39692e-08
5.39692e-08
5.39692e-08
5.39691e-08
5.39691e-08
5.39691e-08
5.3969e-08
5.3969e-08
5.3969e-08
5.39689e-08
5.39689e-08
5.39689e-08
5.39689e-08
5.3969e-08
5.39691e-08
5.39693e-08
5.39696e-08
5.39701e-08
5.39706e-08
5.39715e-08
5.39725e-08
5.39739e-08
5.39754e-08
5.39772e-08
5.39747e-08
5.39729e-08
5.39716e-08
5.39703e-08
5.39693e-08
5.39685e-08
5.3968e-08
5.39676e-08
5.39673e-08
5.39671e-08
5.3967e-08
5.3967e-08
5.3967e-08
5.3967e-08
5.3967e-08
5.3967e-08
5.3967e-08
5.39671e-08
5.39671e-08
5.39671e-08
5.39672e-08
5.39672e-08
5.39672e-08
5.39673e-08
5.39673e-08
5.39673e-08
5.39673e-08
5.39672e-08
5.39672e-08
5.39672e-08
5.39671e-08
5.39671e-08
5.39671e-08
5.3967e-08
5.3967e-08
5.3967e-08
5.39669e-08
5.39669e-08
5.3967e-08
5.3967e-08
5.39671e-08
5.39673e-08
5.39676e-08
5.3968e-08
5.39685e-08
5.39693e-08
5.39703e-08
5.39716e-08
5.3973e-08
5.39747e-08
5.39723e-08
5.39705e-08
5.39693e-08
5.39681e-08
5.39671e-08
5.39664e-08
5.39659e-08
5.39655e-08
5.39653e-08
5.39651e-08
5.3965e-08
5.3965e-08
5.3965e-08
5.3965e-08
5.3965e-08
5.3965e-08
5.3965e-08
5.39651e-08
5.39651e-08
5.39652e-08
5.39652e-08
5.39652e-08
5.39652e-08
5.39653e-08
5.39653e-08
5.39653e-08
5.39653e-08
5.39652e-08
5.39652e-08
5.39652e-08
5.39652e-08
5.39651e-08
5.39651e-08
5.3965e-08
5.3965e-08
5.3965e-08
5.3965e-08
5.3965e-08
5.3965e-08
5.3965e-08
5.39651e-08
5.39653e-08
5.39655e-08
5.39659e-08
5.39664e-08
5.39672e-08
5.39681e-08
5.39693e-08
5.39705e-08
5.39723e-08
5.397e-08
5.39682e-08
5.39671e-08
5.3966e-08
5.39651e-08
5.39644e-08
5.3964e-08
5.39636e-08
5.39634e-08
5.39633e-08
5.39632e-08
5.39631e-08
5.39631e-08
5.39631e-08
5.39631e-08
5.39632e-08
5.39632e-08
5.39632e-08
5.39633e-08
5.39633e-08
5.39633e-08
5.39634e-08
5.39634e-08
5.39634e-08
5.39634e-08
5.39634e-08
5.39634e-08
5.39634e-08
5.39634e-08
5.39633e-08
5.39633e-08
5.39633e-08
5.39632e-08
5.39632e-08
5.39632e-08
5.39631e-08
5.39631e-08
5.39631e-08
5.39631e-08
5.39632e-08
5.39633e-08
5.39634e-08
5.39636e-08
5.3964e-08
5.39645e-08
5.39651e-08
5.3966e-08
5.39671e-08
5.39682e-08
5.397e-08
5.39682e-08
5.39663e-08
5.39653e-08
5.39643e-08
5.39634e-08
5.39628e-08
5.39624e-08
5.3962e-08
5.39618e-08
5.39617e-08
5.39616e-08
5.39616e-08
5.39616e-08
5.39616e-08
5.39616e-08
5.39616e-08
5.39616e-08
5.39617e-08
5.39617e-08
5.39618e-08
5.39618e-08
5.39618e-08
5.39618e-08
5.39619e-08
5.39619e-08
5.39619e-08
5.39619e-08
5.39618e-08
5.39618e-08
5.39618e-08
5.39617e-08
5.39617e-08
5.39617e-08
5.39616e-08
5.39616e-08
5.39616e-08
5.39616e-08
5.39616e-08
5.39616e-08
5.39616e-08
5.39617e-08
5.39618e-08
5.3962e-08
5.39624e-08
5.39628e-08
5.39635e-08
5.39643e-08
5.39654e-08
5.39663e-08
5.39682e-08
5.3967e-08
5.39651e-08
5.39642e-08
5.39632e-08
5.39624e-08
5.39617e-08
5.39613e-08
5.3961e-08
5.39608e-08
5.39607e-08
5.39606e-08
5.39606e-08
5.39606e-08
5.39606e-08
5.39606e-08
5.39606e-08
5.39606e-08
5.39607e-08
5.39607e-08
5.39607e-08
5.39608e-08
5.39608e-08
5.39608e-08
5.39609e-08
5.39609e-08
5.39609e-08
5.39609e-08
5.39608e-08
5.39608e-08
5.39608e-08
5.39607e-08
5.39607e-08
5.39607e-08
5.39606e-08
5.39606e-08
5.39606e-08
5.39606e-08
5.39606e-08
5.39606e-08
5.39606e-08
5.39607e-08
5.39608e-08
5.3961e-08
5.39613e-08
5.39618e-08
5.39624e-08
5.39632e-08
5.39642e-08
5.39651e-08
5.3967e-08
)
;

boundaryField
{
    fuel
    {
        type            fixedValue;
        value           nonuniform 0();
    }
    wall
    {
        type            zeroGradient;
    }
    outlet
    {
        type            zeroGradient;
    }
    frontAndBack
    {
        type            empty;
    }
    procBoundary3to2
    {
        type            processor;
        value           nonuniform List<scalar> 
51
(
4.44216e-08
4.44275e-08
4.44303e-08
4.44341e-08
4.44353e-08
4.44376e-08
4.44381e-08
4.44395e-08
4.44396e-08
4.44404e-08
4.44403e-08
4.44408e-08
4.44408e-08
4.44409e-08
4.44409e-08
4.44408e-08
4.44408e-08
4.44404e-08
4.44404e-08
4.44396e-08
4.44395e-08
4.44381e-08
4.44376e-08
4.44353e-08
4.44341e-08
4.44303e-08
4.44274e-08
4.44215e-08
4.44142e-08
4.44035e-08
4.43869e-08
4.43687e-08
4.43352e-08
4.43003e-08
4.42328e-08
4.41571e-08
4.40602e-08
4.39003e-08
4.37952e-08
4.48448e-08
4.49509e-08
4.51133e-08
4.521e-08
4.52844e-08
4.53513e-08
4.53858e-08
4.54191e-08
4.54369e-08
4.54533e-08
4.54637e-08
4.54637e-08
)
;
    }
}


// ************************************************************************* //
