/*--------------------------------*- C++ -*----------------------------------*\
| =========                 |                                                 |
| \\      /  F ield         | OpenFOAM: The Open Source CFD Toolbox           |
|  \\    /   O peration     | Version:  dev                                   |
|   \\  /    A nd           | Web:      www.OpenFOAM.org                      |
|    \\/     M anipulation  |                                                 |
\*---------------------------------------------------------------------------*/
FoamFile
{
    version     2.0;
    format      ascii;
    class       volScalarField;
    location    "0.09";
    object      CO2;
}
// * * * * * * * * * * * * * * * * * * * * * * * * * * * * * * * * * * * * * //

dimensions      [0 0 0 0 0 0 0];

internalField   nonuniform List<scalar> 
1989
(
0.0491536
0.049154
0.0491542
0.0491544
0.0491545
0.0491547
0.0491547
0.0491548
0.0491548
0.0491549
0.0491549
0.0491549
0.0491549
0.0491549
0.0491549
0.0491549
0.0491549
0.0491549
0.0491549
0.0491548
0.0491548
0.0491547
0.0491546
0.0491545
0.0491544
0.0491542
0.0491539
0.0491536
0.0491532
0.0491526
0.0491518
0.0491508
0.0491491
0.0491473
0.0491441
0.0491402
0.0491359
0.0491292
0.0491249
0.0491547
0.0491588
0.0491652
0.0491692
0.0491729
0.0491758
0.0491776
0.0491791
0.04918
0.0491808
0.0491814
0.0491818
0.0491821
0.0491823
0.0491825
0.0491826
0.0491828
0.0491828
0.0491829
0.0491829
0.049183
0.049183
0.049183
0.049183
0.049183
0.049183
0.049183
0.049183
0.049183
0.049183
0.0491829
0.0491829
0.0491828
0.0491827
0.0491826
0.0491825
0.0491823
0.0491821
0.0491818
0.0491814
0.0491808
0.04918
0.0491791
0.0491776
0.0491758
0.0491729
0.0491693
0.0491652
0.0491588
0.0491547
0.0491822
0.049186
0.0491921
0.0491959
0.0491993
0.049202
0.0492036
0.049205
0.0492059
0.0492067
0.0492072
0.0492076
0.0492079
0.0492081
0.0492083
0.0492084
0.0492085
0.0492085
0.0492086
0.0492087
0.0492087
0.0492087
0.0492087
0.0492087
0.0492088
0.0492088
0.0492087
0.0492087
0.0492087
0.0492087
0.0492086
0.0492086
0.0492085
0.0492085
0.0492084
0.0492082
0.049208
0.0492079
0.0492076
0.0492072
0.0492067
0.0492059
0.0492051
0.0492037
0.049202
0.0491993
0.0491959
0.0491921
0.049186
0.0491822
0.0492075
0.0492112
0.049217
0.0492205
0.0492236
0.0492262
0.0492277
0.049229
0.0492298
0.0492305
0.049231
0.0492314
0.0492317
0.0492318
0.049232
0.0492321
0.0492323
0.0492323
0.0492324
0.0492324
0.0492325
0.0492325
0.0492325
0.0492325
0.0492325
0.0492325
0.0492325
0.0492325
0.0492325
0.0492324
0.0492324
0.0492324
0.0492323
0.0492322
0.0492321
0.049232
0.0492318
0.0492316
0.0492314
0.049231
0.0492306
0.0492298
0.049229
0.0492277
0.0492262
0.0492236
0.0492205
0.049217
0.0492112
0.0492076
0.0492309
0.0492343
0.0492393
0.0492425
0.0492454
0.0492477
0.0492492
0.0492504
0.0492511
0.0492518
0.0492522
0.0492526
0.0492528
0.049253
0.0492532
0.0492533
0.0492534
0.0492535
0.0492535
0.0492536
0.0492536
0.0492536
0.0492536
0.0492536
0.0492537
0.0492537
0.0492536
0.0492536
0.0492536
0.0492536
0.0492535
0.0492535
0.0492534
0.0492534
0.0492533
0.0492532
0.049253
0.0492528
0.0492526
0.0492522
0.0492518
0.0492512
0.0492504
0.0492492
0.0492478
0.0492454
0.0492425
0.0492393
0.0492343
0.0492309
0.0492515
0.0492546
0.0492594
0.0492624
0.0492651
0.0492673
0.0492686
0.0492698
0.0492705
0.0492711
0.0492715
0.0492718
0.0492721
0.0492722
0.0492724
0.0492725
0.0492726
0.0492727
0.0492727
0.0492728
0.0492728
0.0492728
0.0492728
0.0492728
0.0492729
0.0492728
0.0492728
0.0492728
0.0492728
0.0492728
0.0492728
0.0492727
0.0492727
0.0492726
0.0492725
0.0492724
0.0492722
0.0492721
0.0492718
0.0492715
0.0492711
0.0492705
0.0492698
0.0492686
0.0492673
0.0492651
0.0492624
0.0492594
0.0492546
0.0492515
0.0492699
0.0492728
0.0492772
0.04928
0.0492825
0.0492845
0.0492857
0.0492868
0.0492875
0.049288
0.0492884
0.0492887
0.0492889
0.0492891
0.0492893
0.0492893
0.0492894
0.0492895
0.0492896
0.0492896
0.0492896
0.0492896
0.0492897
0.0492897
0.0492897
0.0492897
0.0492897
0.0492897
0.0492896
0.0492896
0.0492896
0.0492896
0.0492895
0.0492894
0.0492893
0.0492892
0.0492891
0.0492889
0.0492887
0.0492884
0.049288
0.0492875
0.0492868
0.0492858
0.0492845
0.0492825
0.04928
0.0492772
0.0492728
0.0492699
0.0492862
0.0492891
0.0492931
0.0492957
0.049298
0.0492999
0.049301
0.049302
0.0493026
0.0493031
0.0493035
0.0493038
0.049304
0.0493041
0.0493043
0.0493044
0.0493045
0.0493045
0.0493046
0.0493046
0.0493046
0.0493046
0.0493047
0.0493047
0.0493047
0.0493047
0.0493047
0.0493047
0.0493046
0.0493046
0.0493046
0.0493046
0.0493045
0.0493045
0.0493044
0.0493043
0.0493041
0.049304
0.0493038
0.0493035
0.0493031
0.0493026
0.049302
0.049301
0.0492999
0.049298
0.0492957
0.0492931
0.0492891
0.0492863
0.0493009
0.0493035
0.0493072
0.0493096
0.0493117
0.0493134
0.0493144
0.0493153
0.0493159
0.0493164
0.0493167
0.049317
0.0493172
0.0493173
0.0493174
0.0493175
0.0493176
0.0493177
0.0493177
0.0493177
0.0493178
0.0493178
0.0493178
0.0493178
0.0493178
0.0493178
0.0493178
0.0493178
0.0493178
0.0493178
0.0493177
0.0493177
0.0493177
0.0493176
0.0493175
0.0493174
0.0493173
0.0493172
0.049317
0.0493167
0.0493164
0.0493159
0.0493153
0.0493144
0.0493134
0.0493117
0.0493096
0.0493072
0.0493035
0.0493009
0.0493136
0.049316
0.0493193
0.0493216
0.0493235
0.049325
0.049326
0.0493268
0.0493273
0.0493278
0.0493281
0.0493283
0.0493285
0.0493286
0.0493288
0.0493288
0.0493289
0.049329
0.049329
0.049329
0.0493291
0.0493291
0.0493291
0.0493291
0.0493291
0.0493291
0.0493291
0.0493291
0.0493291
0.0493291
0.049329
0.049329
0.049329
0.0493289
0.0493288
0.0493288
0.0493286
0.0493285
0.0493283
0.0493281
0.0493278
0.0493273
0.0493268
0.049326
0.049325
0.0493235
0.0493216
0.0493194
0.0493161
0.0493136
0.0493245
0.0493268
0.0493297
0.0493316
0.0493333
0.0493347
0.0493356
0.0493364
0.0493368
0.0493373
0.0493375
0.0493378
0.0493379
0.0493381
0.0493382
0.0493383
0.0493383
0.0493384
0.0493384
0.0493385
0.0493385
0.0493385
0.0493385
0.0493385
0.0493385
0.0493385
0.0493385
0.0493385
0.0493385
0.0493385
0.0493385
0.0493384
0.0493384
0.0493383
0.0493383
0.0493382
0.0493381
0.0493379
0.0493378
0.0493375
0.0493373
0.0493368
0.0493364
0.0493356
0.0493347
0.0493333
0.0493316
0.0493297
0.0493268
0.0493245
0.0493336
0.0493357
0.0493383
0.04934
0.0493416
0.0493429
0.0493437
0.0493444
0.0493448
0.0493452
0.0493455
0.0493457
0.0493458
0.0493459
0.0493461
0.0493461
0.0493462
0.0493462
0.0493463
0.0493463
0.0493464
0.0493464
0.0493464
0.0493464
0.0493464
0.0493464
0.0493464
0.0493464
0.0493464
0.0493464
0.0493463
0.0493463
0.0493462
0.0493462
0.0493461
0.049346
0.0493459
0.0493458
0.0493457
0.0493455
0.0493452
0.0493448
0.0493444
0.0493437
0.0493429
0.0493416
0.04934
0.0493383
0.0493357
0.0493336
0.0493412
0.0493431
0.0493455
0.0493471
0.0493485
0.0493497
0.0493504
0.049351
0.0493514
0.0493518
0.049352
0.0493522
0.0493524
0.0493525
0.0493526
0.0493527
0.0493527
0.0493528
0.0493528
0.0493528
0.0493529
0.0493529
0.0493529
0.0493529
0.0493529
0.0493529
0.0493529
0.0493529
0.0493529
0.0493529
0.0493528
0.0493528
0.0493528
0.0493527
0.0493527
0.0493526
0.0493525
0.0493524
0.0493522
0.049352
0.0493518
0.0493514
0.049351
0.0493504
0.0493497
0.0493485
0.0493471
0.0493455
0.0493431
0.0493412
0.0493474
0.0493492
0.0493514
0.0493528
0.0493541
0.0493551
0.0493558
0.0493563
0.0493567
0.0493571
0.0493573
0.0493575
0.0493576
0.0493577
0.0493578
0.0493579
0.0493579
0.049358
0.049358
0.049358
0.0493581
0.0493581
0.0493581
0.0493581
0.0493581
0.0493581
0.0493581
0.0493581
0.0493581
0.0493581
0.049358
0.049358
0.049358
0.0493579
0.0493579
0.0493578
0.0493577
0.0493576
0.0493574
0.0493573
0.049357
0.0493567
0.0493563
0.0493558
0.0493551
0.0493541
0.0493528
0.0493514
0.0493492
0.0493474
0.0493523
0.049354
0.0493559
0.0493572
0.0493584
0.0493593
0.0493599
0.0493604
0.0493608
0.0493611
0.0493613
0.0493614
0.0493616
0.0493617
0.0493618
0.0493618
0.0493619
0.0493619
0.049362
0.049362
0.049362
0.049362
0.049362
0.0493621
0.0493621
0.0493621
0.0493621
0.049362
0.049362
0.049362
0.049362
0.049362
0.0493619
0.0493619
0.0493618
0.0493617
0.0493617
0.0493615
0.0493614
0.0493613
0.0493611
0.0493608
0.0493604
0.0493599
0.0493593
0.0493584
0.0493572
0.0493559
0.049354
0.0493523
0.0493561
0.0493576
0.0493593
0.0493605
0.0493616
0.0493624
0.049363
0.0493634
0.0493637
0.049364
0.0493642
0.0493644
0.0493645
0.0493646
0.0493647
0.0493647
0.0493648
0.0493648
0.0493649
0.0493649
0.0493649
0.0493649
0.049365
0.049365
0.049365
0.049365
0.049365
0.049365
0.0493649
0.0493649
0.0493649
0.0493649
0.0493648
0.0493648
0.0493647
0.0493647
0.0493646
0.0493645
0.0493644
0.0493642
0.049364
0.0493637
0.0493634
0.049363
0.0493624
0.0493616
0.0493605
0.0493593
0.0493576
0.0493561
0.0493589
0.0493603
0.0493618
0.0493628
0.0493638
0.0493645
0.0493651
0.0493655
0.0493658
0.049366
0.0493662
0.0493664
0.0493665
0.0493666
0.0493667
0.0493667
0.0493668
0.0493668
0.0493668
0.0493669
0.0493669
0.0493669
0.0493669
0.0493669
0.0493669
0.0493669
0.0493669
0.0493669
0.0493669
0.0493669
0.0493669
0.0493668
0.0493668
0.0493668
0.0493667
0.0493666
0.0493666
0.0493665
0.0493664
0.0493662
0.049366
0.0493658
0.0493655
0.0493651
0.0493646
0.0493638
0.0493628
0.0493618
0.0493603
0.0493589
0.0493608
0.049362
0.0493634
0.0493643
0.0493652
0.0493659
0.0493664
0.0493667
0.049367
0.0493673
0.0493674
0.0493676
0.0493677
0.0493678
0.0493678
0.0493679
0.0493679
0.049368
0.049368
0.049368
0.0493681
0.0493681
0.0493681
0.0493681
0.0493681
0.0493681
0.0493681
0.0493681
0.0493681
0.0493681
0.049368
0.049368
0.049368
0.0493679
0.0493679
0.0493678
0.0493677
0.0493677
0.0493676
0.0493674
0.0493673
0.049367
0.0493667
0.0493664
0.0493659
0.0493652
0.0493643
0.0493634
0.049362
0.0493608
0.0493619
0.0493631
0.0493642
0.0493651
0.0493659
0.0493665
0.049367
0.0493673
0.0493676
0.0493678
0.0493679
0.0493681
0.0493682
0.0493682
0.0493683
0.0493684
0.0493684
0.0493685
0.0493685
0.0493685
0.0493685
0.0493686
0.0493686
0.0493686
0.0493686
0.0493686
0.0493686
0.0493686
0.0493686
0.0493685
0.0493685
0.0493685
0.0493685
0.0493684
0.0493684
0.0493683
0.0493682
0.0493682
0.0493681
0.0493679
0.0493678
0.0493676
0.0493673
0.049367
0.0493665
0.0493659
0.0493651
0.0493642
0.0493631
0.0493619
0.0493624
0.0493634
0.0493645
0.0493653
0.049366
0.0493665
0.049367
0.0493673
0.0493675
0.0493677
0.0493679
0.049368
0.0493681
0.0493682
0.0493682
0.0493683
0.0493683
0.0493684
0.0493684
0.0493684
0.0493684
0.0493685
0.0493685
0.0493685
0.0493685
0.0493685
0.0493685
0.0493685
0.0493684
0.0493684
0.0493684
0.0493684
0.0493683
0.0493683
0.0493683
0.0493682
0.0493681
0.0493681
0.049368
0.0493679
0.0493677
0.0493675
0.0493673
0.049367
0.0493666
0.049366
0.0493653
0.0493645
0.0493634
0.0493624
0.0493624
0.0493633
0.0493642
0.0493649
0.0493656
0.0493661
0.0493665
0.0493667
0.049367
0.0493672
0.0493673
0.0493674
0.0493675
0.0493676
0.0493676
0.0493677
0.0493677
0.0493678
0.0493678
0.0493678
0.0493678
0.0493679
0.0493679
0.0493679
0.0493679
0.0493679
0.0493679
0.0493679
0.0493679
0.0493678
0.0493678
0.0493678
0.0493678
0.0493677
0.0493677
0.0493676
0.0493676
0.0493675
0.0493674
0.0493673
0.0493672
0.049367
0.0493667
0.0493665
0.0493661
0.0493656
0.0493649
0.0493642
0.0493633
0.0493624
0.0493618
0.0493627
0.0493635
0.0493642
0.0493648
0.0493652
0.0493656
0.0493658
0.049366
0.0493662
0.0493663
0.0493664
0.0493665
0.0493666
0.0493666
0.0493667
0.0493667
0.0493668
0.0493668
0.0493668
0.0493668
0.0493669
0.0493669
0.0493669
0.0493669
0.0493669
0.0493669
0.0493669
0.0493669
0.0493668
0.0493668
0.0493668
0.0493668
0.0493667
0.0493667
0.0493666
0.0493666
0.0493665
0.0493664
0.0493663
0.0493662
0.049366
0.0493658
0.0493656
0.0493652
0.0493648
0.0493642
0.0493635
0.0493627
0.0493618
0.049361
0.0493617
0.0493624
0.049363
0.0493636
0.049364
0.0493643
0.0493646
0.0493648
0.0493649
0.049365
0.0493651
0.0493652
0.0493653
0.0493653
0.0493654
0.0493654
0.0493655
0.0493655
0.0493655
0.0493655
0.0493655
0.0493656
0.0493656
0.0493656
0.0493656
0.0493656
0.0493656
0.0493655
0.0493655
0.0493655
0.0493655
0.0493655
0.0493654
0.0493654
0.0493653
0.0493653
0.0493652
0.0493651
0.049365
0.0493649
0.0493648
0.0493646
0.0493643
0.049364
0.0493636
0.049363
0.0493625
0.0493617
0.049361
0.0493598
0.0493604
0.0493611
0.0493617
0.0493622
0.0493625
0.0493628
0.049363
0.0493632
0.0493634
0.0493635
0.0493636
0.0493637
0.0493637
0.0493638
0.0493638
0.0493639
0.0493639
0.0493639
0.049364
0.049364
0.049364
0.049364
0.049364
0.049364
0.049364
0.049364
0.049364
0.049364
0.049364
0.049364
0.0493639
0.0493639
0.0493639
0.0493638
0.0493638
0.0493637
0.0493636
0.0493636
0.0493635
0.0493634
0.0493632
0.049363
0.0493628
0.0493625
0.0493622
0.0493617
0.0493611
0.0493605
0.0493598
0.0493584
0.049359
0.0493596
0.0493601
0.0493605
0.0493609
0.0493611
0.0493613
0.0493615
0.0493617
0.0493618
0.0493619
0.0493619
0.049362
0.049362
0.0493621
0.0493621
0.0493622
0.0493622
0.0493622
0.0493622
0.0493622
0.0493623
0.0493623
0.0493623
0.0493623
0.0493623
0.0493623
0.0493622
0.0493622
0.0493622
0.0493622
0.0493622
0.0493621
0.0493621
0.049362
0.049362
0.0493619
0.0493619
0.0493618
0.0493617
0.0493615
0.0493613
0.0493611
0.0493609
0.0493605
0.0493601
0.0493596
0.049359
0.0493584
0.0493568
0.0493574
0.0493579
0.0493583
0.0493588
0.049359
0.0493593
0.0493595
0.0493597
0.0493598
0.0493599
0.04936
0.0493601
0.0493601
0.0493602
0.0493602
0.0493603
0.0493603
0.0493603
0.0493603
0.0493603
0.0493604
0.0493604
0.0493604
0.0493604
0.0493604
0.0493604
0.0493604
0.0493604
0.0493603
0.0493603
0.0493603
0.0493603
0.0493602
0.0493602
0.0493602
0.0493601
0.04936
0.04936
0.0493599
0.0493598
0.0493597
0.0493595
0.0493593
0.0493591
0.0493588
0.0493583
0.0493579
0.0493574
0.0493568
0.0493551
0.0493556
0.0493561
0.0493565
0.0493569
0.0493572
0.0493574
0.0493576
0.0493577
0.0493578
0.0493579
0.049358
0.0493581
0.0493581
0.0493582
0.0493582
0.0493583
0.0493583
0.0493583
0.0493583
0.0493583
0.0493584
0.0493584
0.0493584
0.0493584
0.0493584
0.0493584
0.0493584
0.0493584
0.0493583
0.0493583
0.0493583
0.0493583
0.0493582
0.0493582
0.0493582
0.0493581
0.0493581
0.049358
0.0493579
0.0493578
0.0493577
0.0493576
0.0493574
0.0493572
0.0493569
0.0493565
0.0493561
0.0493556
0.0493551
0.0493533
0.0493538
0.0493542
0.0493546
0.0493549
0.0493552
0.0493554
0.0493555
0.0493557
0.0493558
0.0493559
0.049356
0.049356
0.0493561
0.0493561
0.0493562
0.0493562
0.0493563
0.0493563
0.0493563
0.0493563
0.0493563
0.0493563
0.0493564
0.0493564
0.0493564
0.0493564
0.0493563
0.0493563
0.0493563
0.0493563
0.0493563
0.0493562
0.0493562
0.0493562
0.0493561
0.0493561
0.049356
0.049356
0.0493559
0.0493558
0.0493557
0.0493555
0.0493554
0.0493552
0.0493549
0.0493546
0.0493542
0.0493538
0.0493533
0.0493515
0.0493519
0.0493523
0.0493526
0.049353
0.0493532
0.0493534
0.0493535
0.0493537
0.0493538
0.0493538
0.0493539
0.049354
0.049354
0.0493541
0.0493541
0.0493542
0.0493542
0.0493542
0.0493542
0.0493543
0.0493543
0.0493543
0.0493543
0.0493543
0.0493543
0.0493543
0.0493543
0.0493543
0.0493542
0.0493542
0.0493542
0.0493542
0.0493542
0.0493541
0.0493541
0.049354
0.049354
0.0493539
0.0493538
0.0493538
0.0493537
0.0493535
0.0493534
0.0493532
0.049353
0.0493526
0.0493523
0.0493519
0.0493515
0.0493496
0.04935
0.0493504
0.0493507
0.049351
0.0493511
0.0493514
0.0493515
0.0493516
0.0493517
0.0493518
0.0493519
0.0493519
0.049352
0.049352
0.0493521
0.0493521
0.0493521
0.0493521
0.0493522
0.0493522
0.0493522
0.0493522
0.0493522
0.0493522
0.0493522
0.0493522
0.0493522
0.0493522
0.0493522
0.0493522
0.0493521
0.0493521
0.0493521
0.049352
0.049352
0.049352
0.0493519
0.0493518
0.0493518
0.0493517
0.0493516
0.0493515
0.0493514
0.0493511
0.049351
0.0493507
0.0493504
0.04935
0.0493497
0.0493478
0.0493481
0.0493484
0.0493487
0.049349
0.0493491
0.0493493
0.0493494
0.0493496
0.0493497
0.0493497
0.0493498
0.0493499
0.0493499
0.04935
0.04935
0.04935
0.0493501
0.0493501
0.0493501
0.0493501
0.0493501
0.0493501
0.0493501
0.0493502
0.0493502
0.0493501
0.0493501
0.0493501
0.0493501
0.0493501
0.0493501
0.04935
0.04935
0.04935
0.0493499
0.0493499
0.0493499
0.0493498
0.0493497
0.0493497
0.0493496
0.0493494
0.0493493
0.0493491
0.049349
0.0493487
0.0493484
0.0493481
0.0493478
0.0493459
0.0493462
0.0493465
0.0493467
0.049347
0.0493471
0.0493473
0.0493474
0.0493476
0.0493476
0.0493477
0.0493478
0.0493478
0.0493479
0.0493479
0.049348
0.049348
0.049348
0.049348
0.0493481
0.0493481
0.0493481
0.0493481
0.0493481
0.0493481
0.0493481
0.0493481
0.0493481
0.0493481
0.0493481
0.0493481
0.049348
0.049348
0.049348
0.049348
0.0493479
0.0493479
0.0493478
0.0493478
0.0493477
0.0493476
0.0493475
0.0493474
0.0493473
0.0493471
0.049347
0.0493467
0.0493465
0.0493462
0.0493459
0.0493441
0.0493444
0.0493446
0.0493448
0.0493451
0.0493452
0.0493454
0.0493455
0.0493456
0.0493457
0.0493457
0.0493458
0.0493459
0.0493459
0.0493459
0.049346
0.049346
0.049346
0.0493461
0.0493461
0.0493461
0.0493461
0.0493461
0.0493461
0.0493461
0.0493461
0.0493461
0.0493461
0.0493461
0.0493461
0.0493461
0.049346
0.049346
0.049346
0.049346
0.0493459
0.0493459
0.0493458
0.0493458
0.0493457
0.0493457
0.0493456
0.0493455
0.0493454
0.0493452
0.0493451
0.0493448
0.0493446
0.0493444
0.0493441
0.0493423
0.0493426
0.0493428
0.049343
0.0493432
0.0493433
0.0493435
0.0493436
0.0493437
0.0493438
0.0493438
0.0493439
0.0493439
0.049344
0.049344
0.049344
0.0493441
0.0493441
0.0493441
0.0493441
0.0493442
0.0493442
0.0493442
0.0493442
0.0493442
0.0493442
0.0493442
0.0493442
0.0493442
0.0493442
0.0493441
0.0493441
0.0493441
0.0493441
0.049344
0.049344
0.049344
0.0493439
0.0493439
0.0493438
0.0493437
0.0493437
0.0493436
0.0493435
0.0493433
0.0493432
0.049343
0.0493428
0.0493426
0.0493423
0.0493406
0.0493408
0.049341
0.0493412
0.0493414
0.0493415
0.0493417
0.0493418
0.0493419
0.0493419
0.049342
0.0493421
0.0493421
0.0493421
0.0493422
0.0493422
0.0493422
0.0493423
0.0493423
0.0493423
0.0493423
0.0493423
0.0493423
0.0493424
0.0493424
0.0493424
0.0493424
0.0493423
0.0493423
0.0493423
0.0493423
0.0493423
0.0493423
0.0493422
0.0493422
0.0493422
0.0493421
0.0493421
0.049342
0.049342
0.0493419
0.0493419
0.0493418
0.0493417
0.0493415
0.0493414
0.0493412
0.049341
0.0493408
0.0493406
0.049339
0.0493392
0.0493394
0.0493396
0.0493397
0.0493398
0.04934
0.0493401
0.0493402
0.0493402
0.0493403
0.0493403
0.0493404
0.0493404
0.0493405
0.0493405
0.0493405
0.0493405
0.0493406
0.0493406
0.0493406
0.0493406
0.0493406
0.0493406
0.0493406
0.0493406
0.0493406
0.0493406
0.0493406
0.0493406
0.0493406
0.0493406
0.0493405
0.0493405
0.0493405
0.0493404
0.0493404
0.0493404
0.0493403
0.0493403
0.0493402
0.0493401
0.0493401
0.04934
0.0493398
0.0493397
0.0493396
0.0493394
0.0493392
0.049339
0.0493375
0.0493377
0.0493379
0.049338
0.0493382
0.0493383
0.0493384
0.0493385
0.0493386
0.0493387
0.0493387
0.0493388
0.0493388
0.0493388
0.0493389
0.0493389
0.0493389
0.049339
0.049339
0.049339
0.049339
0.049339
0.049339
0.0493391
0.0493391
0.0493391
0.049339
0.049339
0.049339
0.049339
0.049339
0.049339
0.049339
0.0493389
0.0493389
0.0493389
0.0493388
0.0493388
0.0493388
0.0493387
0.0493386
0.0493386
0.0493385
0.0493384
0.0493383
0.0493382
0.049338
0.0493379
0.0493377
0.0493375
0.0493362
0.0493364
0.0493366
0.0493367
0.0493368
0.049337
0.0493371
0.0493371
0.0493372
0.0493373
0.0493373
0.0493374
0.0493374
0.0493375
0.0493375
0.0493375
0.0493376
0.0493376
0.0493376
0.0493376
0.0493376
0.0493377
0.0493377
0.0493377
0.0493377
0.0493377
0.0493377
0.0493377
0.0493377
0.0493376
0.0493376
0.0493376
0.0493376
0.0493376
0.0493375
0.0493375
0.0493375
0.0493374
0.0493374
0.0493373
0.0493373
0.0493372
0.0493371
0.0493371
0.049337
0.0493369
0.0493367
0.0493366
0.0493364
0.0493362
0.0493352
0.0493354
0.0493355
0.0493356
0.0493358
0.0493359
0.049336
0.0493361
0.0493361
0.0493362
0.0493363
0.0493363
0.0493363
0.0493364
0.0493364
0.0493364
0.0493365
0.0493365
0.0493365
0.0493365
0.0493365
0.0493366
0.0493366
0.0493366
0.0493366
0.0493366
0.0493366
0.0493366
0.0493366
0.0493365
0.0493365
0.0493365
0.0493365
0.0493365
0.0493364
0.0493364
0.0493364
0.0493363
0.0493363
0.0493362
0.0493362
0.0493361
0.049336
0.049336
0.0493359
0.0493358
0.0493356
0.0493355
0.0493354
0.0493352
0.0493345
0.0493347
0.0493348
0.049335
0.0493351
0.0493352
0.0493353
0.0493354
0.0493354
0.0493355
0.0493356
0.0493356
0.0493356
0.0493357
0.0493357
0.0493357
0.0493358
0.0493358
0.0493358
0.0493358
0.0493358
0.0493359
0.0493359
0.0493359
0.0493359
0.0493359
0.0493359
0.0493359
0.0493359
0.0493358
0.0493358
0.0493358
0.0493358
0.0493358
0.0493357
0.0493357
0.0493357
0.0493356
0.0493356
0.0493356
0.0493355
0.0493354
0.0493354
0.0493353
0.0493352
0.0493351
0.049335
0.0493348
0.0493347
0.0493345
)
;

boundaryField
{
    fuel
    {
        type            fixedValue;
        value           nonuniform 0();
    }
    wall
    {
        type            zeroGradient;
    }
    outlet
    {
        type            zeroGradient;
    }
    frontAndBack
    {
        type            empty;
    }
    procBoundary3to2
    {
        type            processor;
        value           nonuniform List<scalar> 
51
(
0.0491231
0.0491235
0.0491237
0.0491239
0.049124
0.0491242
0.0491242
0.0491243
0.0491244
0.0491244
0.0491244
0.0491245
0.0491245
0.0491245
0.0491245
0.0491245
0.0491245
0.0491244
0.0491244
0.0491244
0.0491243
0.0491242
0.0491242
0.049124
0.0491239
0.0491237
0.0491234
0.0491231
0.0491226
0.0491221
0.0491212
0.0491201
0.0491183
0.0491164
0.049113
0.0491088
0.0491043
0.0490972
0.0490927
0.0491249
0.0491292
0.0491359
0.0491402
0.0491442
0.0491473
0.0491491
0.0491508
0.0491518
0.0491526
0.0491532
0.0491532
)
;
    }
}


// ************************************************************************* //
