/*--------------------------------*- C++ -*----------------------------------*\
| =========                 |                                                 |
| \\      /  F ield         | OpenFOAM: The Open Source CFD Toolbox           |
|  \\    /   O peration     | Version:  dev                                   |
|   \\  /    A nd           | Web:      www.OpenFOAM.org                      |
|    \\/     M anipulation  |                                                 |
\*---------------------------------------------------------------------------*/
FoamFile
{
    version     2.0;
    format      ascii;
    class       volScalarField;
    location    "0.09";
    object      H2;
}
// * * * * * * * * * * * * * * * * * * * * * * * * * * * * * * * * * * * * * //

dimensions      [0 0 0 0 0 0 0];

internalField   nonuniform List<scalar> 
250
(
0.00585803
0.00585801
0.00585805
0.00585803
0.00585787
0.00585803
0.00585771
0.00585663
0.00584627
0.00569301
0.0014576
0.00696907
0.00696907
0.00696926
0.00696902
0.00696864
0.00696917
0.0069681
0.00696586
0.00694551
0.00667347
0.00359012
0.00743884
0.0074389
0.00743925
0.00743872
0.00743787
0.00743897
0.00743697
0.00743309
0.00740488
0.0070679
0.00528218
0.00770504
0.00770521
0.00770567
0.00770483
0.00770305
0.00770516
0.00770186
0.00769608
0.00766217
0.00731217
0.00646792
0.00788336
0.00788368
0.00788417
0.00788311
0.00787955
0.00788344
0.00787812
0.00787031
0.00783211
0.00749881
0.0072484
0.00801704
0.00801759
0.00801803
0.00801682
0.00801735
0.00801709
0.00801498
0.00800223
0.00795869
0.00765297
0.00774885
0.00812547
0.00812641
0.00812676
0.00812534
0.0081248
0.00812549
0.00812172
0.00810545
0.00805841
0.00778226
0.00806724
0.00821818
0.00821985
0.00822009
0.00821824
0.00821705
0.0082183
0.00821287
0.00819208
0.00814181
0.00788969
0.00826932
0.00830066
0.00830434
0.00830375
0.00830095
0.00829889
0.00830152
0.00829466
0.00827243
0.00821924
0.00799209
0.00839638
0.00837452
0.00838064
0.00837934
0.00837514
0.00837229
0.00837617
0.00836767
0.00835169
0.0082945
0.00808663
0.00847346
0.00845136
0.00845422
0.00844696
0.00844293
0.00844922
0.00843738
0.00841525
0.00835495
0.00816738
0.00851852
0.00851787
0.00851978
0.00851899
0.00851394
0.00852341
0.00850891
0.00848296
0.00841412
0.00822918
0.00854287
0.00858557
0.00858035
0.00858692
0.00858094
0.00859477
0.00857723
0.00854779
0.00847329
0.0082858
0.0085526
0.00865184
0.00864462
0.00865121
0.00864433
0.00865453
0.00863398
0.00860977
0.0085298
0.00833754
0.00855104
0.00871543
0.00870525
0.00871209
0.00870443
0.00871057
0.0086899
0.00866919
0.00858408
0.00838496
0.00854087
0.00876852
0.00876235
0.00876977
0.00876144
0.008771
0.00874655
0.00872623
0.0086365
0.00843321
0.00852483
0.00882529
0.0088163
0.00882439
0.00881548
0.00882177
0.00880058
0.00878095
0.0086874
0.00847588
0.0085056
0.00887263
0.00886738
0.00887613
0.0088667
0.00886939
0.00885194
0.00883364
0.00873713
0.00851679
0.00848589
0.00892303
0.00891584
0.00892518
0.00891525
0.00892059
0.00890093
0.00887731
0.00877979
0.00855666
0.00846811
0.00896533
0.00896177
0.00897177
0.00896123
0.0089639
0.00894804
0.00892256
0.00882289
0.00859597
0.00845427
0.00901037
0.00900532
0.00901615
0.0090048
0.00900986
0.00898845
0.00896715
0.00886771
0.00863498
0.00844599
0.00904845
0.00904664
0.00905346
0.00904616
0.0090483
0.00902674
0.00900984
0.0089116
0.00867942
0.00844453
0.00908412
0.00908125
0.00908858
0.00908081
0.00908416
0.00906266
0.00904553
0.00894963
0.00872545
0.00845061
0.00911742
0.00911685
0.00912437
0.00911656
0.0091208
0.00909953
0.00908303
0.00898964
0.00876816
0.00846457
)
;

boundaryField
{
    fuel
    {
        type            fixedValue;
        value           uniform 0;
    }
    wall
    {
        type            zeroGradient;
    }
    outlet
    {
        type            zeroGradient;
    }
    frontAndBack
    {
        type            empty;
    }
    procBoundary3to0
    {
        type            processor;
        value           nonuniform List<scalar> 10(0.0091484 0.00914746 0.00915475 0.00914729 0.00915186 0.00913148 0.00911542 0.00902567 0.00881049 0.00848688);
    }
    procBoundary3to2
    {
        type            processor;
        value           nonuniform List<scalar> 
25
(
0.00585794
0.00696887
0.00743843
0.00770432
0.00788242
0.00801671
0.00812516
0.0082177
0.00830012
0.00837392
0.00844597
0.00844597
0.00851764
0.00858535
0.00864955
0.00871059
0.00876871
0.0088242
0.00887732
0.00892183
0.0089638
0.00900669
0.00904783
0.00908227
0.00911756
)
;
    }
}


// ************************************************************************* //
