/*--------------------------------*- C++ -*----------------------------------*\
| =========                 |                                                 |
| \\      /  F ield         | OpenFOAM: The Open Source CFD Toolbox           |
|  \\    /   O peration     | Version:  dev                                   |
|   \\  /    A nd           | Web:      www.OpenFOAM.org                      |
|    \\/     M anipulation  |                                                 |
\*---------------------------------------------------------------------------*/
FoamFile
{
    version     2.0;
    format      ascii;
    class       volScalarField;
    location    "0.09";
    object      H2;
}
// * * * * * * * * * * * * * * * * * * * * * * * * * * * * * * * * * * * * * //

dimensions      [0 0 0 0 0 0 0];

internalField   nonuniform List<scalar> 
250
(
0.0058138
0.00581379
0.00581376
0.00581368
0.00581377
0.00581376
0.0058136
0.00581208
0.00580153
0.0057276
0.000436158
0.00696633
0.00696662
0.00696621
0.00696624
0.00696647
0.00696609
0.00696589
0.00696244
0.00694133
0.00680021
0.00120334
0.00745095
0.00745171
0.00745068
0.00745079
0.00745121
0.00745048
0.00745018
0.00744492
0.00741349
0.00721713
0.00199968
0.00772151
0.00772312
0.00772101
0.00772124
0.00772177
0.00772074
0.00772039
0.00771339
0.00767251
0.00743285
0.00278329
0.00789952
0.0079027
0.00789865
0.00789902
0.00789923
0.00789831
0.00789803
0.00788948
0.0078403
0.00756662
0.00352476
0.00803952
0.00803556
0.00803775
0.00803828
0.00803727
0.00803715
0.00803689
0.00802312
0.0079618
0.00766163
0.00420325
0.00814595
0.00814154
0.00814289
0.00814304
0.00814147
0.00814192
0.00814228
0.00812604
0.00805669
0.0077369
0.00480583
0.0082368
0.00823552
0.00823677
0.00823568
0.00823385
0.00823448
0.00823103
0.00821187
0.0081388
0.00780189
0.00532539
0.00831578
0.00831531
0.00831606
0.00831333
0.00831107
0.00831155
0.00830855
0.0082922
0.00821778
0.00786167
0.00575872
0.00839623
0.00838825
0.00838795
0.00839071
0.00839081
0.00839102
0.00838798
0.00836967
0.00828062
0.00791893
0.00611479
0.00845395
0.00845315
0.00845546
0.00845496
0.00845494
0.00845186
0.00843208
0.00834397
0.00797547
0.00642424
0.00852168
0.00852082
0.00852262
0.00852184
0.00852163
0.00851807
0.00849372
0.00840723
0.00803228
0.006709
0.00858577
0.00858493
0.00858639
0.0085855
0.00858511
0.00858139
0.00855521
0.00846045
0.00808971
0.00697251
0.00864638
0.00864558
0.00864691
0.00864594
0.00864539
0.00864148
0.00861373
0.00851425
0.00814791
0.00721187
0.00870402
0.00870326
0.00870456
0.00870352
0.00870285
0.00869872
0.0086697
0.00857089
0.00820666
0.00742669
0.00875903
0.0087583
0.00875961
0.00875851
0.00875773
0.0087534
0.00872338
0.00861919
0.00826536
0.00761821
0.00881159
0.0088109
0.00881223
0.00881109
0.0088102
0.00880571
0.00877502
0.00866935
0.00833071
0.00778838
0.00886186
0.0088612
0.00886254
0.00886138
0.0088604
0.00885577
0.00882483
0.00872084
0.00839904
0.0079393
0.00890992
0.00890932
0.00891066
0.00890948
0.00890842
0.00890369
0.00887299
0.008771
0.00846714
0.00807324
0.00895588
0.00895534
0.00895666
0.00895549
0.00895436
0.00894954
0.00891966
0.00881973
0.00853402
0.00819248
0.00899984
0.00899937
0.00900066
0.00899951
0.00899832
0.00899342
0.00895914
0.00886688
0.00859178
0.00829921
0.00904193
0.00904155
0.00904279
0.00904168
0.00904044
0.0090355
0.00900047
0.00891252
0.00865391
0.00839561
0.00907744
0.00907713
0.00907835
0.00907726
0.009076
0.00907109
0.00904079
0.00895658
0.00871682
0.00848332
0.00911327
0.00911295
0.00911416
0.009113
0.00911166
0.00910675
0.00907484
0.00899898
0.00877191
0.00856343
)
;

boundaryField
{
    fuel
    {
        type            fixedValue;
        value           uniform 0;
    }
    wall
    {
        type            zeroGradient;
    }
    outlet
    {
        type            zeroGradient;
    }
    frontAndBack
    {
        type            empty;
    }
    procBoundary3to0
    {
        type            processor;
        value           nonuniform List<scalar> 10(0.00914463 0.00914435 0.00914553 0.00914438 0.00914303 0.0091382 0.00911022 0.00903993 0.0088285 0.00863686);
    }
    procBoundary3to2
    {
        type            processor;
        value           nonuniform List<scalar> 
25
(
0.00581377
0.00696624
0.00745078
0.00772122
0.00789895
0.00803822
0.00814314
0.0082362
0.0083133
0.00839265
0.00846212
0.00846212
0.00852251
0.00858507
0.00864503
0.00870208
0.00875666
0.00880913
0.00885959
0.00890803
0.00895444
0.00899883
0.00904131
0.00907713
0.00911319
)
;
    }
}


// ************************************************************************* //
