/*--------------------------------*- C++ -*----------------------------------*\
| =========                 |                                                 |
| \\      /  F ield         | OpenFOAM: The Open Source CFD Toolbox           |
|  \\    /   O peration     | Version:  dev                                   |
|   \\  /    A nd           | Web:      www.OpenFOAM.org                      |
|    \\/     M anipulation  |                                                 |
\*---------------------------------------------------------------------------*/
FoamFile
{
    version     2.0;
    format      ascii;
    class       volScalarField;
    location    "0.09";
    object      HCO;
}
// * * * * * * * * * * * * * * * * * * * * * * * * * * * * * * * * * * * * * //

dimensions      [0 0 0 0 0 0 0];

internalField   nonuniform List<scalar> 
1989
(
1.48019e-08
1.47969e-08
1.47944e-08
1.4791e-08
1.47901e-08
1.4788e-08
1.47877e-08
1.47864e-08
1.47864e-08
1.47857e-08
1.47858e-08
1.47854e-08
1.47854e-08
1.47853e-08
1.47853e-08
1.47854e-08
1.47853e-08
1.47858e-08
1.47856e-08
1.47864e-08
1.47864e-08
1.47877e-08
1.4788e-08
1.47901e-08
1.47911e-08
1.47944e-08
1.47969e-08
1.48019e-08
1.48076e-08
1.4816e-08
1.48295e-08
1.4845e-08
1.48725e-08
1.49006e-08
1.4955e-08
1.50174e-08
1.50853e-08
1.52019e-08
1.52663e-08
1.45829e-08
1.45203e-08
1.44065e-08
1.43417e-08
1.42827e-08
1.42311e-08
1.42041e-08
1.41782e-08
1.41636e-08
1.41508e-08
1.4143e-08
1.41374e-08
1.41327e-08
1.41304e-08
1.41272e-08
1.41263e-08
1.41243e-08
1.41241e-08
1.41228e-08
1.41228e-08
1.41221e-08
1.41222e-08
1.41218e-08
1.41219e-08
1.41218e-08
1.41218e-08
1.41219e-08
1.41218e-08
1.41222e-08
1.41221e-08
1.41228e-08
1.41228e-08
1.41241e-08
1.41243e-08
1.41263e-08
1.41272e-08
1.41304e-08
1.41327e-08
1.41374e-08
1.41429e-08
1.41508e-08
1.41637e-08
1.41782e-08
1.42041e-08
1.42311e-08
1.42826e-08
1.43417e-08
1.44064e-08
1.45202e-08
1.45828e-08
1.39331e-08
1.38723e-08
1.37613e-08
1.36997e-08
1.36439e-08
1.35951e-08
1.35692e-08
1.35448e-08
1.35311e-08
1.35189e-08
1.35115e-08
1.35063e-08
1.35018e-08
1.34997e-08
1.34966e-08
1.34958e-08
1.34939e-08
1.34937e-08
1.34925e-08
1.34925e-08
1.34918e-08
1.34919e-08
1.34916e-08
1.34916e-08
1.34915e-08
1.34915e-08
1.34916e-08
1.34916e-08
1.34919e-08
1.34918e-08
1.34925e-08
1.34925e-08
1.34937e-08
1.34939e-08
1.34958e-08
1.34967e-08
1.34997e-08
1.35018e-08
1.35063e-08
1.35115e-08
1.35189e-08
1.35311e-08
1.35447e-08
1.35691e-08
1.35951e-08
1.36438e-08
1.36996e-08
1.37612e-08
1.38723e-08
1.3933e-08
1.33096e-08
1.32503e-08
1.31411e-08
1.30824e-08
1.30292e-08
1.29828e-08
1.29581e-08
1.29349e-08
1.2922e-08
1.29104e-08
1.29034e-08
1.28984e-08
1.28942e-08
1.28922e-08
1.28893e-08
1.28886e-08
1.28867e-08
1.28865e-08
1.28854e-08
1.28854e-08
1.28848e-08
1.28849e-08
1.28845e-08
1.28846e-08
1.28845e-08
1.28845e-08
1.28846e-08
1.28845e-08
1.28849e-08
1.28848e-08
1.28854e-08
1.28854e-08
1.28865e-08
1.28867e-08
1.28886e-08
1.28893e-08
1.28922e-08
1.28942e-08
1.28984e-08
1.29034e-08
1.29104e-08
1.29221e-08
1.29349e-08
1.29581e-08
1.29828e-08
1.30292e-08
1.30823e-08
1.3141e-08
1.32503e-08
1.33095e-08
1.27102e-08
1.26536e-08
1.25608e-08
1.25057e-08
1.24554e-08
1.24114e-08
1.23883e-08
1.23661e-08
1.23541e-08
1.23431e-08
1.23364e-08
1.23318e-08
1.23278e-08
1.23259e-08
1.23232e-08
1.23225e-08
1.23207e-08
1.23206e-08
1.23195e-08
1.23195e-08
1.23189e-08
1.2319e-08
1.23187e-08
1.23187e-08
1.23186e-08
1.23186e-08
1.23187e-08
1.23187e-08
1.2319e-08
1.23189e-08
1.23195e-08
1.23195e-08
1.23206e-08
1.23207e-08
1.23225e-08
1.23232e-08
1.2326e-08
1.23278e-08
1.23318e-08
1.23364e-08
1.23431e-08
1.23541e-08
1.23661e-08
1.23882e-08
1.24113e-08
1.24553e-08
1.25057e-08
1.25606e-08
1.26536e-08
1.27101e-08
1.21573e-08
1.21031e-08
1.20115e-08
1.19574e-08
1.19086e-08
1.18657e-08
1.18436e-08
1.1822e-08
1.18105e-08
1.17999e-08
1.17935e-08
1.1789e-08
1.17853e-08
1.17835e-08
1.17808e-08
1.17802e-08
1.17785e-08
1.17783e-08
1.17773e-08
1.17773e-08
1.17767e-08
1.17768e-08
1.17765e-08
1.17766e-08
1.17765e-08
1.17765e-08
1.17766e-08
1.17765e-08
1.17768e-08
1.17767e-08
1.17773e-08
1.17773e-08
1.17783e-08
1.17785e-08
1.17802e-08
1.17809e-08
1.17835e-08
1.17853e-08
1.1789e-08
1.17935e-08
1.17999e-08
1.18105e-08
1.1822e-08
1.18435e-08
1.18657e-08
1.19085e-08
1.19574e-08
1.20114e-08
1.21031e-08
1.21572e-08
1.16364e-08
1.15841e-08
1.14954e-08
1.14438e-08
1.13976e-08
1.13567e-08
1.13359e-08
1.13153e-08
1.13045e-08
1.12945e-08
1.12884e-08
1.12842e-08
1.12807e-08
1.1279e-08
1.12765e-08
1.12759e-08
1.12743e-08
1.12742e-08
1.12732e-08
1.12732e-08
1.12727e-08
1.12728e-08
1.12724e-08
1.12725e-08
1.12724e-08
1.12724e-08
1.12725e-08
1.12724e-08
1.12728e-08
1.12726e-08
1.12732e-08
1.12732e-08
1.12742e-08
1.12743e-08
1.12759e-08
1.12766e-08
1.12791e-08
1.12807e-08
1.12842e-08
1.12884e-08
1.12945e-08
1.13046e-08
1.13153e-08
1.13359e-08
1.13567e-08
1.13975e-08
1.14437e-08
1.14952e-08
1.1584e-08
1.16363e-08
1.11429e-08
1.10912e-08
1.10049e-08
1.09545e-08
1.09105e-08
1.0871e-08
1.08512e-08
1.08313e-08
1.0821e-08
1.08114e-08
1.08056e-08
1.08016e-08
1.07983e-08
1.07967e-08
1.07943e-08
1.07938e-08
1.07922e-08
1.07921e-08
1.07911e-08
1.07912e-08
1.07906e-08
1.07907e-08
1.07904e-08
1.07905e-08
1.07904e-08
1.07904e-08
1.07905e-08
1.07904e-08
1.07907e-08
1.07906e-08
1.07912e-08
1.07911e-08
1.07921e-08
1.07922e-08
1.07938e-08
1.07943e-08
1.07967e-08
1.07983e-08
1.08016e-08
1.08056e-08
1.08114e-08
1.08211e-08
1.08313e-08
1.08512e-08
1.0871e-08
1.09105e-08
1.09544e-08
1.10047e-08
1.10912e-08
1.11428e-08
1.06691e-08
1.06192e-08
1.05372e-08
1.04881e-08
1.04468e-08
1.04093e-08
1.03907e-08
1.03718e-08
1.03621e-08
1.0353e-08
1.03475e-08
1.03438e-08
1.03407e-08
1.03393e-08
1.0337e-08
1.03365e-08
1.0335e-08
1.03349e-08
1.0334e-08
1.03341e-08
1.03335e-08
1.03336e-08
1.03333e-08
1.03334e-08
1.03333e-08
1.03333e-08
1.03334e-08
1.03333e-08
1.03336e-08
1.03335e-08
1.03341e-08
1.0334e-08
1.03349e-08
1.0335e-08
1.03365e-08
1.0337e-08
1.03393e-08
1.03407e-08
1.03438e-08
1.03475e-08
1.0353e-08
1.03622e-08
1.03717e-08
1.03906e-08
1.04092e-08
1.04467e-08
1.0488e-08
1.05371e-08
1.06191e-08
1.0669e-08
1.02237e-08
1.01753e-08
1.00982e-08
1.00502e-08
1.00115e-08
9.97589e-09
9.95839e-09
9.94046e-09
9.93145e-09
9.9227e-09
9.91765e-09
9.91413e-09
9.91133e-09
9.90998e-09
9.90787e-09
9.90735e-09
9.90599e-09
9.90588e-09
9.90503e-09
9.90509e-09
9.90458e-09
9.90468e-09
9.9044e-09
9.90447e-09
9.90438e-09
9.90438e-09
9.90447e-09
9.9044e-09
9.90467e-09
9.90457e-09
9.90508e-09
9.90502e-09
9.90588e-09
9.90599e-09
9.90736e-09
9.90788e-09
9.91e-09
9.91135e-09
9.91412e-09
9.91763e-09
9.9227e-09
9.93146e-09
9.94044e-09
9.95836e-09
9.97586e-09
1.00114e-08
1.00502e-08
1.00981e-08
1.01752e-08
1.02236e-08
9.80625e-09
9.75939e-09
9.68689e-09
9.64872e-09
9.61225e-09
9.57826e-09
9.56181e-09
9.54466e-09
9.53618e-09
9.52787e-09
9.52308e-09
9.51981e-09
9.51722e-09
9.51597e-09
9.51397e-09
9.5135e-09
9.5122e-09
9.5121e-09
9.51129e-09
9.51135e-09
9.51087e-09
9.51096e-09
9.5107e-09
9.51077e-09
9.51068e-09
9.51068e-09
9.51077e-09
9.5107e-09
9.51096e-09
9.51086e-09
9.51134e-09
9.51129e-09
9.5121e-09
9.5122e-09
9.5135e-09
9.51398e-09
9.51599e-09
9.51723e-09
9.51981e-09
9.52305e-09
9.52787e-09
9.5362e-09
9.54464e-09
9.56178e-09
9.57822e-09
9.6122e-09
9.64866e-09
9.6868e-09
9.75933e-09
9.80619e-09
9.42376e-09
9.3782e-09
9.30935e-09
9.27303e-09
9.23867e-09
9.20617e-09
9.1907e-09
9.17427e-09
9.1663e-09
9.1583e-09
9.15356e-09
9.15039e-09
9.14787e-09
9.14667e-09
9.14469e-09
9.14423e-09
9.14295e-09
9.14285e-09
9.14205e-09
9.14211e-09
9.14163e-09
9.14173e-09
9.14147e-09
9.14153e-09
9.14145e-09
9.14145e-09
9.14153e-09
9.14146e-09
9.14172e-09
9.14162e-09
9.14211e-09
9.14205e-09
9.14285e-09
9.14295e-09
9.14424e-09
9.14471e-09
9.14669e-09
9.14788e-09
9.15039e-09
9.15353e-09
9.15831e-09
9.16631e-09
9.17426e-09
9.19067e-09
9.20613e-09
9.23862e-09
9.27297e-09
9.30927e-09
9.37814e-09
9.4237e-09
9.06167e-09
9.01621e-09
8.94938e-09
8.91433e-09
8.8816e-09
8.85073e-09
8.83612e-09
8.82048e-09
8.81296e-09
8.80529e-09
8.80079e-09
8.79783e-09
8.79549e-09
8.79438e-09
8.79251e-09
8.79207e-09
8.79084e-09
8.79076e-09
8.78999e-09
8.79005e-09
8.78959e-09
8.78968e-09
8.78944e-09
8.7895e-09
8.78942e-09
8.78941e-09
8.7895e-09
8.78943e-09
8.78968e-09
8.78958e-09
8.79004e-09
8.78999e-09
8.79076e-09
8.79085e-09
8.79207e-09
8.79252e-09
8.7944e-09
8.7955e-09
8.79782e-09
8.80077e-09
8.8053e-09
8.81296e-09
8.82046e-09
8.83609e-09
8.8507e-09
8.88156e-09
8.91427e-09
8.94932e-09
9.01614e-09
9.06161e-09
8.71931e-09
8.67451e-09
8.61069e-09
8.5774e-09
8.54628e-09
8.51701e-09
8.50316e-09
8.48826e-09
8.48113e-09
8.47378e-09
8.46951e-09
8.46672e-09
8.46456e-09
8.46355e-09
8.46178e-09
8.46136e-09
8.4602e-09
8.46011e-09
8.45938e-09
8.45944e-09
8.459e-09
8.45909e-09
8.45885e-09
8.45891e-09
8.45883e-09
8.45883e-09
8.45891e-09
8.45885e-09
8.45908e-09
8.45899e-09
8.45943e-09
8.45938e-09
8.46011e-09
8.4602e-09
8.46136e-09
8.46179e-09
8.46357e-09
8.46458e-09
8.46671e-09
8.46948e-09
8.47379e-09
8.48113e-09
8.48824e-09
8.50313e-09
8.51697e-09
8.54624e-09
8.57734e-09
8.61062e-09
8.67444e-09
8.71924e-09
8.40549e-09
8.36049e-09
8.30003e-09
8.26794e-09
8.23816e-09
8.2102e-09
8.19709e-09
8.18275e-09
8.17598e-09
8.16888e-09
8.16479e-09
8.16216e-09
8.16016e-09
8.15925e-09
8.15755e-09
8.15716e-09
8.15605e-09
8.15597e-09
8.15527e-09
8.15532e-09
8.1549e-09
8.15499e-09
8.15476e-09
8.15482e-09
8.15475e-09
8.15474e-09
8.15482e-09
8.15476e-09
8.15499e-09
8.1549e-09
8.15532e-09
8.15527e-09
8.15597e-09
8.15605e-09
8.15716e-09
8.15756e-09
8.15926e-09
8.16017e-09
8.16215e-09
8.16477e-09
8.16889e-09
8.17598e-09
8.18274e-09
8.19706e-09
8.21017e-09
8.23812e-09
8.26789e-09
8.29997e-09
8.36043e-09
8.40542e-09
8.11119e-09
8.06637e-09
8.00917e-09
7.97758e-09
7.94906e-09
7.92142e-09
7.90874e-09
7.89461e-09
7.88803e-09
7.88098e-09
7.877e-09
7.87443e-09
7.87253e-09
7.8717e-09
7.87005e-09
7.86968e-09
7.86859e-09
7.86853e-09
7.86784e-09
7.8679e-09
7.86749e-09
7.86757e-09
7.86735e-09
7.86741e-09
7.86733e-09
7.86733e-09
7.86741e-09
7.86735e-09
7.86757e-09
7.86748e-09
7.86789e-09
7.86784e-09
7.86853e-09
7.86859e-09
7.86968e-09
7.87006e-09
7.87171e-09
7.87254e-09
7.87441e-09
7.87699e-09
7.88099e-09
7.88802e-09
7.89459e-09
7.90871e-09
7.92139e-09
7.94902e-09
7.97753e-09
8.00911e-09
8.06632e-09
8.11113e-09
7.83393e-09
7.7902e-09
7.73532e-09
7.70414e-09
7.67697e-09
7.65012e-09
7.638e-09
7.62426e-09
7.61788e-09
7.61099e-09
7.60714e-09
7.60464e-09
7.60286e-09
7.6021e-09
7.60053e-09
7.60017e-09
7.59913e-09
7.59907e-09
7.59841e-09
7.59847e-09
7.59807e-09
7.59815e-09
7.59794e-09
7.598e-09
7.59792e-09
7.59792e-09
7.59799e-09
7.59793e-09
7.59815e-09
7.59806e-09
7.59846e-09
7.5984e-09
7.59907e-09
7.59913e-09
7.60018e-09
7.60054e-09
7.60212e-09
7.60287e-09
7.60463e-09
7.60713e-09
7.611e-09
7.61787e-09
7.62423e-09
7.63798e-09
7.65008e-09
7.67693e-09
7.70409e-09
7.73526e-09
7.79015e-09
7.83386e-09
7.57166e-09
7.52883e-09
7.47582e-09
7.44491e-09
7.41888e-09
7.39273e-09
7.38114e-09
7.36771e-09
7.36148e-09
7.3547e-09
7.35096e-09
7.34851e-09
7.3468e-09
7.34609e-09
7.34458e-09
7.34425e-09
7.34324e-09
7.34319e-09
7.34255e-09
7.34261e-09
7.34223e-09
7.34231e-09
7.3421e-09
7.34216e-09
7.34209e-09
7.34209e-09
7.34216e-09
7.3421e-09
7.34231e-09
7.34222e-09
7.34261e-09
7.34255e-09
7.34319e-09
7.34324e-09
7.34425e-09
7.34459e-09
7.34611e-09
7.34682e-09
7.3485e-09
7.35095e-09
7.35472e-09
7.36147e-09
7.36769e-09
7.38111e-09
7.3927e-09
7.41884e-09
7.44486e-09
7.47576e-09
7.52879e-09
7.5716e-09
7.3208e-09
7.27791e-09
7.22554e-09
7.19441e-09
7.16899e-09
7.14334e-09
7.1321e-09
7.11887e-09
7.11261e-09
7.10591e-09
7.1022e-09
7.09974e-09
7.09806e-09
7.09731e-09
7.09585e-09
7.09554e-09
7.09455e-09
7.09451e-09
7.09389e-09
7.09396e-09
7.09358e-09
7.09367e-09
7.09346e-09
7.09352e-09
7.09345e-09
7.09345e-09
7.09352e-09
7.09346e-09
7.09366e-09
7.09357e-09
7.09396e-09
7.09389e-09
7.09451e-09
7.09455e-09
7.09554e-09
7.09586e-09
7.09733e-09
7.09807e-09
7.09973e-09
7.1022e-09
7.10592e-09
7.1126e-09
7.11884e-09
7.13207e-09
7.14331e-09
7.16895e-09
7.19436e-09
7.22548e-09
7.27787e-09
7.32074e-09
7.08006e-09
7.03751e-09
6.98598e-09
6.95484e-09
6.93004e-09
6.90497e-09
6.89419e-09
6.88116e-09
6.87485e-09
6.86825e-09
6.86456e-09
6.86209e-09
6.86042e-09
6.85958e-09
6.85814e-09
6.85784e-09
6.85687e-09
6.85685e-09
6.85625e-09
6.85632e-09
6.85596e-09
6.85605e-09
6.85584e-09
6.8559e-09
6.85584e-09
6.85583e-09
6.8559e-09
6.85584e-09
6.85604e-09
6.85595e-09
6.85632e-09
6.85624e-09
6.85685e-09
6.85687e-09
6.85784e-09
6.85815e-09
6.85959e-09
6.86043e-09
6.86208e-09
6.86457e-09
6.86826e-09
6.87484e-09
6.88114e-09
6.89416e-09
6.90494e-09
6.93e-09
6.95479e-09
6.98592e-09
7.03746e-09
7.08e-09
6.84581e-09
6.8034e-09
6.75234e-09
6.72119e-09
6.69676e-09
6.67221e-09
6.66192e-09
6.64905e-09
6.64271e-09
6.6362e-09
6.63253e-09
6.63003e-09
6.62834e-09
6.62732e-09
6.6258e-09
6.62552e-09
6.62458e-09
6.62457e-09
6.62398e-09
6.62407e-09
6.62371e-09
6.62381e-09
6.62361e-09
6.62367e-09
6.6236e-09
6.6236e-09
6.62367e-09
6.62361e-09
6.6238e-09
6.6237e-09
6.62406e-09
6.62398e-09
6.62457e-09
6.62458e-09
6.62553e-09
6.62581e-09
6.62733e-09
6.62835e-09
6.63002e-09
6.63253e-09
6.63621e-09
6.6427e-09
6.64903e-09
6.66189e-09
6.67218e-09
6.69672e-09
6.72114e-09
6.75228e-09
6.80334e-09
6.84576e-09
6.61561e-09
6.57309e-09
6.52218e-09
6.49115e-09
6.46683e-09
6.44153e-09
6.4317e-09
6.4188e-09
6.41401e-09
6.4076e-09
6.40394e-09
6.40141e-09
6.39968e-09
6.3985e-09
6.39669e-09
6.39642e-09
6.39549e-09
6.39551e-09
6.39493e-09
6.39503e-09
6.39468e-09
6.39478e-09
6.39459e-09
6.39466e-09
6.39459e-09
6.39459e-09
6.39466e-09
6.39459e-09
6.39478e-09
6.39467e-09
6.39502e-09
6.39492e-09
6.3955e-09
6.39549e-09
6.39643e-09
6.3967e-09
6.39851e-09
6.39969e-09
6.4014e-09
6.40394e-09
6.4076e-09
6.41399e-09
6.41877e-09
6.43167e-09
6.4415e-09
6.46679e-09
6.4911e-09
6.52213e-09
6.57301e-09
6.61557e-09
6.3884e-09
6.34511e-09
6.29491e-09
6.26391e-09
6.23964e-09
6.21462e-09
6.20537e-09
6.19254e-09
6.18809e-09
6.18181e-09
6.17817e-09
6.17563e-09
6.17385e-09
6.17276e-09
6.1704e-09
6.17015e-09
6.16923e-09
6.16926e-09
6.16869e-09
6.16881e-09
6.16847e-09
6.16859e-09
6.1684e-09
6.16847e-09
6.16841e-09
6.16841e-09
6.16847e-09
6.1684e-09
6.16859e-09
6.16847e-09
6.16881e-09
6.16869e-09
6.16926e-09
6.16923e-09
6.17015e-09
6.17041e-09
6.17277e-09
6.17386e-09
6.17563e-09
6.17818e-09
6.18182e-09
6.18808e-09
6.19252e-09
6.20534e-09
6.21459e-09
6.2396e-09
6.26387e-09
6.29487e-09
6.34501e-09
6.38838e-09
6.16462e-09
6.12059e-09
6.07069e-09
6.03906e-09
6.01732e-09
5.99168e-09
5.98108e-09
5.96824e-09
5.96406e-09
5.95795e-09
5.95434e-09
5.95178e-09
5.94988e-09
5.94932e-09
5.94939e-09
5.94917e-09
5.94827e-09
5.94831e-09
5.94776e-09
5.94789e-09
5.94756e-09
5.94769e-09
5.94751e-09
5.94759e-09
5.94753e-09
5.94753e-09
5.94759e-09
5.94751e-09
5.94769e-09
5.94756e-09
5.94788e-09
5.94776e-09
5.94831e-09
5.94827e-09
5.94917e-09
5.9494e-09
5.94933e-09
5.94989e-09
5.95178e-09
5.95434e-09
5.95796e-09
5.96405e-09
5.96821e-09
5.98105e-09
5.99164e-09
6.01729e-09
6.03901e-09
6.07063e-09
6.12048e-09
6.1646e-09
5.95089e-09
5.90707e-09
5.85809e-09
5.82701e-09
5.80573e-09
5.78068e-09
5.7705e-09
5.75781e-09
5.75401e-09
5.74818e-09
5.74471e-09
5.74219e-09
5.74007e-09
5.74009e-09
5.7398e-09
5.73959e-09
5.73872e-09
5.73877e-09
5.73824e-09
5.73837e-09
5.73805e-09
5.73819e-09
5.73802e-09
5.7381e-09
5.73804e-09
5.73804e-09
5.7381e-09
5.73802e-09
5.73818e-09
5.73805e-09
5.73837e-09
5.73823e-09
5.73877e-09
5.73872e-09
5.7396e-09
5.73981e-09
5.74011e-09
5.74008e-09
5.74219e-09
5.74472e-09
5.74818e-09
5.754e-09
5.75778e-09
5.77046e-09
5.78064e-09
5.80569e-09
5.82696e-09
5.85804e-09
5.90696e-09
5.95088e-09
5.75588e-09
5.71282e-09
5.66511e-09
5.63509e-09
5.61337e-09
5.58853e-09
5.57888e-09
5.56837e-09
5.56497e-09
5.5595e-09
5.55621e-09
5.55377e-09
5.55119e-09
5.55157e-09
5.55089e-09
5.5507e-09
5.54985e-09
5.54992e-09
5.54939e-09
5.54953e-09
5.54921e-09
5.54932e-09
5.54912e-09
5.54918e-09
5.54911e-09
5.54911e-09
5.54918e-09
5.54912e-09
5.54931e-09
5.5492e-09
5.54952e-09
5.54939e-09
5.54991e-09
5.54985e-09
5.5507e-09
5.5509e-09
5.55158e-09
5.5512e-09
5.55377e-09
5.55621e-09
5.5595e-09
5.56496e-09
5.56835e-09
5.57884e-09
5.58849e-09
5.61333e-09
5.63505e-09
5.66507e-09
5.71271e-09
5.75585e-09
5.58695e-09
5.54918e-09
5.5009e-09
5.47043e-09
5.45319e-09
5.42959e-09
5.42066e-09
5.40933e-09
5.4054e-09
5.39975e-09
5.39623e-09
5.39363e-09
5.39026e-09
5.39059e-09
5.38958e-09
5.38934e-09
5.38853e-09
5.38859e-09
5.38809e-09
5.38821e-09
5.38789e-09
5.38798e-09
5.38779e-09
5.38784e-09
5.38778e-09
5.38778e-09
5.38784e-09
5.38779e-09
5.38798e-09
5.38789e-09
5.3882e-09
5.38808e-09
5.38859e-09
5.38853e-09
5.38934e-09
5.38959e-09
5.39061e-09
5.39027e-09
5.39363e-09
5.39624e-09
5.39975e-09
5.40538e-09
5.4093e-09
5.42062e-09
5.42955e-09
5.45315e-09
5.47038e-09
5.50087e-09
5.54909e-09
5.58691e-09
5.46227e-09
5.42396e-09
5.37972e-09
5.3503e-09
5.3319e-09
5.30859e-09
5.3e-09
5.28885e-09
5.28492e-09
5.27961e-09
5.27618e-09
5.27376e-09
5.27368e-09
5.27394e-09
5.27279e-09
5.27254e-09
5.27176e-09
5.27182e-09
5.27133e-09
5.27143e-09
5.27112e-09
5.2712e-09
5.27101e-09
5.27106e-09
5.271e-09
5.271e-09
5.27106e-09
5.27101e-09
5.27119e-09
5.27111e-09
5.27143e-09
5.27133e-09
5.27181e-09
5.27176e-09
5.27254e-09
5.2728e-09
5.27395e-09
5.27369e-09
5.27376e-09
5.27619e-09
5.27961e-09
5.28491e-09
5.28882e-09
5.29996e-09
5.30855e-09
5.33187e-09
5.35025e-09
5.3797e-09
5.42386e-09
5.46222e-09
5.38578e-09
5.34819e-09
5.3059e-09
5.27743e-09
5.25922e-09
5.23683e-09
5.22868e-09
5.2176e-09
5.21363e-09
5.20866e-09
5.20534e-09
5.20312e-09
5.20367e-09
5.20377e-09
5.20257e-09
5.20231e-09
5.20155e-09
5.2016e-09
5.20112e-09
5.20121e-09
5.20089e-09
5.20096e-09
5.20078e-09
5.20083e-09
5.20077e-09
5.20077e-09
5.20083e-09
5.20078e-09
5.20096e-09
5.20088e-09
5.2012e-09
5.20112e-09
5.2016e-09
5.20155e-09
5.20231e-09
5.20258e-09
5.20378e-09
5.20367e-09
5.20313e-09
5.20535e-09
5.20866e-09
5.21362e-09
5.21758e-09
5.22863e-09
5.23679e-09
5.25919e-09
5.27739e-09
5.30588e-09
5.34809e-09
5.38572e-09
5.35923e-09
5.32174e-09
5.28081e-09
5.25294e-09
5.23493e-09
5.21329e-09
5.20531e-09
5.19433e-09
5.1902e-09
5.18544e-09
5.18224e-09
5.18023e-09
5.18104e-09
5.18098e-09
5.17976e-09
5.17947e-09
5.17872e-09
5.17876e-09
5.17827e-09
5.17834e-09
5.17803e-09
5.1781e-09
5.17792e-09
5.17797e-09
5.17791e-09
5.17791e-09
5.17797e-09
5.17792e-09
5.17809e-09
5.17802e-09
5.17834e-09
5.17827e-09
5.17875e-09
5.17872e-09
5.17947e-09
5.17977e-09
5.18099e-09
5.18104e-09
5.18023e-09
5.18224e-09
5.18544e-09
5.19019e-09
5.19431e-09
5.20528e-09
5.21325e-09
5.23489e-09
5.2529e-09
5.2808e-09
5.32166e-09
5.35917e-09
5.38727e-09
5.3495e-09
5.30889e-09
5.28143e-09
5.26353e-09
5.24256e-09
5.23446e-09
5.22377e-09
5.21945e-09
5.21474e-09
5.21163e-09
5.20983e-09
5.21075e-09
5.21056e-09
5.20933e-09
5.209e-09
5.20824e-09
5.20826e-09
5.20778e-09
5.20783e-09
5.20752e-09
5.20758e-09
5.20741e-09
5.20745e-09
5.20739e-09
5.20739e-09
5.20745e-09
5.2074e-09
5.20758e-09
5.20751e-09
5.20783e-09
5.20777e-09
5.20826e-09
5.20824e-09
5.20901e-09
5.20934e-09
5.21057e-09
5.21075e-09
5.20983e-09
5.21164e-09
5.21474e-09
5.21944e-09
5.22375e-09
5.23444e-09
5.24252e-09
5.2635e-09
5.28139e-09
5.30887e-09
5.34943e-09
5.38722e-09
5.49341e-09
5.45608e-09
5.41692e-09
5.39028e-09
5.37162e-09
5.35151e-09
5.34384e-09
5.33305e-09
5.32875e-09
5.32483e-09
5.32182e-09
5.32021e-09
5.32116e-09
5.32088e-09
5.31967e-09
5.31928e-09
5.3185e-09
5.3185e-09
5.31801e-09
5.31806e-09
5.31774e-09
5.31781e-09
5.31764e-09
5.31768e-09
5.31762e-09
5.31762e-09
5.31768e-09
5.31763e-09
5.31781e-09
5.31774e-09
5.31805e-09
5.31801e-09
5.3185e-09
5.3185e-09
5.31929e-09
5.31968e-09
5.32089e-09
5.32116e-09
5.32022e-09
5.32182e-09
5.32483e-09
5.32874e-09
5.33303e-09
5.34381e-09
5.35147e-09
5.37158e-09
5.39025e-09
5.41689e-09
5.45602e-09
5.49335e-09
5.75337e-09
5.71778e-09
5.68043e-09
5.65595e-09
5.63654e-09
5.6183e-09
5.61024e-09
5.60054e-09
5.59622e-09
5.59287e-09
5.58991e-09
5.58854e-09
5.58949e-09
5.58919e-09
5.58801e-09
5.58752e-09
5.5867e-09
5.58667e-09
5.58619e-09
5.58623e-09
5.58593e-09
5.58599e-09
5.58582e-09
5.58587e-09
5.58581e-09
5.58581e-09
5.58587e-09
5.58582e-09
5.58598e-09
5.58592e-09
5.58622e-09
5.58619e-09
5.58667e-09
5.5867e-09
5.58755e-09
5.58802e-09
5.58919e-09
5.58948e-09
5.58855e-09
5.58992e-09
5.59287e-09
5.59621e-09
5.60053e-09
5.61019e-09
5.61827e-09
5.6365e-09
5.65592e-09
5.6804e-09
5.71773e-09
5.75332e-09
6.33564e-09
6.30343e-09
6.26905e-09
6.24922e-09
6.22863e-09
6.21374e-09
6.20405e-09
6.19748e-09
6.19262e-09
6.19011e-09
6.18711e-09
6.18603e-09
6.187e-09
6.18677e-09
6.18566e-09
6.18505e-09
6.18409e-09
6.18402e-09
6.18357e-09
6.18358e-09
6.1833e-09
6.18336e-09
6.1832e-09
6.18325e-09
6.18319e-09
6.18319e-09
6.18324e-09
6.1832e-09
6.18335e-09
6.18329e-09
6.18357e-09
6.18356e-09
6.18401e-09
6.18409e-09
6.18509e-09
6.18567e-09
6.18678e-09
6.18697e-09
6.18603e-09
6.18711e-09
6.19011e-09
6.19262e-09
6.19747e-09
6.204e-09
6.21372e-09
6.22861e-09
6.24919e-09
6.26902e-09
6.30339e-09
6.33559e-09
7.59095e-09
7.56413e-09
7.53335e-09
7.52114e-09
7.4973e-09
7.48845e-09
7.4751e-09
7.47315e-09
7.46665e-09
7.46578e-09
7.46247e-09
7.46175e-09
7.46283e-09
7.46279e-09
7.46175e-09
7.461e-09
7.45959e-09
7.45945e-09
7.45903e-09
7.45901e-09
7.45876e-09
7.45881e-09
7.45867e-09
7.45871e-09
7.45866e-09
7.45866e-09
7.45871e-09
7.45867e-09
7.4588e-09
7.45876e-09
7.45901e-09
7.45903e-09
7.45945e-09
7.45958e-09
7.46107e-09
7.46175e-09
7.46279e-09
7.46278e-09
7.46175e-09
7.46247e-09
7.46579e-09
7.46665e-09
7.47314e-09
7.47505e-09
7.48843e-09
7.49728e-09
7.52112e-09
7.53331e-09
7.5641e-09
7.59091e-09
1.01251e-08
1.00979e-08
1.00671e-08
1.00617e-08
1.00292e-08
1.00262e-08
1.00059e-08
1.00093e-08
9.99956e-09
1.00008e-08
9.99664e-09
9.99621e-09
9.99743e-09
9.9976e-09
9.99646e-09
9.99577e-09
9.99304e-09
9.99281e-09
9.99234e-09
9.9923e-09
9.99202e-09
9.99208e-09
9.99193e-09
9.99198e-09
9.99191e-09
9.99191e-09
9.99198e-09
9.99192e-09
9.99207e-09
9.99202e-09
9.9923e-09
9.99234e-09
9.9928e-09
9.99304e-09
9.99581e-09
9.99646e-09
9.9976e-09
9.99732e-09
9.99621e-09
9.99664e-09
1.00009e-08
9.99956e-09
1.00093e-08
1.00059e-08
1.00262e-08
1.00292e-08
1.00617e-08
1.0067e-08
1.00979e-08
1.01251e-08
1.43511e-08
1.42916e-08
1.42438e-08
1.42279e-08
1.41776e-08
1.41696e-08
1.414e-08
1.41419e-08
1.41279e-08
1.41291e-08
1.41233e-08
1.41223e-08
1.41198e-08
1.41173e-08
1.41155e-08
1.41152e-08
1.41159e-08
1.41156e-08
1.41148e-08
1.41148e-08
1.41143e-08
1.41144e-08
1.41141e-08
1.41142e-08
1.41141e-08
1.41141e-08
1.41142e-08
1.41141e-08
1.41144e-08
1.41143e-08
1.41148e-08
1.41148e-08
1.41156e-08
1.41159e-08
1.41151e-08
1.41155e-08
1.41173e-08
1.412e-08
1.41223e-08
1.41233e-08
1.41291e-08
1.41279e-08
1.41419e-08
1.414e-08
1.41696e-08
1.41775e-08
1.42278e-08
1.42437e-08
1.42915e-08
1.43511e-08
1.91414e-08
1.89991e-08
1.89122e-08
1.88511e-08
1.87768e-08
1.87426e-08
1.8706e-08
1.86918e-08
1.86749e-08
1.86705e-08
1.8663e-08
1.86602e-08
1.86563e-08
1.8653e-08
1.86497e-08
1.86492e-08
1.86476e-08
1.86471e-08
1.86457e-08
1.86457e-08
1.86449e-08
1.8645e-08
1.86446e-08
1.86447e-08
1.86445e-08
1.86445e-08
1.86447e-08
1.86446e-08
1.8645e-08
1.86449e-08
1.86457e-08
1.86457e-08
1.86471e-08
1.86476e-08
1.86491e-08
1.86497e-08
1.8653e-08
1.86564e-08
1.86602e-08
1.8663e-08
1.86705e-08
1.86748e-08
1.86917e-08
1.87059e-08
1.87425e-08
1.87767e-08
1.8851e-08
1.8912e-08
1.8999e-08
1.91413e-08
2.20912e-08
2.18648e-08
2.17472e-08
2.1641e-08
2.15564e-08
2.14954e-08
2.14579e-08
2.14257e-08
2.14088e-08
2.13945e-08
2.13864e-08
2.13817e-08
2.13766e-08
2.13725e-08
2.13681e-08
2.13667e-08
2.13639e-08
2.13633e-08
2.13615e-08
2.13615e-08
2.13604e-08
2.13606e-08
2.13599e-08
2.13601e-08
2.13599e-08
2.13598e-08
2.13601e-08
2.13599e-08
2.13605e-08
2.13603e-08
2.13615e-08
2.13615e-08
2.13633e-08
2.13639e-08
2.13667e-08
2.13681e-08
2.13725e-08
2.13766e-08
2.13818e-08
2.13864e-08
2.13944e-08
2.14088e-08
2.14256e-08
2.14578e-08
2.14953e-08
2.15563e-08
2.16409e-08
2.1747e-08
2.18646e-08
2.20909e-08
2.25509e-08
2.22961e-08
2.21783e-08
2.20582e-08
2.1973e-08
2.19042e-08
2.18686e-08
2.18305e-08
2.18148e-08
2.17985e-08
2.17908e-08
2.17854e-08
2.17799e-08
2.17756e-08
2.17709e-08
2.17691e-08
2.17662e-08
2.17655e-08
2.17636e-08
2.17636e-08
2.17624e-08
2.17626e-08
2.1762e-08
2.17621e-08
2.17619e-08
2.17619e-08
2.17621e-08
2.17619e-08
2.17626e-08
2.17624e-08
2.17635e-08
2.17636e-08
2.17655e-08
2.17662e-08
2.17691e-08
2.17709e-08
2.17756e-08
2.17799e-08
2.17855e-08
2.17908e-08
2.17985e-08
2.18147e-08
2.18304e-08
2.18685e-08
2.19042e-08
2.19729e-08
2.20581e-08
2.21781e-08
2.22958e-08
2.25507e-08
)
;

boundaryField
{
    fuel
    {
        type            fixedValue;
        value           nonuniform 0();
    }
    wall
    {
        type            zeroGradient;
    }
    outlet
    {
        type            zeroGradient;
    }
    frontAndBack
    {
        type            empty;
    }
    procBoundary3to2
    {
        type            processor;
        value           nonuniform List<scalar> 
51
(
1.55003e-08
1.54949e-08
1.54923e-08
1.54888e-08
1.54878e-08
1.54855e-08
1.54852e-08
1.54839e-08
1.54839e-08
1.54831e-08
1.54832e-08
1.54828e-08
1.54828e-08
1.54827e-08
1.54827e-08
1.54828e-08
1.54828e-08
1.54832e-08
1.54831e-08
1.54839e-08
1.54839e-08
1.54852e-08
1.54855e-08
1.54878e-08
1.54888e-08
1.54923e-08
1.54949e-08
1.55003e-08
1.55063e-08
1.55152e-08
1.55294e-08
1.55458e-08
1.55748e-08
1.56042e-08
1.56614e-08
1.57273e-08
1.57982e-08
1.5918e-08
1.5984e-08
1.52664e-08
1.5202e-08
1.50855e-08
1.50175e-08
1.4955e-08
1.49007e-08
1.48725e-08
1.48451e-08
1.48295e-08
1.4816e-08
1.48077e-08
1.48077e-08
)
;
    }
}


// ************************************************************************* //
