/*--------------------------------*- C++ -*----------------------------------*\
| =========                 |                                                 |
| \\      /  F ield         | OpenFOAM: The Open Source CFD Toolbox           |
|  \\    /   O peration     | Version:  dev                                   |
|   \\  /    A nd           | Web:      www.OpenFOAM.org                      |
|    \\/     M anipulation  |                                                 |
\*---------------------------------------------------------------------------*/
FoamFile
{
    version     2.0;
    format      ascii;
    class       volScalarField;
    location    "0.09";
    object      i-C4H5;
}
// * * * * * * * * * * * * * * * * * * * * * * * * * * * * * * * * * * * * * //

dimensions      [0 0 0 0 0 0 0];

internalField   nonuniform List<scalar> 
250
(
9.78989e-08
9.88078e-08
9.89822e-08
9.87747e-08
9.85598e-08
9.89249e-08
9.9075e-08
9.98145e-08
1.04092e-07
2.46349e-07
5.76219e-11
2.91281e-08
2.92913e-08
2.93211e-08
2.9284e-08
2.92486e-08
2.93084e-08
2.93498e-08
2.95153e-08
3.07789e-08
6.75308e-08
6.53198e-11
8.81737e-09
8.85003e-09
8.85368e-09
8.84814e-09
8.8428e-09
8.8506e-09
8.8666e-09
8.91148e-09
9.3039e-09
2.00925e-08
4.98382e-10
2.91151e-09
2.91897e-09
2.91846e-09
2.91852e-09
2.91981e-09
2.91806e-09
2.92644e-09
2.94269e-09
3.07521e-09
7.06919e-09
4.71435e-09
1.15177e-09
1.15385e-09
1.15309e-09
1.1538e-09
1.16088e-09
1.15338e-09
1.16269e-09
1.16912e-09
1.21922e-09
3.04809e-09
3.28031e-08
5.76632e-10
5.7737e-10
5.76867e-10
5.77425e-10
5.7152e-10
5.77225e-10
5.73294e-10
5.82006e-10
6.08004e-10
1.86407e-09
1.38882e-07
3.61405e-10
3.61697e-10
3.61403e-10
3.61815e-10
3.59661e-10
3.61787e-10
3.60761e-10
3.67046e-10
3.81905e-10
1.58132e-09
3.16333e-07
2.67111e-10
2.67171e-10
2.66991e-10
2.67354e-10
2.66538e-10
2.6744e-10
2.67584e-10
2.73459e-10
2.83206e-10
1.24107e-09
3.78462e-07
2.18794e-10
2.18263e-10
2.18454e-10
2.18949e-10
2.1882e-10
2.18874e-10
2.19477e-10
2.23943e-10
2.30543e-10
7.3425e-10
2.54262e-07
1.90916e-10
1.89897e-10
1.903e-10
1.91003e-10
1.91182e-10
1.90889e-10
1.91821e-10
1.93284e-10
1.98483e-10
4.35345e-10
1.08208e-07
1.71199e-10
1.70633e-10
1.71941e-10
1.72406e-10
1.71642e-10
1.73178e-10
1.75765e-10
1.80314e-10
2.76605e-10
3.71466e-08
1.57546e-10
1.57201e-10
1.57274e-10
1.57929e-10
1.56667e-10
1.5853e-10
1.61491e-10
1.66863e-10
2.08117e-10
1.22793e-08
1.45975e-10
1.46794e-10
1.45774e-10
1.46572e-10
1.44673e-10
1.46888e-10
1.50174e-10
1.55961e-10
1.74843e-10
4.16007e-09
1.35991e-10
1.37054e-10
1.36153e-10
1.37069e-10
1.35742e-10
1.38301e-10
1.40649e-10
1.46951e-10
1.57698e-10
1.48868e-09
1.27175e-10
1.2861e-10
1.27752e-10
1.28762e-10
1.28001e-10
1.30489e-10
1.32259e-10
1.39089e-10
1.47846e-10
5.91046e-10
1.20217e-10
1.21094e-10
1.20218e-10
1.21298e-10
1.20083e-10
1.22998e-10
1.24654e-10
1.31964e-10
1.40948e-10
2.82762e-10
1.13035e-10
1.14265e-10
1.13347e-10
1.14485e-10
1.13693e-10
1.16128e-10
1.17642e-10
1.25336e-10
1.35984e-10
1.74905e-10
1.07222e-10
1.07976e-10
1.07014e-10
1.08203e-10
1.07862e-10
1.09781e-10
1.11083e-10
1.19048e-10
1.31751e-10
1.37473e-10
1.01128e-10
1.0213e-10
1.01128e-10
1.02369e-10
1.01695e-10
1.03851e-10
1.05788e-10
1.13793e-10
1.27804e-10
1.25919e-10
9.61075e-11
9.66701e-11
9.56153e-11
9.69267e-11
9.6581e-11
9.82314e-11
1.00374e-10
1.08564e-10
1.23901e-10
1.24086e-10
9.07718e-11
9.154e-11
9.04072e-11
9.18181e-11
9.11813e-11
9.34808e-11
9.50909e-11
1.03181e-10
1.19929e-10
1.25502e-10
8.63032e-11
8.66879e-11
8.60754e-11
8.69889e-11
8.6723e-11
8.90088e-11
9.00686e-11
9.79593e-11
1.15232e-10
1.27289e-10
8.21132e-11
8.26507e-11
8.19904e-11
8.29725e-11
8.25652e-11
8.48239e-11
8.59168e-11
9.35034e-11
1.10208e-10
1.28161e-10
7.81712e-11
7.84319e-11
7.77567e-11
7.87688e-11
7.82494e-11
8.04806e-11
8.14985e-11
8.88084e-11
1.055e-10
1.27704e-10
)
;

boundaryField
{
    fuel
    {
        type            fixedValue;
        value           uniform 0;
    }
    wall
    {
        type            zeroGradient;
    }
    outlet
    {
        type            zeroGradient;
    }
    frontAndBack
    {
        type            empty;
    }
    procBoundary3to0
    {
        type            processor;
        value           nonuniform List<scalar> 10(7.44581e-11 7.47871e-11 7.41485e-11 7.51392e-11 7.45827e-11 7.67125e-11 7.76901e-11 8.46039e-11 1.00804e-10 1.25573e-10);
    }
    procBoundary3to2
    {
        type            processor;
        value           nonuniform List<scalar> 
25
(
9.91492e-08
2.9352e-08
8.86155e-09
2.92171e-09
1.15503e-09
5.77037e-10
3.61337e-10
2.67122e-10
2.18853e-10
1.91014e-10
1.71914e-10
1.71914e-10
1.57282e-10
1.45788e-10
1.36147e-10
1.27694e-10
1.20068e-10
1.1305e-10
1.06503e-10
1.0114e-10
9.61458e-11
9.10579e-11
8.61814e-11
8.2123e-11
7.78911e-11
)
;
    }
}


// ************************************************************************* //
