/*--------------------------------*- C++ -*----------------------------------*\
| =========                 |                                                 |
| \\      /  F ield         | OpenFOAM: The Open Source CFD Toolbox           |
|  \\    /   O peration     | Version:  dev                                   |
|   \\  /    A nd           | Web:      www.OpenFOAM.org                      |
|    \\/     M anipulation  |                                                 |
\*---------------------------------------------------------------------------*/
FoamFile
{
    version     2.0;
    format      ascii;
    class       volScalarField;
    location    "0.09";
    object      i-C6H7;
}
// * * * * * * * * * * * * * * * * * * * * * * * * * * * * * * * * * * * * * //

dimensions      [0 0 0 0 0 0 0];

internalField   nonuniform List<scalar> 
1989
(
1.51982e-14
1.52175e-14
1.52236e-14
1.52358e-14
1.52366e-14
1.52445e-14
1.52435e-14
1.52485e-14
1.5247e-14
1.52501e-14
1.52488e-14
1.52505e-14
1.52498e-14
1.52504e-14
1.52504e-14
1.52498e-14
1.52505e-14
1.52489e-14
1.52501e-14
1.52471e-14
1.52485e-14
1.52435e-14
1.52445e-14
1.52366e-14
1.52357e-14
1.52234e-14
1.52174e-14
1.51983e-14
1.51737e-14
1.51414e-14
1.50853e-14
1.50375e-14
1.49244e-14
1.48331e-14
1.46226e-14
1.44175e-14
1.41343e-14
1.36274e-14
1.33051e-14
1.73465e-14
1.77994e-14
1.85115e-14
1.89068e-14
1.91891e-14
1.94816e-14
1.96054e-14
1.97629e-14
1.98281e-14
1.99057e-14
1.99504e-14
1.99841e-14
2.00111e-14
2.00192e-14
2.00361e-14
2.0037e-14
2.00479e-14
2.00464e-14
2.00532e-14
2.00511e-14
2.00553e-14
2.00536e-14
2.00559e-14
2.00549e-14
2.00557e-14
2.00557e-14
2.00549e-14
2.00559e-14
2.00536e-14
2.00554e-14
2.00512e-14
2.00532e-14
2.00464e-14
2.00479e-14
2.0037e-14
2.0036e-14
2.0019e-14
2.00109e-14
1.99842e-14
1.99501e-14
1.99058e-14
1.9828e-14
1.97631e-14
1.96058e-14
1.94821e-14
1.91897e-14
1.89074e-14
1.85127e-14
1.77996e-14
1.73472e-14
2.2997e-14
2.36167e-14
2.45869e-14
2.51229e-14
2.5499e-14
2.58933e-14
2.60554e-14
2.62681e-14
2.63537e-14
2.64581e-14
2.65179e-14
2.65632e-14
2.65997e-14
2.66103e-14
2.66329e-14
2.66338e-14
2.66484e-14
2.66461e-14
2.66552e-14
2.66523e-14
2.66579e-14
2.66555e-14
2.66586e-14
2.66573e-14
2.66583e-14
2.66583e-14
2.66573e-14
2.66587e-14
2.66556e-14
2.6658e-14
2.66524e-14
2.66553e-14
2.66461e-14
2.66484e-14
2.66338e-14
2.66327e-14
2.66101e-14
2.65995e-14
2.65634e-14
2.65175e-14
2.64583e-14
2.63535e-14
2.62684e-14
2.60559e-14
2.58938e-14
2.54997e-14
2.51238e-14
2.45885e-14
2.3617e-14
2.29979e-14
3.07635e-14
3.16001e-14
3.28999e-14
3.36162e-14
3.41088e-14
3.46324e-14
3.48382e-14
3.51222e-14
3.52331e-14
3.53712e-14
3.54501e-14
3.551e-14
3.55588e-14
3.55725e-14
3.5602e-14
3.56029e-14
3.56218e-14
3.56185e-14
3.56305e-14
3.56265e-14
3.56338e-14
3.56305e-14
3.56346e-14
3.56328e-14
3.56342e-14
3.56342e-14
3.56328e-14
3.56347e-14
3.56306e-14
3.5634e-14
3.56266e-14
3.56306e-14
3.56186e-14
3.56219e-14
3.56028e-14
3.56017e-14
3.55722e-14
3.55586e-14
3.55103e-14
3.54495e-14
3.53715e-14
3.52329e-14
3.51226e-14
3.48388e-14
3.46331e-14
3.41097e-14
3.36174e-14
3.29018e-14
3.16006e-14
3.07648e-14
4.12187e-14
4.23102e-14
4.37546e-14
4.46721e-14
4.52907e-14
4.59602e-14
4.62094e-14
4.65751e-14
4.67125e-14
4.68882e-14
4.69884e-14
4.70647e-14
4.71276e-14
4.71443e-14
4.71816e-14
4.71821e-14
4.72061e-14
4.72015e-14
4.72166e-14
4.72112e-14
4.72205e-14
4.72162e-14
4.72214e-14
4.7219e-14
4.72208e-14
4.72208e-14
4.7219e-14
4.72215e-14
4.72163e-14
4.72207e-14
4.72113e-14
4.72167e-14
4.72015e-14
4.72062e-14
4.7182e-14
4.71813e-14
4.71439e-14
4.71273e-14
4.70651e-14
4.69874e-14
4.68888e-14
4.67123e-14
4.65757e-14
4.62102e-14
4.59611e-14
4.52918e-14
4.46736e-14
4.37567e-14
4.23111e-14
4.12204e-14
5.44991e-14
5.58918e-14
5.77875e-14
5.89982e-14
5.97849e-14
6.06486e-14
6.09577e-14
6.14276e-14
6.15995e-14
6.1824e-14
6.19508e-14
6.20489e-14
6.213e-14
6.21509e-14
6.2198e-14
6.21981e-14
6.22285e-14
6.22222e-14
6.22414e-14
6.22343e-14
6.22461e-14
6.22405e-14
6.22471e-14
6.2244e-14
6.22463e-14
6.22463e-14
6.2244e-14
6.22472e-14
6.22406e-14
6.22463e-14
6.22345e-14
6.22415e-14
6.22223e-14
6.22286e-14
6.2198e-14
6.21977e-14
6.21504e-14
6.21295e-14
6.20494e-14
6.19493e-14
6.18246e-14
6.15995e-14
6.14284e-14
6.09587e-14
6.06498e-14
5.97863e-14
5.90001e-14
5.77899e-14
5.58932e-14
5.45013e-14
7.13587e-14
7.31054e-14
7.54317e-14
7.6921e-14
7.78471e-14
7.8893e-14
7.92469e-14
7.98187e-14
8.00185e-14
8.02905e-14
8.0442e-14
8.05619e-14
8.06612e-14
8.06853e-14
8.07418e-14
8.07407e-14
8.07772e-14
8.07686e-14
8.07916e-14
8.07825e-14
8.07967e-14
8.07896e-14
8.07976e-14
8.07937e-14
8.07965e-14
8.07965e-14
8.07937e-14
8.07977e-14
8.07898e-14
8.0797e-14
8.07827e-14
8.07918e-14
8.07687e-14
8.07772e-14
8.07406e-14
8.07414e-14
8.06847e-14
8.06607e-14
8.05623e-14
8.04401e-14
8.0291e-14
8.00188e-14
7.98196e-14
7.9248e-14
7.88944e-14
7.78488e-14
7.69233e-14
7.54345e-14
7.31073e-14
7.13616e-14
9.23763e-14
9.45501e-14
9.73485e-14
9.91736e-14
1.00258e-13
1.01517e-13
1.01922e-13
1.02613e-13
1.02845e-13
1.03173e-13
1.03352e-13
1.03499e-13
1.03621e-13
1.03648e-13
1.03716e-13
1.03713e-13
1.03756e-13
1.03745e-13
1.03772e-13
1.0376e-13
1.03777e-13
1.03768e-13
1.03778e-13
1.03773e-13
1.03776e-13
1.03776e-13
1.03773e-13
1.03778e-13
1.03768e-13
1.03777e-13
1.0376e-13
1.03772e-13
1.03745e-13
1.03756e-13
1.03713e-13
1.03715e-13
1.03648e-13
1.0362e-13
1.035e-13
1.03351e-13
1.03174e-13
1.02846e-13
1.02614e-13
1.01924e-13
1.01518e-13
1.0026e-13
9.91766e-14
9.73517e-14
9.45528e-14
9.238e-14
1.18248e-13
1.20828e-13
1.24016e-13
1.26163e-13
1.27371e-13
1.28808e-13
1.29246e-13
1.30039e-13
1.30294e-13
1.3067e-13
1.30873e-13
1.31045e-13
1.31187e-13
1.31218e-13
1.31294e-13
1.31289e-13
1.31338e-13
1.31323e-13
1.31354e-13
1.3134e-13
1.31359e-13
1.31348e-13
1.31359e-13
1.31353e-13
1.31357e-13
1.31357e-13
1.31353e-13
1.31359e-13
1.31349e-13
1.3136e-13
1.3134e-13
1.31354e-13
1.31324e-13
1.31338e-13
1.31289e-13
1.31293e-13
1.31217e-13
1.31186e-13
1.31045e-13
1.30871e-13
1.30671e-13
1.30295e-13
1.3004e-13
1.29248e-13
1.2881e-13
1.27374e-13
1.26167e-13
1.24019e-13
1.20831e-13
1.18253e-13
1.48762e-13
1.51744e-13
1.55266e-13
1.57723e-13
1.59029e-13
1.6062e-13
1.61075e-13
1.61959e-13
1.62229e-13
1.62651e-13
1.62872e-13
1.63066e-13
1.6323e-13
1.63264e-13
1.63347e-13
1.63339e-13
1.63392e-13
1.63375e-13
1.63409e-13
1.63392e-13
1.63413e-13
1.634e-13
1.63412e-13
1.63406e-13
1.6341e-13
1.6341e-13
1.63406e-13
1.63413e-13
1.63401e-13
1.63413e-13
1.63392e-13
1.63409e-13
1.63375e-13
1.63393e-13
1.63339e-13
1.63346e-13
1.63263e-13
1.6323e-13
1.63066e-13
1.6287e-13
1.62651e-13
1.62231e-13
1.6196e-13
1.61077e-13
1.60622e-13
1.59032e-13
1.57726e-13
1.5527e-13
1.51748e-13
1.48767e-13
1.83814e-13
1.87163e-13
1.90953e-13
1.9306e-13
1.94425e-13
1.96148e-13
1.96594e-13
1.97559e-13
1.97835e-13
1.9829e-13
1.98528e-13
1.98739e-13
1.98927e-13
1.98962e-13
1.99051e-13
1.99039e-13
1.99096e-13
1.99075e-13
1.99111e-13
1.99091e-13
1.99114e-13
1.991e-13
1.99113e-13
1.99105e-13
1.9911e-13
1.9911e-13
1.99105e-13
1.99113e-13
1.991e-13
1.99115e-13
1.99092e-13
1.99112e-13
1.99075e-13
1.99097e-13
1.99039e-13
1.9905e-13
1.98961e-13
1.98926e-13
1.98739e-13
1.98525e-13
1.9829e-13
1.97837e-13
1.97561e-13
1.96596e-13
1.9615e-13
1.94428e-13
1.93064e-13
1.90957e-13
1.87167e-13
1.83819e-13
2.22342e-13
2.25981e-13
2.29972e-13
2.32307e-13
2.33681e-13
2.35481e-13
2.35891e-13
2.3691e-13
2.37178e-13
2.3766e-13
2.37921e-13
2.38158e-13
2.38378e-13
2.38418e-13
2.38516e-13
2.38502e-13
2.38565e-13
2.3854e-13
2.3858e-13
2.38557e-13
2.38582e-13
2.38566e-13
2.3858e-13
2.38572e-13
2.38577e-13
2.38577e-13
2.38572e-13
2.38581e-13
2.38566e-13
2.38583e-13
2.38558e-13
2.3858e-13
2.38541e-13
2.38565e-13
2.38502e-13
2.38515e-13
2.38417e-13
2.38377e-13
2.38158e-13
2.37918e-13
2.3766e-13
2.3718e-13
2.36912e-13
2.35894e-13
2.35483e-13
2.33684e-13
2.32311e-13
2.29976e-13
2.25986e-13
2.22349e-13
2.64677e-13
2.68589e-13
2.72743e-13
2.75249e-13
2.76594e-13
2.7838e-13
2.7873e-13
2.79755e-13
2.80002e-13
2.80485e-13
2.80739e-13
2.80982e-13
2.81218e-13
2.81258e-13
2.81354e-13
2.81335e-13
2.81396e-13
2.81368e-13
2.81406e-13
2.81381e-13
2.81406e-13
2.81388e-13
2.81402e-13
2.81393e-13
2.81398e-13
2.81398e-13
2.81393e-13
2.81402e-13
2.81388e-13
2.81406e-13
2.81382e-13
2.81407e-13
2.81368e-13
2.81396e-13
2.81335e-13
2.81353e-13
2.81257e-13
2.81217e-13
2.80982e-13
2.80735e-13
2.80485e-13
2.80004e-13
2.79757e-13
2.78732e-13
2.78382e-13
2.76597e-13
2.75253e-13
2.72747e-13
2.68594e-13
2.64684e-13
3.09558e-13
3.13487e-13
3.17468e-13
3.19953e-13
3.21168e-13
3.22848e-13
3.23107e-13
3.2409e-13
3.24298e-13
3.24758e-13
3.24992e-13
3.25233e-13
3.25477e-13
3.25517e-13
3.25605e-13
3.25582e-13
3.25638e-13
3.25606e-13
3.25641e-13
3.25615e-13
3.25637e-13
3.25619e-13
3.25632e-13
3.25622e-13
3.25627e-13
3.25627e-13
3.25622e-13
3.25632e-13
3.25619e-13
3.25638e-13
3.25615e-13
3.25642e-13
3.25607e-13
3.25638e-13
3.25582e-13
3.25604e-13
3.25516e-13
3.25476e-13
3.25233e-13
3.24989e-13
3.24758e-13
3.24301e-13
3.24092e-13
3.23109e-13
3.2285e-13
3.21171e-13
3.19958e-13
3.17472e-13
3.13491e-13
3.09565e-13
3.54246e-13
3.58018e-13
3.61602e-13
3.63954e-13
3.64953e-13
3.66449e-13
3.6658e-13
3.67477e-13
3.67627e-13
3.68038e-13
3.6824e-13
3.68467e-13
3.68712e-13
3.68751e-13
3.68828e-13
3.68799e-13
3.68847e-13
3.68813e-13
3.68843e-13
3.68815e-13
3.68835e-13
3.68816e-13
3.68828e-13
3.68818e-13
3.68822e-13
3.68822e-13
3.68818e-13
3.68828e-13
3.68816e-13
3.68835e-13
3.68815e-13
3.68843e-13
3.68813e-13
3.68847e-13
3.68799e-13
3.68827e-13
3.6875e-13
3.68711e-13
3.68467e-13
3.68237e-13
3.68038e-13
3.67629e-13
3.67478e-13
3.66582e-13
3.6645e-13
3.64955e-13
3.63958e-13
3.61606e-13
3.58022e-13
3.54252e-13
3.97649e-13
4.00981e-13
4.03971e-13
4.06044e-13
4.0677e-13
4.08046e-13
4.08046e-13
4.08825e-13
4.08912e-13
4.0926e-13
4.09423e-13
4.09629e-13
4.09867e-13
4.09906e-13
4.09969e-13
4.09935e-13
4.09974e-13
4.09938e-13
4.09962e-13
4.09934e-13
4.0995e-13
4.09931e-13
4.09941e-13
4.09931e-13
4.09935e-13
4.09935e-13
4.09931e-13
4.09941e-13
4.09931e-13
4.0995e-13
4.09934e-13
4.09963e-13
4.09939e-13
4.09975e-13
4.09936e-13
4.09969e-13
4.09906e-13
4.09867e-13
4.09629e-13
4.0942e-13
4.09261e-13
4.08914e-13
4.08827e-13
4.08047e-13
4.08048e-13
4.06773e-13
4.06047e-13
4.03975e-13
4.00984e-13
3.97655e-13
4.37505e-13
4.40121e-13
4.42354e-13
4.43965e-13
4.44311e-13
4.45183e-13
4.45005e-13
4.45573e-13
4.45568e-13
4.45809e-13
4.45912e-13
4.46078e-13
4.46291e-13
4.46328e-13
4.46368e-13
4.4633e-13
4.46354e-13
4.46318e-13
4.46332e-13
4.46304e-13
4.46315e-13
4.46297e-13
4.46304e-13
4.46295e-13
4.46298e-13
4.46298e-13
4.46295e-13
4.46304e-13
4.46297e-13
4.46315e-13
4.46305e-13
4.46333e-13
4.46318e-13
4.46355e-13
4.4633e-13
4.46368e-13
4.46327e-13
4.46291e-13
4.46077e-13
4.45909e-13
4.4581e-13
4.4557e-13
4.45574e-13
4.45006e-13
4.45183e-13
4.44312e-13
4.43967e-13
4.42356e-13
4.40124e-13
4.3751e-13
4.71341e-13
4.73076e-13
4.74353e-13
4.75336e-13
4.7525e-13
4.75626e-13
4.75263e-13
4.75566e-13
4.75458e-13
4.75567e-13
4.756e-13
4.75714e-13
4.75886e-13
4.75917e-13
4.75931e-13
4.7589e-13
4.75896e-13
4.75861e-13
4.75864e-13
4.75839e-13
4.75842e-13
4.75826e-13
4.75829e-13
4.75822e-13
4.75823e-13
4.75823e-13
4.75822e-13
4.75829e-13
4.75826e-13
4.75842e-13
4.75839e-13
4.75865e-13
4.75861e-13
4.75896e-13
4.7589e-13
4.75931e-13
4.75917e-13
4.75886e-13
4.75712e-13
4.75598e-13
4.75568e-13
4.75459e-13
4.75566e-13
4.75263e-13
4.75626e-13
4.75251e-13
4.75338e-13
4.74355e-13
4.73078e-13
4.71345e-13
4.96808e-13
4.97566e-13
4.97767e-13
4.98004e-13
4.97467e-13
4.97287e-13
4.96752e-13
4.96748e-13
4.96532e-13
4.96494e-13
4.96451e-13
4.96503e-13
4.9662e-13
4.96639e-13
4.96624e-13
4.96581e-13
4.96568e-13
4.96535e-13
4.96526e-13
4.96504e-13
4.965e-13
4.96487e-13
4.96486e-13
4.9648e-13
4.9648e-13
4.9648e-13
4.9648e-13
4.96486e-13
4.96487e-13
4.965e-13
4.96505e-13
4.96527e-13
4.96536e-13
4.96568e-13
4.96582e-13
4.96625e-13
4.96639e-13
4.9662e-13
4.96501e-13
4.9645e-13
4.96495e-13
4.96532e-13
4.96747e-13
4.96751e-13
4.97286e-13
4.97467e-13
4.98004e-13
4.97767e-13
4.97568e-13
4.96809e-13
5.11627e-13
5.11262e-13
5.10232e-13
5.0962e-13
5.08607e-13
5.07839e-13
5.07147e-13
5.06812e-13
5.06483e-13
5.06292e-13
5.06171e-13
5.06153e-13
5.062e-13
5.06196e-13
5.06149e-13
5.06105e-13
5.06071e-13
5.06043e-13
5.06021e-13
5.06004e-13
5.05992e-13
5.05983e-13
5.05977e-13
5.05973e-13
5.05971e-13
5.05971e-13
5.05973e-13
5.05977e-13
5.05983e-13
5.05992e-13
5.06004e-13
5.06022e-13
5.06043e-13
5.06071e-13
5.06106e-13
5.06149e-13
5.06197e-13
5.062e-13
5.06151e-13
5.0617e-13
5.06293e-13
5.06482e-13
5.06811e-13
5.07146e-13
5.07837e-13
5.08606e-13
5.09619e-13
5.10231e-13
5.11262e-13
5.11627e-13
5.14251e-13
5.12738e-13
5.10466e-13
5.08996e-13
5.07529e-13
5.06194e-13
5.05387e-13
5.04722e-13
5.04289e-13
5.03953e-13
5.03759e-13
5.03671e-13
5.03638e-13
5.03602e-13
5.03513e-13
5.03471e-13
5.03417e-13
5.03394e-13
5.03361e-13
5.03349e-13
5.03329e-13
5.03324e-13
5.03314e-13
5.03312e-13
5.03309e-13
5.03309e-13
5.03312e-13
5.03314e-13
5.03324e-13
5.03329e-13
5.03349e-13
5.03361e-13
5.03395e-13
5.03417e-13
5.03472e-13
5.03514e-13
5.03603e-13
5.03639e-13
5.0367e-13
5.03759e-13
5.03954e-13
5.04288e-13
5.0472e-13
5.05385e-13
5.06192e-13
5.07527e-13
5.08994e-13
5.10463e-13
5.12737e-13
5.1425e-13
5.03853e-13
5.01248e-13
4.97824e-13
4.95573e-13
4.93704e-13
4.91803e-13
4.90933e-13
4.89954e-13
4.89525e-13
4.89064e-13
4.88808e-13
4.88658e-13
4.88542e-13
4.88472e-13
4.88323e-13
4.88283e-13
4.88211e-13
4.88195e-13
4.8815e-13
4.88145e-13
4.88119e-13
4.88118e-13
4.88105e-13
4.88105e-13
4.88101e-13
4.88101e-13
4.88105e-13
4.88104e-13
4.88118e-13
4.88119e-13
4.88145e-13
4.8815e-13
4.88195e-13
4.88211e-13
4.88284e-13
4.88324e-13
4.88473e-13
4.88544e-13
4.88657e-13
4.88808e-13
4.89064e-13
4.89524e-13
4.89952e-13
4.9093e-13
4.918e-13
4.93701e-13
4.95569e-13
4.97821e-13
5.01244e-13
5.03851e-13
4.80632e-13
4.77048e-13
4.72715e-13
4.69815e-13
4.67628e-13
4.65308e-13
4.64446e-13
4.63209e-13
4.62773e-13
4.62218e-13
4.6192e-13
4.61721e-13
4.61528e-13
4.61442e-13
4.61198e-13
4.61164e-13
4.61077e-13
4.61068e-13
4.61015e-13
4.61015e-13
4.60984e-13
4.60988e-13
4.60971e-13
4.60974e-13
4.60969e-13
4.60969e-13
4.60974e-13
4.60971e-13
4.60988e-13
4.60983e-13
4.61015e-13
4.61014e-13
4.61068e-13
4.61078e-13
4.61164e-13
4.612e-13
4.61443e-13
4.61529e-13
4.61721e-13
4.6192e-13
4.62218e-13
4.62771e-13
4.63206e-13
4.64443e-13
4.65305e-13
4.67625e-13
4.69811e-13
4.72712e-13
4.7704e-13
4.8063e-13
4.45848e-13
4.41471e-13
4.36469e-13
4.33019e-13
4.30913e-13
4.28197e-13
4.27174e-13
4.25734e-13
4.25322e-13
4.24708e-13
4.24386e-13
4.24155e-13
4.23888e-13
4.23826e-13
4.23846e-13
4.23818e-13
4.23722e-13
4.23718e-13
4.2366e-13
4.23665e-13
4.23631e-13
4.23638e-13
4.2362e-13
4.23625e-13
4.2362e-13
4.2362e-13
4.23625e-13
4.2362e-13
4.23638e-13
4.2363e-13
4.23665e-13
4.2366e-13
4.23719e-13
4.23722e-13
4.23819e-13
4.23847e-13
4.23827e-13
4.2389e-13
4.24155e-13
4.24386e-13
4.24708e-13
4.2532e-13
4.25731e-13
4.27171e-13
4.28193e-13
4.30909e-13
4.33014e-13
4.36463e-13
4.41461e-13
4.45846e-13
4.02074e-13
3.97265e-13
3.91966e-13
3.88295e-13
3.8616e-13
3.83335e-13
3.824e-13
3.80844e-13
3.80483e-13
3.79856e-13
3.79542e-13
3.79303e-13
3.78973e-13
3.78953e-13
3.78908e-13
3.78887e-13
3.78788e-13
3.78789e-13
3.78728e-13
3.78737e-13
3.787e-13
3.7871e-13
3.78692e-13
3.78699e-13
3.78693e-13
3.78693e-13
3.78699e-13
3.78692e-13
3.7871e-13
3.787e-13
3.78736e-13
3.78728e-13
3.78789e-13
3.78788e-13
3.78888e-13
3.7891e-13
3.78954e-13
3.78975e-13
3.79303e-13
3.79543e-13
3.79856e-13
3.80482e-13
3.80841e-13
3.82396e-13
3.8333e-13
3.86155e-13
3.8829e-13
3.91961e-13
3.97254e-13
4.02072e-13
3.52498e-13
3.47545e-13
3.42288e-13
3.38645e-13
3.36443e-13
3.33557e-13
3.32731e-13
3.31448e-13
3.31159e-13
3.30559e-13
3.30275e-13
3.30048e-13
3.29656e-13
3.29665e-13
3.29581e-13
3.29567e-13
3.29469e-13
3.29474e-13
3.29413e-13
3.29424e-13
3.29387e-13
3.29395e-13
3.29372e-13
3.29376e-13
3.29369e-13
3.29368e-13
3.29376e-13
3.29372e-13
3.29395e-13
3.29386e-13
3.29424e-13
3.29413e-13
3.29474e-13
3.29469e-13
3.29567e-13
3.29582e-13
3.29667e-13
3.29657e-13
3.30049e-13
3.30276e-13
3.30558e-13
3.31157e-13
3.31445e-13
3.32728e-13
3.33553e-13
3.36438e-13
3.3864e-13
3.42284e-13
3.47535e-13
3.52495e-13
2.99874e-13
2.95745e-13
2.90443e-13
2.86723e-13
2.85363e-13
2.82699e-13
2.82025e-13
2.80581e-13
2.80224e-13
2.79582e-13
2.79274e-13
2.79029e-13
2.78519e-13
2.78513e-13
2.78398e-13
2.78381e-13
2.78291e-13
2.78296e-13
2.7824e-13
2.7825e-13
2.78215e-13
2.78222e-13
2.78201e-13
2.78205e-13
2.78198e-13
2.78198e-13
2.78204e-13
2.782e-13
2.78222e-13
2.78214e-13
2.7825e-13
2.7824e-13
2.78296e-13
2.78291e-13
2.78381e-13
2.784e-13
2.78515e-13
2.78521e-13
2.7903e-13
2.79276e-13
2.79582e-13
2.80222e-13
2.80578e-13
2.82022e-13
2.82695e-13
2.85359e-13
2.86719e-13
2.9044e-13
2.95737e-13
2.9987e-13
2.48679e-13
2.4447e-13
2.40165e-13
2.36812e-13
2.35277e-13
2.32748e-13
2.32167e-13
2.30871e-13
2.30572e-13
2.30007e-13
2.29748e-13
2.29547e-13
2.29639e-13
2.29632e-13
2.29519e-13
2.29507e-13
2.29427e-13
2.29433e-13
2.29383e-13
2.29392e-13
2.29359e-13
2.29366e-13
2.29347e-13
2.2935e-13
2.29344e-13
2.29344e-13
2.2935e-13
2.29346e-13
2.29365e-13
2.29359e-13
2.29391e-13
2.29382e-13
2.29433e-13
2.29427e-13
2.29508e-13
2.2952e-13
2.29633e-13
2.2964e-13
2.29548e-13
2.29749e-13
2.30006e-13
2.30571e-13
2.30868e-13
2.32165e-13
2.32745e-13
2.35273e-13
2.36808e-13
2.40162e-13
2.44459e-13
2.48674e-13
2.00865e-13
1.97193e-13
1.9353e-13
1.90637e-13
1.89377e-13
1.87228e-13
1.8678e-13
1.85658e-13
1.85422e-13
1.84932e-13
1.84724e-13
1.84566e-13
1.84627e-13
1.84614e-13
1.84515e-13
1.84507e-13
1.84439e-13
1.84444e-13
1.84401e-13
1.84408e-13
1.8438e-13
1.84385e-13
1.84369e-13
1.84373e-13
1.84367e-13
1.84367e-13
1.84373e-13
1.84369e-13
1.84385e-13
1.84379e-13
1.84408e-13
1.844e-13
1.84444e-13
1.84439e-13
1.84507e-13
1.84516e-13
1.84616e-13
1.84628e-13
1.84567e-13
1.84725e-13
1.84931e-13
1.8542e-13
1.85656e-13
1.86779e-13
1.87225e-13
1.89374e-13
1.90634e-13
1.93528e-13
1.97186e-13
2.0086e-13
1.58395e-13
1.55332e-13
1.52366e-13
1.49977e-13
1.48991e-13
1.47242e-13
1.46896e-13
1.45984e-13
1.45804e-13
1.45385e-13
1.45225e-13
1.45105e-13
1.45145e-13
1.45128e-13
1.45046e-13
1.45041e-13
1.44985e-13
1.4499e-13
1.44954e-13
1.4496e-13
1.44936e-13
1.44941e-13
1.44928e-13
1.44931e-13
1.44926e-13
1.44926e-13
1.44931e-13
1.44928e-13
1.44941e-13
1.44936e-13
1.44959e-13
1.44954e-13
1.4499e-13
1.44985e-13
1.45041e-13
1.45047e-13
1.45129e-13
1.45146e-13
1.45106e-13
1.45226e-13
1.45385e-13
1.45802e-13
1.45982e-13
1.46896e-13
1.4724e-13
1.48988e-13
1.49974e-13
1.52364e-13
1.55327e-13
1.58391e-13
1.22777e-13
1.20341e-13
1.17985e-13
1.16102e-13
1.15371e-13
1.14016e-13
1.13733e-13
1.1305e-13
1.12923e-13
1.12559e-13
1.12441e-13
1.12354e-13
1.12377e-13
1.12359e-13
1.12295e-13
1.12291e-13
1.12248e-13
1.12251e-13
1.12223e-13
1.12227e-13
1.12209e-13
1.12213e-13
1.12202e-13
1.12205e-13
1.12201e-13
1.12201e-13
1.12205e-13
1.12202e-13
1.12212e-13
1.12209e-13
1.12227e-13
1.12223e-13
1.12251e-13
1.12248e-13
1.12292e-13
1.12296e-13
1.1236e-13
1.12378e-13
1.12354e-13
1.12442e-13
1.12558e-13
1.12922e-13
1.13049e-13
1.13733e-13
1.14014e-13
1.15369e-13
1.161e-13
1.17983e-13
1.20337e-13
1.22774e-13
9.48409e-14
9.30132e-14
9.13767e-14
8.99609e-14
8.93193e-14
8.82935e-14
8.81935e-14
8.75814e-14
8.75009e-14
8.73307e-14
8.72466e-14
8.71847e-14
8.71968e-14
8.71801e-14
8.71323e-14
8.7129e-14
8.70964e-14
8.70982e-14
8.7077e-14
8.70799e-14
8.70663e-14
8.7069e-14
8.70613e-14
8.70631e-14
8.70605e-14
8.70605e-14
8.7063e-14
8.70612e-14
8.70688e-14
8.7066e-14
8.70797e-14
8.70768e-14
8.70982e-14
8.70963e-14
8.71292e-14
8.71328e-14
8.71807e-14
8.71974e-14
8.71852e-14
8.72469e-14
8.73305e-14
8.75002e-14
8.75805e-14
8.81919e-14
8.8292e-14
8.93177e-14
8.99592e-14
9.13753e-14
9.30106e-14
9.48389e-14
7.55109e-14
7.41704e-14
7.29814e-14
7.19617e-14
7.14801e-14
7.07509e-14
7.06582e-14
7.02394e-14
7.01852e-14
7.00512e-14
6.99907e-14
6.99477e-14
6.99525e-14
6.9938e-14
6.99033e-14
6.98991e-14
6.98751e-14
6.98757e-14
6.98602e-14
6.9862e-14
6.98521e-14
6.9854e-14
6.98485e-14
6.98497e-14
6.98478e-14
6.98478e-14
6.98497e-14
6.98484e-14
6.98539e-14
6.9852e-14
6.98619e-14
6.98601e-14
6.98757e-14
6.98751e-14
6.98993e-14
6.99036e-14
6.99385e-14
6.99529e-14
6.99481e-14
6.99909e-14
7.0051e-14
7.01847e-14
7.02387e-14
7.06564e-14
7.07498e-14
7.1479e-14
7.19606e-14
7.29802e-14
7.41687e-14
7.55094e-14
6.44392e-14
6.34397e-14
6.25799e-14
6.18521e-14
6.14667e-14
6.09713e-14
6.08705e-14
6.05806e-14
6.05318e-14
6.04314e-14
6.03851e-14
6.03546e-14
6.03543e-14
6.03419e-14
6.03161e-14
6.03102e-14
6.02921e-14
6.02914e-14
6.02801e-14
6.02809e-14
6.02737e-14
6.0275e-14
6.02709e-14
6.02718e-14
6.02704e-14
6.02704e-14
6.02718e-14
6.02708e-14
6.02749e-14
6.02736e-14
6.02808e-14
6.028e-14
6.02914e-14
6.0292e-14
6.03104e-14
6.03163e-14
6.03422e-14
6.03545e-14
6.03549e-14
6.03852e-14
6.04313e-14
6.05315e-14
6.058e-14
6.08691e-14
6.09706e-14
6.14659e-14
6.18512e-14
6.2579e-14
6.34385e-14
6.44381e-14
6.07593e-14
5.99552e-14
5.92987e-14
5.87621e-14
5.8418e-14
5.80662e-14
5.79455e-14
5.77534e-14
5.76972e-14
5.7623e-14
5.75831e-14
5.75597e-14
5.7555e-14
5.75436e-14
5.75229e-14
5.75153e-14
5.74998e-14
5.74982e-14
5.74893e-14
5.74894e-14
5.74838e-14
5.74847e-14
5.74815e-14
5.74822e-14
5.7481e-14
5.7481e-14
5.74821e-14
5.74814e-14
5.74846e-14
5.74837e-14
5.74893e-14
5.74892e-14
5.74981e-14
5.74998e-14
5.75156e-14
5.75231e-14
5.75438e-14
5.75551e-14
5.75599e-14
5.75832e-14
5.7623e-14
5.7697e-14
5.7753e-14
5.79446e-14
5.80657e-14
5.84174e-14
5.87615e-14
5.92979e-14
5.99543e-14
6.07584e-14
6.29693e-14
6.22067e-14
6.16459e-14
6.11973e-14
6.08478e-14
6.05692e-14
6.04211e-14
6.02807e-14
6.02111e-14
6.01517e-14
6.01124e-14
6.0091e-14
6.00814e-14
6.00693e-14
6.00504e-14
6.00418e-14
6.00258e-14
6.00231e-14
6.00152e-14
6.00149e-14
6.00099e-14
6.00105e-14
6.00077e-14
6.00083e-14
6.00072e-14
6.00072e-14
6.00083e-14
6.00076e-14
6.00104e-14
6.00098e-14
6.00148e-14
6.00151e-14
6.00231e-14
6.00257e-14
6.00421e-14
6.00505e-14
6.00694e-14
6.00813e-14
6.00912e-14
6.01124e-14
6.01517e-14
6.0211e-14
6.02805e-14
6.04205e-14
6.05688e-14
6.08473e-14
6.11968e-14
6.16452e-14
6.22059e-14
6.29685e-14
6.9e-14
6.81467e-14
6.76085e-14
6.71663e-14
6.6783e-14
6.65222e-14
6.63454e-14
6.622e-14
6.61361e-14
6.60804e-14
6.60381e-14
6.60152e-14
6.59942e-14
6.59757e-14
6.59561e-14
6.5948e-14
6.59382e-14
6.59347e-14
6.59267e-14
6.5926e-14
6.5921e-14
6.59216e-14
6.59186e-14
6.59193e-14
6.59181e-14
6.59181e-14
6.59193e-14
6.59186e-14
6.59215e-14
6.59209e-14
6.59259e-14
6.59266e-14
6.59346e-14
6.59381e-14
6.59479e-14
6.59562e-14
6.59759e-14
6.59945e-14
6.60154e-14
6.60382e-14
6.60804e-14
6.6136e-14
6.62198e-14
6.6345e-14
6.65219e-14
6.67825e-14
6.71658e-14
6.76077e-14
6.81458e-14
6.89991e-14
7.64014e-14
7.53598e-14
7.48127e-14
7.43202e-14
7.38924e-14
7.36118e-14
7.34103e-14
7.32738e-14
7.31781e-14
7.31175e-14
7.30712e-14
7.30444e-14
7.30169e-14
7.29955e-14
7.29739e-14
7.29651e-14
7.29522e-14
7.2948e-14
7.29392e-14
7.29383e-14
7.29329e-14
7.29335e-14
7.29303e-14
7.29311e-14
7.29297e-14
7.29297e-14
7.2931e-14
7.29302e-14
7.29334e-14
7.29328e-14
7.29382e-14
7.29391e-14
7.29479e-14
7.29521e-14
7.29649e-14
7.2974e-14
7.29957e-14
7.30172e-14
7.30446e-14
7.30713e-14
7.31175e-14
7.3178e-14
7.32736e-14
7.34099e-14
7.36115e-14
7.38919e-14
7.43197e-14
7.48118e-14
7.53588e-14
7.64003e-14
8.26269e-14
8.13724e-14
8.08137e-14
8.02574e-14
7.98045e-14
7.94915e-14
7.92756e-14
7.9118e-14
7.90156e-14
7.89383e-14
7.88889e-14
7.88578e-14
7.8825e-14
7.88012e-14
7.87775e-14
7.87671e-14
7.87522e-14
7.87473e-14
7.87379e-14
7.87368e-14
7.8731e-14
7.87316e-14
7.87281e-14
7.8729e-14
7.87274e-14
7.87274e-14
7.87289e-14
7.8728e-14
7.87315e-14
7.87308e-14
7.87367e-14
7.87377e-14
7.87472e-14
7.87521e-14
7.8767e-14
7.87776e-14
7.88013e-14
7.88253e-14
7.88581e-14
7.8889e-14
7.89383e-14
7.90155e-14
7.91178e-14
7.92753e-14
7.94912e-14
7.9804e-14
8.02567e-14
8.08127e-14
8.13713e-14
8.26255e-14
8.54287e-14
8.40631e-14
8.35192e-14
8.29303e-14
8.24684e-14
8.21395e-14
8.19206e-14
8.17514e-14
8.16478e-14
8.15663e-14
8.15161e-14
8.14825e-14
8.1447e-14
8.1422e-14
8.13975e-14
8.1386e-14
8.13705e-14
8.13653e-14
8.13557e-14
8.13545e-14
8.13485e-14
8.13491e-14
8.13455e-14
8.13464e-14
8.13448e-14
8.13448e-14
8.13463e-14
8.13454e-14
8.1349e-14
8.13483e-14
8.13543e-14
8.13555e-14
8.13652e-14
8.13704e-14
8.1386e-14
8.13976e-14
8.14222e-14
8.14473e-14
8.14828e-14
8.15163e-14
8.15664e-14
8.16477e-14
8.17512e-14
8.19204e-14
8.21392e-14
8.24679e-14
8.29296e-14
8.35181e-14
8.40618e-14
8.54272e-14
)
;

boundaryField
{
    fuel
    {
        type            fixedValue;
        value           nonuniform 0();
    }
    wall
    {
        type            zeroGradient;
    }
    outlet
    {
        type            zeroGradient;
    }
    frontAndBack
    {
        type            empty;
    }
    procBoundary3to2
    {
        type            processor;
        value           nonuniform List<scalar> 
51
(
1.18143e-14
1.18278e-14
1.18321e-14
1.18407e-14
1.18413e-14
1.18468e-14
1.18462e-14
1.18496e-14
1.18487e-14
1.18508e-14
1.18499e-14
1.18511e-14
1.18506e-14
1.1851e-14
1.1851e-14
1.18506e-14
1.18511e-14
1.185e-14
1.18508e-14
1.18487e-14
1.18497e-14
1.18462e-14
1.18468e-14
1.18413e-14
1.18406e-14
1.1832e-14
1.18277e-14
1.18144e-14
1.17974e-14
1.17747e-14
1.17355e-14
1.17017e-14
1.16231e-14
1.15587e-14
1.14124e-14
1.12692e-14
1.10731e-14
1.07257e-14
1.0503e-14
1.33046e-14
1.36273e-14
1.41334e-14
1.4417e-14
1.46222e-14
1.48328e-14
1.49241e-14
1.50374e-14
1.50854e-14
1.51413e-14
1.51739e-14
1.51739e-14
)
;
    }
}


// ************************************************************************* //
