/*--------------------------------*- C++ -*----------------------------------*\
| =========                 |                                                 |
| \\      /  F ield         | OpenFOAM: The Open Source CFD Toolbox           |
|  \\    /   O peration     | Version:  dev                                   |
|   \\  /    A nd           | Web:      www.OpenFOAM.org                      |
|    \\/     M anipulation  |                                                 |
\*---------------------------------------------------------------------------*/
FoamFile
{
    version     2.0;
    format      ascii;
    class       volScalarField;
    location    "0.09";
    object      n-C4H5;
}
// * * * * * * * * * * * * * * * * * * * * * * * * * * * * * * * * * * * * * //

dimensions      [0 0 0 0 0 0 0];

internalField   nonuniform List<scalar> 
1989
(
2.84322e-11
2.84476e-11
2.84535e-11
2.84634e-11
2.84651e-11
2.84714e-11
2.84713e-11
2.84752e-11
2.84745e-11
2.84768e-11
2.84761e-11
2.84774e-11
2.8477e-11
2.84774e-11
2.84774e-11
2.8477e-11
2.84774e-11
2.84762e-11
2.84769e-11
2.84745e-11
2.84752e-11
2.84713e-11
2.84714e-11
2.8465e-11
2.84634e-11
2.84534e-11
2.84475e-11
2.84322e-11
2.84131e-11
2.83858e-11
2.83408e-11
2.82964e-11
2.82043e-11
2.81167e-11
2.79366e-11
2.77481e-11
2.75019e-11
2.70687e-11
2.67973e-11
2.99466e-11
3.02681e-11
3.07837e-11
3.10725e-11
3.12906e-11
3.15012e-11
3.16021e-11
3.17104e-11
3.17613e-11
3.18141e-11
3.18456e-11
3.18681e-11
3.18861e-11
3.18928e-11
3.19044e-11
3.19061e-11
3.19135e-11
3.19132e-11
3.19177e-11
3.19169e-11
3.19196e-11
3.19187e-11
3.19202e-11
3.19197e-11
3.19202e-11
3.19202e-11
3.19197e-11
3.19202e-11
3.19188e-11
3.19196e-11
3.19169e-11
3.19178e-11
3.19132e-11
3.19135e-11
3.1906e-11
3.19043e-11
3.18927e-11
3.1886e-11
3.18681e-11
3.18457e-11
3.18142e-11
3.17613e-11
3.17106e-11
3.16025e-11
3.15016e-11
3.12911e-11
3.10731e-11
3.07846e-11
3.02684e-11
2.99472e-11
3.37032e-11
3.40823e-11
3.46923e-11
3.50297e-11
3.52803e-11
3.55255e-11
3.56406e-11
3.57671e-11
3.58249e-11
3.58865e-11
3.5923e-11
3.59491e-11
3.59702e-11
3.59777e-11
3.59911e-11
3.59928e-11
3.60014e-11
3.60009e-11
3.60062e-11
3.6005e-11
3.60082e-11
3.60072e-11
3.60089e-11
3.60083e-11
3.60088e-11
3.60089e-11
3.60083e-11
3.60089e-11
3.60072e-11
3.60083e-11
3.60051e-11
3.60062e-11
3.60009e-11
3.60014e-11
3.59928e-11
3.5991e-11
3.59775e-11
3.59701e-11
3.59492e-11
3.5923e-11
3.58867e-11
3.58249e-11
3.57674e-11
3.5641e-11
3.55259e-11
3.52808e-11
3.50303e-11
3.46933e-11
3.40826e-11
3.37038e-11
3.82073e-11
3.86571e-11
3.93823e-11
3.97784e-11
4.00676e-11
4.03547e-11
4.04845e-11
4.06339e-11
4.06999e-11
4.0772e-11
4.08145e-11
4.08449e-11
4.08698e-11
4.08782e-11
4.08938e-11
4.08955e-11
4.09054e-11
4.09047e-11
4.09108e-11
4.09093e-11
4.0913e-11
4.09117e-11
4.09137e-11
4.0913e-11
4.09136e-11
4.09136e-11
4.0913e-11
4.09137e-11
4.09117e-11
4.09131e-11
4.09094e-11
4.09108e-11
4.09047e-11
4.09054e-11
4.08955e-11
4.08936e-11
4.0878e-11
4.08696e-11
4.0845e-11
4.08145e-11
4.07722e-11
4.06998e-11
4.06342e-11
4.04849e-11
4.03552e-11
4.00682e-11
3.97791e-11
3.93836e-11
3.86574e-11
3.82081e-11
4.3607e-11
4.41321e-11
4.48675e-11
4.53228e-11
4.56508e-11
4.59821e-11
4.61251e-11
4.62992e-11
4.63732e-11
4.64562e-11
4.6505e-11
4.65398e-11
4.65687e-11
4.65781e-11
4.65959e-11
4.65975e-11
4.66089e-11
4.66077e-11
4.66148e-11
4.66129e-11
4.66172e-11
4.66156e-11
4.66179e-11
4.6617e-11
4.66178e-11
4.66178e-11
4.6617e-11
4.66179e-11
4.66156e-11
4.66172e-11
4.6613e-11
4.66148e-11
4.66078e-11
4.66089e-11
4.65975e-11
4.65957e-11
4.65779e-11
4.65685e-11
4.65399e-11
4.65048e-11
4.64565e-11
4.63731e-11
4.62996e-11
4.61256e-11
4.59827e-11
4.56515e-11
4.53237e-11
4.48689e-11
4.41326e-11
4.36079e-11
4.98454e-11
5.04574e-11
5.13387e-11
5.18874e-11
5.22698e-11
5.26626e-11
5.28254e-11
5.30318e-11
5.31169e-11
5.32145e-11
5.32715e-11
5.33124e-11
5.33467e-11
5.33574e-11
5.33782e-11
5.33798e-11
5.3393e-11
5.33915e-11
5.33997e-11
5.33975e-11
5.34024e-11
5.34005e-11
5.34032e-11
5.34021e-11
5.3403e-11
5.3403e-11
5.34021e-11
5.34032e-11
5.34005e-11
5.34025e-11
5.33975e-11
5.33998e-11
5.33915e-11
5.3393e-11
5.33798e-11
5.3378e-11
5.33572e-11
5.33465e-11
5.33126e-11
5.32711e-11
5.32148e-11
5.31169e-11
5.30322e-11
5.2826e-11
5.26633e-11
5.22705e-11
5.18883e-11
5.13401e-11
5.0458e-11
4.98464e-11
5.71792e-11
5.78938e-11
5.89066e-11
5.95388e-11
5.99634e-11
6.04114e-11
6.05886e-11
6.08255e-11
6.09192e-11
6.10305e-11
6.10947e-11
6.11416e-11
6.1181e-11
6.11928e-11
6.12162e-11
6.12176e-11
6.12326e-11
6.12305e-11
6.12397e-11
6.1237e-11
6.12426e-11
6.12403e-11
6.12434e-11
6.12421e-11
6.12431e-11
6.12432e-11
6.12421e-11
6.12434e-11
6.12404e-11
6.12427e-11
6.12371e-11
6.12398e-11
6.12305e-11
6.12326e-11
6.12175e-11
6.1216e-11
6.11925e-11
6.11808e-11
6.11417e-11
6.10942e-11
6.10308e-11
6.09193e-11
6.0826e-11
6.05892e-11
6.04121e-11
5.99643e-11
5.95399e-11
5.89081e-11
5.78945e-11
5.71804e-11
6.58066e-11
6.66514e-11
6.78159e-11
6.85566e-11
6.90339e-11
6.95517e-11
6.97481e-11
7.00231e-11
7.01281e-11
7.02568e-11
7.033e-11
7.0385e-11
7.0431e-11
7.04442e-11
7.0471e-11
7.04721e-11
7.04891e-11
7.04863e-11
7.04969e-11
7.04934e-11
7.04998e-11
7.0497e-11
7.05005e-11
7.0499e-11
7.05002e-11
7.05002e-11
7.0499e-11
7.05006e-11
7.04971e-11
7.04999e-11
7.04935e-11
7.04969e-11
7.04864e-11
7.04891e-11
7.0472e-11
7.04707e-11
7.04439e-11
7.04308e-11
7.0385e-11
7.03296e-11
7.02573e-11
7.01285e-11
7.00237e-11
6.97489e-11
6.95526e-11
6.9035e-11
6.85579e-11
6.78175e-11
6.66525e-11
6.58081e-11
7.60316e-11
7.70054e-11
7.83038e-11
7.9159e-11
7.96836e-11
8.02653e-11
8.04776e-11
8.07882e-11
8.09029e-11
8.10482e-11
8.11297e-11
8.11923e-11
8.12453e-11
8.12599e-11
8.12897e-11
8.12904e-11
8.13094e-11
8.13059e-11
8.13176e-11
8.13135e-11
8.13206e-11
8.13174e-11
8.13213e-11
8.13195e-11
8.13209e-11
8.13209e-11
8.13196e-11
8.13214e-11
8.13175e-11
8.13208e-11
8.13136e-11
8.13177e-11
8.1306e-11
8.13094e-11
8.12904e-11
8.12894e-11
8.12595e-11
8.1245e-11
8.11923e-11
8.11292e-11
8.10486e-11
8.09034e-11
8.0789e-11
8.04785e-11
8.02663e-11
7.96847e-11
7.91604e-11
7.83056e-11
7.70066e-11
7.60334e-11
8.79195e-11
8.90385e-11
9.0476e-11
9.14642e-11
9.20388e-11
9.26894e-11
9.29173e-11
9.3267e-11
9.33913e-11
9.35553e-11
9.3645e-11
9.3716e-11
9.37774e-11
9.37936e-11
9.38266e-11
9.38269e-11
9.38478e-11
9.38436e-11
9.38565e-11
9.38517e-11
9.38595e-11
9.38558e-11
9.38602e-11
9.38581e-11
9.38596e-11
9.38596e-11
9.38581e-11
9.38602e-11
9.38559e-11
9.38597e-11
9.38518e-11
9.38566e-11
9.38436e-11
9.38479e-11
9.38268e-11
9.38263e-11
9.37932e-11
9.3777e-11
9.3716e-11
9.36444e-11
9.35556e-11
9.33919e-11
9.32678e-11
9.29183e-11
9.26905e-11
9.20401e-11
9.14658e-11
9.04779e-11
8.90399e-11
8.79214e-11
1.01715e-10
1.02995e-10
1.04587e-10
1.0549e-10
1.06117e-10
1.06848e-10
1.0709e-10
1.07485e-10
1.0762e-10
1.07803e-10
1.07903e-10
1.07983e-10
1.08054e-10
1.08072e-10
1.08109e-10
1.08109e-10
1.08132e-10
1.08127e-10
1.08141e-10
1.08135e-10
1.08144e-10
1.0814e-10
1.08144e-10
1.08142e-10
1.08144e-10
1.08144e-10
1.08142e-10
1.08145e-10
1.0814e-10
1.08144e-10
1.08135e-10
1.08141e-10
1.08127e-10
1.08132e-10
1.08109e-10
1.08109e-10
1.08072e-10
1.08054e-10
1.07982e-10
1.07902e-10
1.07803e-10
1.07621e-10
1.07486e-10
1.07091e-10
1.0685e-10
1.06119e-10
1.05492e-10
1.04589e-10
1.02997e-10
1.01717e-10
1.17455e-10
1.18913e-10
1.20688e-10
1.21745e-10
1.22429e-10
1.23249e-10
1.23503e-10
1.23949e-10
1.24094e-10
1.24301e-10
1.24418e-10
1.24512e-10
1.24601e-10
1.24624e-10
1.24667e-10
1.24667e-10
1.24694e-10
1.24688e-10
1.24704e-10
1.24698e-10
1.24708e-10
1.24703e-10
1.24708e-10
1.24706e-10
1.24708e-10
1.24708e-10
1.24706e-10
1.24709e-10
1.24703e-10
1.24708e-10
1.24698e-10
1.24705e-10
1.24688e-10
1.24694e-10
1.24666e-10
1.24667e-10
1.24623e-10
1.24601e-10
1.24512e-10
1.24417e-10
1.24302e-10
1.24095e-10
1.2395e-10
1.23504e-10
1.2325e-10
1.22431e-10
1.21747e-10
1.2069e-10
1.18915e-10
1.17457e-10
1.35904e-10
1.37603e-10
1.39631e-10
1.40868e-10
1.41628e-10
1.42539e-10
1.42807e-10
1.43308e-10
1.43464e-10
1.43696e-10
1.43822e-10
1.43929e-10
1.44034e-10
1.4406e-10
1.44108e-10
1.44106e-10
1.44136e-10
1.44128e-10
1.44147e-10
1.44139e-10
1.4415e-10
1.44144e-10
1.44151e-10
1.44147e-10
1.4415e-10
1.4415e-10
1.44147e-10
1.44151e-10
1.44144e-10
1.4415e-10
1.44139e-10
1.44147e-10
1.44129e-10
1.44136e-10
1.44106e-10
1.44107e-10
1.44059e-10
1.44033e-10
1.43929e-10
1.43822e-10
1.43696e-10
1.43465e-10
1.43309e-10
1.42809e-10
1.4254e-10
1.41629e-10
1.4087e-10
1.39633e-10
1.37606e-10
1.35907e-10
1.57532e-10
1.59466e-10
1.61717e-10
1.63128e-10
1.63961e-10
1.64974e-10
1.65256e-10
1.65819e-10
1.65987e-10
1.66245e-10
1.66383e-10
1.66504e-10
1.66628e-10
1.6666e-10
1.66713e-10
1.6671e-10
1.66743e-10
1.66734e-10
1.66754e-10
1.66745e-10
1.66757e-10
1.6675e-10
1.66757e-10
1.66754e-10
1.66756e-10
1.66756e-10
1.66754e-10
1.66757e-10
1.6675e-10
1.66757e-10
1.66745e-10
1.66754e-10
1.66734e-10
1.66743e-10
1.6671e-10
1.66712e-10
1.66659e-10
1.66627e-10
1.66504e-10
1.66382e-10
1.66245e-10
1.65988e-10
1.6582e-10
1.65258e-10
1.64976e-10
1.63963e-10
1.6313e-10
1.61719e-10
1.59469e-10
1.57535e-10
1.82417e-10
1.84633e-10
1.87129e-10
1.88753e-10
1.89667e-10
1.90804e-10
1.91094e-10
1.91732e-10
1.91911e-10
1.92199e-10
1.9235e-10
1.92487e-10
1.92635e-10
1.92674e-10
1.92734e-10
1.9273e-10
1.92767e-10
1.92756e-10
1.92778e-10
1.92767e-10
1.92781e-10
1.92773e-10
1.9278e-10
1.92776e-10
1.92779e-10
1.92779e-10
1.92776e-10
1.92781e-10
1.92773e-10
1.92781e-10
1.92767e-10
1.92778e-10
1.92756e-10
1.92767e-10
1.9273e-10
1.92734e-10
1.92673e-10
1.92634e-10
1.92487e-10
1.92349e-10
1.92199e-10
1.91913e-10
1.91733e-10
1.91096e-10
1.90805e-10
1.89669e-10
1.88756e-10
1.87132e-10
1.84636e-10
1.82421e-10
2.11702e-10
2.14218e-10
2.17006e-10
2.18891e-10
2.19913e-10
2.21245e-10
2.21559e-10
2.22306e-10
2.22505e-10
2.22838e-10
2.23008e-10
2.23167e-10
2.23348e-10
2.234e-10
2.2347e-10
2.23465e-10
2.23508e-10
2.23494e-10
2.2352e-10
2.23506e-10
2.23522e-10
2.23512e-10
2.23521e-10
2.23516e-10
2.2352e-10
2.2352e-10
2.23516e-10
2.23522e-10
2.23513e-10
2.23522e-10
2.23506e-10
2.2352e-10
2.23494e-10
2.23508e-10
2.23465e-10
2.2347e-10
2.23399e-10
2.23347e-10
2.23166e-10
2.23006e-10
2.22838e-10
2.22507e-10
2.22308e-10
2.2156e-10
2.21247e-10
2.19916e-10
2.18894e-10
2.17009e-10
2.14221e-10
2.11706e-10
2.4641e-10
2.49241e-10
2.52408e-10
2.54594e-10
2.55719e-10
2.57229e-10
2.57547e-10
2.58403e-10
2.58615e-10
2.58987e-10
2.59173e-10
2.59353e-10
2.59573e-10
2.59641e-10
2.59723e-10
2.59715e-10
2.59764e-10
2.59747e-10
2.59776e-10
2.5976e-10
2.59778e-10
2.59767e-10
2.59777e-10
2.59771e-10
2.59774e-10
2.59775e-10
2.59771e-10
2.59777e-10
2.59767e-10
2.59778e-10
2.5976e-10
2.59777e-10
2.59747e-10
2.59764e-10
2.59715e-10
2.59722e-10
2.5964e-10
2.59572e-10
2.59352e-10
2.59171e-10
2.58987e-10
2.58617e-10
2.58405e-10
2.57549e-10
2.57232e-10
2.55722e-10
2.54597e-10
2.52412e-10
2.49245e-10
2.46415e-10
2.87899e-10
2.91125e-10
2.94745e-10
2.97286e-10
2.98537e-10
3.00264e-10
3.00581e-10
3.01571e-10
3.01797e-10
3.02215e-10
3.02418e-10
3.02623e-10
3.02892e-10
3.02981e-10
3.03081e-10
3.0307e-10
3.03127e-10
3.03106e-10
3.0314e-10
3.03121e-10
3.03141e-10
3.03127e-10
3.03139e-10
3.03132e-10
3.03136e-10
3.03136e-10
3.03132e-10
3.03139e-10
3.03128e-10
3.03141e-10
3.03121e-10
3.0314e-10
3.03107e-10
3.03127e-10
3.0307e-10
3.0308e-10
3.0298e-10
3.02891e-10
3.02622e-10
3.02417e-10
3.02216e-10
3.01799e-10
3.01573e-10
3.00583e-10
3.00266e-10
2.98541e-10
2.9729e-10
2.94749e-10
2.9113e-10
2.87904e-10
3.3816e-10
3.41981e-10
3.46256e-10
3.49273e-10
3.5072e-10
3.52735e-10
3.53061e-10
3.54231e-10
3.54478e-10
3.54958e-10
3.55184e-10
3.5542e-10
3.55754e-10
3.55873e-10
3.56002e-10
3.55988e-10
3.56054e-10
3.5603e-10
3.56069e-10
3.56046e-10
3.5607e-10
3.56054e-10
3.56067e-10
3.56059e-10
3.56063e-10
3.56063e-10
3.56059e-10
3.56067e-10
3.56054e-10
3.5607e-10
3.56047e-10
3.5607e-10
3.56031e-10
3.56055e-10
3.55988e-10
3.56e-10
3.55872e-10
3.55753e-10
3.55419e-10
3.55182e-10
3.54958e-10
3.54481e-10
3.54233e-10
3.53063e-10
3.52738e-10
3.50723e-10
3.49277e-10
3.4626e-10
3.41988e-10
3.38165e-10
3.99549e-10
4.04022e-10
4.08987e-10
4.12531e-10
4.14174e-10
4.1652e-10
4.16823e-10
4.18211e-10
4.18475e-10
4.19022e-10
4.19268e-10
4.19535e-10
4.19949e-10
4.20095e-10
4.20272e-10
4.20255e-10
4.20332e-10
4.20304e-10
4.2035e-10
4.20322e-10
4.2035e-10
4.2033e-10
4.20346e-10
4.20336e-10
4.20341e-10
4.20341e-10
4.20336e-10
4.20346e-10
4.20331e-10
4.2035e-10
4.20323e-10
4.2035e-10
4.20304e-10
4.20333e-10
4.20254e-10
4.2027e-10
4.20094e-10
4.19948e-10
4.19534e-10
4.19266e-10
4.19022e-10
4.18478e-10
4.18214e-10
4.16826e-10
4.16523e-10
4.14178e-10
4.12536e-10
4.08991e-10
4.04031e-10
3.99554e-10
4.75723e-10
4.81044e-10
4.86876e-10
4.91079e-10
4.92967e-10
4.95716e-10
4.95974e-10
4.97645e-10
4.97942e-10
4.98572e-10
4.98839e-10
4.99141e-10
4.99659e-10
4.99821e-10
5.00083e-10
5.00061e-10
5.00154e-10
5.0012e-10
5.00175e-10
5.00142e-10
5.00175e-10
5.00152e-10
5.0017e-10
5.00158e-10
5.00164e-10
5.00164e-10
5.00158e-10
5.0017e-10
5.00152e-10
5.00176e-10
5.00143e-10
5.00176e-10
5.0012e-10
5.00154e-10
5.00061e-10
5.00081e-10
4.9982e-10
4.99657e-10
4.99139e-10
4.98837e-10
4.98573e-10
4.97945e-10
4.97648e-10
4.95977e-10
4.95719e-10
4.92971e-10
4.91085e-10
4.8688e-10
4.81056e-10
4.75728e-10
5.71653e-10
5.78081e-10
5.85006e-10
5.90035e-10
5.92236e-10
5.95799e-10
5.95995e-10
5.98089e-10
5.98045e-10
5.98781e-10
5.99066e-10
5.99405e-10
6.00061e-10
6.00213e-10
6.0063e-10
6.00601e-10
6.00714e-10
6.00673e-10
6.00741e-10
6.00703e-10
6.00743e-10
6.00714e-10
6.00736e-10
6.00722e-10
6.00729e-10
6.00729e-10
6.00722e-10
6.00737e-10
6.00715e-10
6.00744e-10
6.00704e-10
6.00742e-10
6.00673e-10
6.00715e-10
6.00601e-10
6.00628e-10
6.00211e-10
6.00059e-10
5.99402e-10
5.99064e-10
5.98783e-10
5.98048e-10
5.98093e-10
5.95998e-10
5.95803e-10
5.92241e-10
5.90042e-10
5.85009e-10
5.78096e-10
5.71658e-10
6.94467e-10
7.02376e-10
7.10631e-10
7.16729e-10
7.1936e-10
7.23597e-10
7.23607e-10
7.26225e-10
7.26174e-10
7.27049e-10
7.27347e-10
7.27724e-10
7.2857e-10
7.28673e-10
7.29388e-10
7.29348e-10
7.29488e-10
7.29439e-10
7.29524e-10
7.29479e-10
7.2953e-10
7.29496e-10
7.29522e-10
7.29504e-10
7.29513e-10
7.29513e-10
7.29504e-10
7.29523e-10
7.29496e-10
7.29531e-10
7.2948e-10
7.29525e-10
7.29439e-10
7.29488e-10
7.29348e-10
7.29386e-10
7.2867e-10
7.28567e-10
7.27721e-10
7.27345e-10
7.27051e-10
7.26177e-10
7.26229e-10
7.2361e-10
7.23601e-10
7.19366e-10
7.16737e-10
7.10632e-10
7.02394e-10
6.94473e-10
8.5489e-10
8.65006e-10
8.75151e-10
8.83013e-10
8.85193e-10
8.90771e-10
8.91295e-10
8.94681e-10
8.94591e-10
8.9567e-10
8.95986e-10
8.96415e-10
8.97539e-10
8.97586e-10
8.97346e-10
8.97289e-10
8.97464e-10
8.97405e-10
8.97513e-10
8.97461e-10
8.97528e-10
8.97488e-10
8.97521e-10
8.97498e-10
8.97509e-10
8.9751e-10
8.97498e-10
8.97521e-10
8.97489e-10
8.97529e-10
8.97463e-10
8.97514e-10
8.97405e-10
8.97465e-10
8.97289e-10
8.97344e-10
8.97583e-10
8.97536e-10
8.9641e-10
8.95984e-10
8.95673e-10
8.94595e-10
8.94687e-10
8.91298e-10
8.90779e-10
8.85201e-10
8.83022e-10
8.7516e-10
8.65028e-10
8.54899e-10
1.06827e-09
1.08099e-09
1.09346e-09
1.10325e-09
1.10594e-09
1.11276e-09
1.11297e-09
1.11743e-09
1.11724e-09
1.11858e-09
1.11888e-09
1.11935e-09
1.12085e-09
1.12086e-09
1.12091e-09
1.12082e-09
1.12105e-09
1.12097e-09
1.12111e-09
1.12105e-09
1.12114e-09
1.1211e-09
1.12114e-09
1.12111e-09
1.12112e-09
1.12112e-09
1.12111e-09
1.12114e-09
1.1211e-09
1.12115e-09
1.12106e-09
1.12112e-09
1.12098e-09
1.12105e-09
1.12082e-09
1.1209e-09
1.12086e-09
1.12085e-09
1.11934e-09
1.11888e-09
1.11858e-09
1.11724e-09
1.11743e-09
1.11297e-09
1.11276e-09
1.10595e-09
1.10326e-09
1.09347e-09
1.08102e-09
1.06828e-09
1.35837e-09
1.37485e-09
1.39029e-09
1.40263e-09
1.40665e-09
1.4158e-09
1.41576e-09
1.42015e-09
1.41977e-09
1.42146e-09
1.42171e-09
1.42218e-09
1.42426e-09
1.42425e-09
1.42447e-09
1.42434e-09
1.42463e-09
1.42454e-09
1.42472e-09
1.42465e-09
1.42477e-09
1.42473e-09
1.4248e-09
1.42479e-09
1.42481e-09
1.42481e-09
1.42479e-09
1.4248e-09
1.42473e-09
1.42477e-09
1.42465e-09
1.42472e-09
1.42454e-09
1.42463e-09
1.42434e-09
1.42446e-09
1.42425e-09
1.42426e-09
1.42217e-09
1.42171e-09
1.42146e-09
1.41978e-09
1.42016e-09
1.41576e-09
1.41582e-09
1.40666e-09
1.40265e-09
1.3903e-09
1.37487e-09
1.35838e-09
1.76486e-09
1.78192e-09
1.80364e-09
1.82147e-09
1.82165e-09
1.83303e-09
1.83249e-09
1.83999e-09
1.84029e-09
1.84313e-09
1.84374e-09
1.84452e-09
1.84794e-09
1.84812e-09
1.84856e-09
1.84845e-09
1.84881e-09
1.8487e-09
1.84894e-09
1.84885e-09
1.84901e-09
1.84896e-09
1.84905e-09
1.84903e-09
1.84906e-09
1.84906e-09
1.84903e-09
1.84905e-09
1.84896e-09
1.84901e-09
1.84886e-09
1.84894e-09
1.8487e-09
1.84881e-09
1.84845e-09
1.84856e-09
1.84811e-09
1.84793e-09
1.84451e-09
1.84373e-09
1.84313e-09
1.8403e-09
1.84e-09
1.83248e-09
1.83305e-09
1.82166e-09
1.82149e-09
1.80365e-09
1.78194e-09
1.76488e-09
2.32994e-09
2.35685e-09
2.37905e-09
2.40145e-09
2.40555e-09
2.4216e-09
2.42096e-09
2.43012e-09
2.43017e-09
2.43377e-09
2.43426e-09
2.43498e-09
2.43336e-09
2.43356e-09
2.43412e-09
2.43392e-09
2.43437e-09
2.43424e-09
2.43454e-09
2.43444e-09
2.43463e-09
2.43457e-09
2.43468e-09
2.43465e-09
2.43469e-09
2.43469e-09
2.43465e-09
2.43468e-09
2.43457e-09
2.43463e-09
2.43444e-09
2.43454e-09
2.43424e-09
2.43437e-09
2.43392e-09
2.43411e-09
2.43355e-09
2.43335e-09
2.43497e-09
2.43425e-09
2.43378e-09
2.43018e-09
2.43014e-09
2.42094e-09
2.42162e-09
2.40557e-09
2.40148e-09
2.37907e-09
2.3569e-09
2.32996e-09
3.12211e-09
3.1548e-09
3.18176e-09
3.20932e-09
3.21248e-09
3.23168e-09
3.23011e-09
3.24106e-09
3.24057e-09
3.24531e-09
3.24557e-09
3.24628e-09
3.24566e-09
3.24591e-09
3.24655e-09
3.24624e-09
3.24678e-09
3.24662e-09
3.24697e-09
3.24685e-09
3.24707e-09
3.247e-09
3.24713e-09
3.2471e-09
3.24714e-09
3.24714e-09
3.2471e-09
3.24714e-09
3.247e-09
3.24708e-09
3.24685e-09
3.24697e-09
3.24662e-09
3.24678e-09
3.24624e-09
3.24654e-09
3.2459e-09
3.24564e-09
3.24627e-09
3.24556e-09
3.24532e-09
3.24058e-09
3.24107e-09
3.23007e-09
3.2317e-09
3.2125e-09
3.20935e-09
3.18179e-09
3.15485e-09
3.12213e-09
4.21155e-09
4.24867e-09
4.27837e-09
4.31012e-09
4.31105e-09
4.33264e-09
4.32983e-09
4.34164e-09
4.34004e-09
4.34628e-09
4.3461e-09
4.34674e-09
4.3468e-09
4.34709e-09
4.34772e-09
4.34725e-09
4.34782e-09
4.34763e-09
4.34801e-09
4.34787e-09
4.34811e-09
4.34803e-09
4.34817e-09
4.34813e-09
4.34817e-09
4.34818e-09
4.34813e-09
4.34817e-09
4.34803e-09
4.34812e-09
4.34787e-09
4.34802e-09
4.34764e-09
4.34783e-09
4.34725e-09
4.34771e-09
4.34707e-09
4.34678e-09
4.34672e-09
4.34609e-09
4.34629e-09
4.34006e-09
4.34166e-09
4.32979e-09
4.33266e-09
4.31107e-09
4.31015e-09
4.2784e-09
4.24872e-09
4.21158e-09
5.65522e-09
5.69189e-09
5.72058e-09
5.75315e-09
5.74915e-09
5.77051e-09
5.76638e-09
5.77676e-09
5.77322e-09
5.78142e-09
5.78048e-09
5.78097e-09
5.78172e-09
5.78199e-09
5.78247e-09
5.78177e-09
5.78226e-09
5.78204e-09
5.78238e-09
5.78222e-09
5.78243e-09
5.78235e-09
5.78248e-09
5.78244e-09
5.78248e-09
5.78248e-09
5.78244e-09
5.78248e-09
5.78235e-09
5.78244e-09
5.78222e-09
5.78238e-09
5.78204e-09
5.78226e-09
5.78178e-09
5.78245e-09
5.78198e-09
5.78168e-09
5.78095e-09
5.78047e-09
5.78144e-09
5.77323e-09
5.77677e-09
5.76636e-09
5.77053e-09
5.74917e-09
5.75317e-09
5.72062e-09
5.69194e-09
5.65523e-09
7.49113e-09
7.51871e-09
7.52961e-09
7.55723e-09
7.55196e-09
7.5708e-09
7.55613e-09
7.57117e-09
7.56519e-09
7.56609e-09
7.56404e-09
7.56423e-09
7.56564e-09
7.56585e-09
7.56595e-09
7.56496e-09
7.56519e-09
7.56495e-09
7.56513e-09
7.56498e-09
7.5651e-09
7.56503e-09
7.56511e-09
7.56509e-09
7.56511e-09
7.56511e-09
7.56509e-09
7.56511e-09
7.56504e-09
7.5651e-09
7.56498e-09
7.56513e-09
7.56495e-09
7.56519e-09
7.56499e-09
7.56594e-09
7.56583e-09
7.5656e-09
7.56421e-09
7.56403e-09
7.5661e-09
7.56521e-09
7.57118e-09
7.55614e-09
7.57082e-09
7.55198e-09
7.55725e-09
7.52964e-09
7.51874e-09
7.49113e-09
9.70719e-09
9.71715e-09
9.71125e-09
9.72697e-09
9.70991e-09
9.72041e-09
9.70288e-09
9.71146e-09
9.7031e-09
9.70423e-09
9.70082e-09
9.70058e-09
9.70247e-09
9.70254e-09
9.70206e-09
9.70073e-09
9.70044e-09
9.70018e-09
9.70011e-09
9.69997e-09
9.69994e-09
9.69991e-09
9.6999e-09
9.6999e-09
9.69989e-09
9.69989e-09
9.6999e-09
9.6999e-09
9.69991e-09
9.69994e-09
9.69997e-09
9.70011e-09
9.70018e-09
9.70044e-09
9.70079e-09
9.70205e-09
9.70253e-09
9.70241e-09
9.70056e-09
9.70081e-09
9.70424e-09
9.70311e-09
9.71146e-09
9.70288e-09
9.72041e-09
9.70991e-09
9.72697e-09
9.71126e-09
9.71716e-09
9.70717e-09
1.23551e-08
1.23379e-08
1.23077e-08
1.23067e-08
1.22754e-08
1.22717e-08
1.22495e-08
1.22546e-08
1.22439e-08
1.22436e-08
1.22387e-08
1.22379e-08
1.22399e-08
1.22398e-08
1.22386e-08
1.22369e-08
1.22358e-08
1.22355e-08
1.22351e-08
1.2235e-08
1.22348e-08
1.22348e-08
1.22347e-08
1.22347e-08
1.22346e-08
1.22346e-08
1.22347e-08
1.22347e-08
1.22348e-08
1.22348e-08
1.2235e-08
1.22351e-08
1.22355e-08
1.22358e-08
1.2237e-08
1.22386e-08
1.22398e-08
1.22398e-08
1.22378e-08
1.22386e-08
1.22436e-08
1.22439e-08
1.22546e-08
1.22495e-08
1.22716e-08
1.22754e-08
1.23067e-08
1.23076e-08
1.23378e-08
1.23551e-08
1.55583e-08
1.55029e-08
1.54408e-08
1.54153e-08
1.53655e-08
1.53471e-08
1.53186e-08
1.5315e-08
1.53014e-08
1.52984e-08
1.52919e-08
1.52903e-08
1.5292e-08
1.52916e-08
1.52894e-08
1.52875e-08
1.52851e-08
1.52848e-08
1.52839e-08
1.52839e-08
1.52833e-08
1.52834e-08
1.52831e-08
1.52832e-08
1.52831e-08
1.52831e-08
1.52832e-08
1.52831e-08
1.52834e-08
1.52833e-08
1.52839e-08
1.52839e-08
1.52848e-08
1.52851e-08
1.52877e-08
1.52894e-08
1.52916e-08
1.52919e-08
1.52903e-08
1.52919e-08
1.52985e-08
1.53014e-08
1.53149e-08
1.53186e-08
1.53471e-08
1.53654e-08
1.54153e-08
1.54408e-08
1.55028e-08
1.55582e-08
1.95e-08
1.93884e-08
1.92866e-08
1.92275e-08
1.9154e-08
1.91163e-08
1.90795e-08
1.90648e-08
1.90475e-08
1.90408e-08
1.90323e-08
1.90296e-08
1.90306e-08
1.90297e-08
1.90262e-08
1.90243e-08
1.90197e-08
1.90193e-08
1.90178e-08
1.90178e-08
1.9017e-08
1.90171e-08
1.90166e-08
1.90168e-08
1.90166e-08
1.90166e-08
1.90168e-08
1.90166e-08
1.90171e-08
1.90169e-08
1.90178e-08
1.90178e-08
1.90193e-08
1.90197e-08
1.90244e-08
1.90262e-08
1.90297e-08
1.90305e-08
1.90297e-08
1.90324e-08
1.90408e-08
1.90475e-08
1.90647e-08
1.90794e-08
1.91162e-08
1.9154e-08
1.92274e-08
1.92865e-08
1.93883e-08
1.94999e-08
2.42778e-08
2.40807e-08
2.39312e-08
2.38268e-08
2.37243e-08
2.36607e-08
2.3614e-08
2.35838e-08
2.35623e-08
2.35503e-08
2.35398e-08
2.35353e-08
2.35315e-08
2.35272e-08
2.35221e-08
2.35201e-08
2.35186e-08
2.35181e-08
2.3516e-08
2.3516e-08
2.35147e-08
2.35149e-08
2.35142e-08
2.35144e-08
2.35141e-08
2.35141e-08
2.35144e-08
2.35142e-08
2.35149e-08
2.35147e-08
2.3516e-08
2.35159e-08
2.3518e-08
2.35186e-08
2.35201e-08
2.35221e-08
2.35273e-08
2.35317e-08
2.35354e-08
2.35398e-08
2.35503e-08
2.35623e-08
2.35838e-08
2.36139e-08
2.36606e-08
2.37242e-08
2.38267e-08
2.3931e-08
2.40805e-08
2.42776e-08
2.96435e-08
2.93223e-08
2.91208e-08
2.89549e-08
2.88179e-08
2.872e-08
2.86623e-08
2.86105e-08
2.85845e-08
2.85651e-08
2.85524e-08
2.85455e-08
2.85395e-08
2.85337e-08
2.85264e-08
2.85238e-08
2.85198e-08
2.8519e-08
2.85161e-08
2.85161e-08
2.85143e-08
2.85146e-08
2.85136e-08
2.85139e-08
2.85135e-08
2.85135e-08
2.85139e-08
2.85136e-08
2.85146e-08
2.85143e-08
2.85161e-08
2.8516e-08
2.8519e-08
2.85198e-08
2.85238e-08
2.85265e-08
2.85338e-08
2.85396e-08
2.85456e-08
2.85525e-08
2.85651e-08
2.85844e-08
2.86104e-08
2.86621e-08
2.87198e-08
2.88178e-08
2.89547e-08
2.91205e-08
2.93219e-08
2.96431e-08
3.45882e-08
3.4121e-08
3.38708e-08
3.36397e-08
3.34776e-08
3.3343e-08
3.32762e-08
3.32003e-08
3.31711e-08
3.31374e-08
3.31229e-08
3.31133e-08
3.31047e-08
3.30971e-08
3.30875e-08
3.30837e-08
3.3078e-08
3.3077e-08
3.30733e-08
3.30733e-08
3.3071e-08
3.30715e-08
3.30702e-08
3.30705e-08
3.307e-08
3.307e-08
3.30705e-08
3.30701e-08
3.30714e-08
3.3071e-08
3.30733e-08
3.30732e-08
3.30769e-08
3.3078e-08
3.30837e-08
3.30875e-08
3.30971e-08
3.31047e-08
3.31134e-08
3.3123e-08
3.31374e-08
3.3171e-08
3.32001e-08
3.32761e-08
3.33428e-08
3.34774e-08
3.36395e-08
3.38704e-08
3.41206e-08
3.45878e-08
3.71514e-08
3.65925e-08
3.63258e-08
3.60561e-08
3.58779e-08
3.57225e-08
3.56514e-08
3.55611e-08
3.55308e-08
3.54926e-08
3.54775e-08
3.5466e-08
3.54557e-08
3.54467e-08
3.54359e-08
3.54314e-08
3.5425e-08
3.54237e-08
3.54196e-08
3.54196e-08
3.54171e-08
3.54176e-08
3.54162e-08
3.54166e-08
3.5416e-08
3.5416e-08
3.54165e-08
3.54161e-08
3.54175e-08
3.54171e-08
3.54196e-08
3.54196e-08
3.54237e-08
3.54249e-08
3.54314e-08
3.5436e-08
3.54468e-08
3.54557e-08
3.54661e-08
3.54775e-08
3.54926e-08
3.55308e-08
3.5561e-08
3.56512e-08
3.57223e-08
3.58777e-08
3.60557e-08
3.63253e-08
3.6592e-08
3.71509e-08
)
;

boundaryField
{
    fuel
    {
        type            fixedValue;
        value           nonuniform 0();
    }
    wall
    {
        type            zeroGradient;
    }
    outlet
    {
        type            zeroGradient;
    }
    frontAndBack
    {
        type            empty;
    }
    procBoundary3to2
    {
        type            processor;
        value           nonuniform List<scalar> 
51
(
2.55517e-11
2.55648e-11
2.55701e-11
2.55786e-11
2.55801e-11
2.55855e-11
2.55855e-11
2.55888e-11
2.55883e-11
2.55903e-11
2.55897e-11
2.55908e-11
2.55905e-11
2.55908e-11
2.55908e-11
2.55905e-11
2.55908e-11
2.55898e-11
2.55903e-11
2.55884e-11
2.55888e-11
2.55855e-11
2.55855e-11
2.55801e-11
2.55785e-11
2.557e-11
2.55648e-11
2.55517e-11
2.55356e-11
2.55122e-11
2.54739e-11
2.54353e-11
2.53572e-11
2.52817e-11
2.51284e-11
2.49663e-11
2.47575e-11
2.43959e-11
2.41676e-11
2.67968e-11
2.70685e-11
2.75012e-11
2.77477e-11
2.79363e-11
2.81164e-11
2.82041e-11
2.82962e-11
2.83409e-11
2.83859e-11
2.8413e-11
2.8413e-11
)
;
    }
}


// ************************************************************************* //
