/*--------------------------------*- C++ -*----------------------------------*\
| =========                 |                                                 |
| \\      /  F ield         | OpenFOAM: The Open Source CFD Toolbox           |
|  \\    /   O peration     | Version:  dev                                   |
|   \\  /    A nd           | Web:      www.OpenFOAM.org                      |
|    \\/     M anipulation  |                                                 |
\*---------------------------------------------------------------------------*/
FoamFile
{
    version     2.0;
    format      ascii;
    class       volScalarField;
    location    "0.09";
    object      O;
}
// * * * * * * * * * * * * * * * * * * * * * * * * * * * * * * * * * * * * * //

dimensions      [0 0 0 0 0 0 0];

internalField   nonuniform List<scalar> 
250
(
2.51049e-05
2.50793e-05
2.51049e-05
2.50783e-05
2.50787e-05
2.51192e-05
2.51187e-05
2.51235e-05
2.51021e-05
2.5465e-05
1.48893e-08
1.19867e-05
1.19823e-05
1.1987e-05
1.19816e-05
1.19816e-05
1.199e-05
1.19875e-05
1.19922e-05
1.1964e-05
1.21616e-05
1.20961e-08
4.89457e-06
4.89352e-06
4.89485e-06
4.89354e-06
4.89365e-06
4.89575e-06
4.89281e-06
4.89293e-06
4.85282e-06
4.98961e-06
6.71614e-09
1.95522e-06
1.95317e-06
1.95539e-06
1.95497e-06
1.95509e-06
1.95565e-06
1.95348e-06
1.95138e-06
1.91983e-06
2.09612e-06
3.79663e-09
8.45201e-07
8.3798e-07
8.45214e-07
8.45065e-07
8.45175e-07
8.45173e-07
8.43516e-07
8.38813e-07
8.12533e-07
1.01029e-06
2.41875e-09
4.08663e-07
4.15589e-07
4.09198e-07
4.08922e-07
4.09537e-07
4.09245e-07
4.08249e-07
4.08921e-07
3.9496e-07
5.85414e-07
2.29562e-09
2.44656e-07
2.48273e-07
2.45749e-07
2.45631e-07
2.46288e-07
2.45739e-07
2.44175e-07
2.43307e-07
2.29979e-07
3.96192e-07
4.10061e-09
1.7404e-07
1.74292e-07
1.73078e-07
1.73225e-07
1.73902e-07
1.73365e-07
1.73842e-07
1.72649e-07
1.57368e-07
2.94692e-07
1.57394e-08
1.41289e-07
1.41048e-07
1.40492e-07
1.40994e-07
1.41614e-07
1.4121e-07
1.41113e-07
1.38039e-07
1.20849e-07
2.29367e-07
9.53547e-08
1.2302e-07
1.2397e-07
1.23784e-07
1.2335e-07
1.23351e-07
1.23084e-07
1.2278e-07
1.19657e-07
1.0378e-07
1.81728e-07
3.86588e-07
1.14564e-07
1.14534e-07
1.14265e-07
1.14339e-07
1.14154e-07
1.13748e-07
1.10488e-07
9.30848e-08
1.44784e-07
8.99553e-07
1.08291e-07
1.08318e-07
1.08161e-07
1.08245e-07
1.08113e-07
1.07669e-07
1.04486e-07
8.58997e-08
1.15506e-07
1.34007e-06
1.04002e-07
1.0405e-07
1.03952e-07
1.04032e-07
1.03932e-07
1.03449e-07
1.00131e-07
8.13687e-08
9.2231e-08
1.3592e-06
1.00669e-07
1.00728e-07
1.00652e-07
1.00733e-07
1.00654e-07
1.00144e-07
9.67536e-08
7.77463e-08
7.40668e-08
1.11435e-06
9.77358e-08
9.78038e-08
9.77328e-08
9.7821e-08
9.77551e-08
9.72267e-08
9.38305e-08
7.45745e-08
6.03035e-08
8.3568e-07
9.49012e-08
9.49775e-08
9.49047e-08
9.50031e-08
9.4949e-08
9.44129e-08
9.10718e-08
7.21677e-08
5.02153e-08
6.09306e-07
9.19868e-08
9.20718e-08
9.1994e-08
9.21054e-08
9.20634e-08
9.15303e-08
8.83025e-08
6.98715e-08
4.22885e-08
4.40797e-07
8.8877e-08
8.89715e-08
8.8887e-08
8.90136e-08
8.89852e-08
8.84652e-08
8.54059e-08
6.76166e-08
3.65105e-08
3.16797e-07
8.54883e-08
8.55929e-08
8.55008e-08
8.56444e-08
8.56313e-08
8.51344e-08
8.22915e-08
6.54111e-08
3.25064e-08
2.25462e-07
8.17544e-08
8.18696e-08
8.17691e-08
8.19311e-08
8.19354e-08
8.1471e-08
7.88754e-08
6.31583e-08
2.97925e-08
1.5874e-07
7.76182e-08
7.7744e-08
7.7635e-08
7.78161e-08
7.78394e-08
7.74171e-08
7.55514e-08
6.07733e-08
2.81896e-08
1.10843e-07
7.30236e-08
7.31591e-08
7.30427e-08
7.3242e-08
7.32858e-08
7.29112e-08
7.15544e-08
5.81622e-08
2.70523e-08
7.7142e-08
6.85085e-08
6.86545e-08
6.8528e-08
6.87459e-08
6.88073e-08
6.84742e-08
6.7062e-08
5.52498e-08
2.62833e-08
5.3815e-08
6.32547e-08
6.34233e-08
6.32812e-08
6.35318e-08
6.36204e-08
6.3343e-08
6.26691e-08
5.19765e-08
2.57419e-08
3.78076e-08
)
;

boundaryField
{
    fuel
    {
        type            fixedValue;
        value           uniform 0;
    }
    wall
    {
        type            zeroGradient;
    }
    outlet
    {
        type            zeroGradient;
    }
    frontAndBack
    {
        type            empty;
    }
    procBoundary3to0
    {
        type            processor;
        value           nonuniform List<scalar> 10(5.79679e-08 5.81461e-08 5.79951e-08 5.82621e-08 5.83672e-08 5.81335e-08 5.7436e-08 4.82606e-08 2.51712e-08 2.70787e-08);
    }
    procBoundary3to2
    {
        type            processor;
        value           nonuniform List<scalar> 
25
(
2.51049e-05
1.19873e-05
4.89507e-06
1.95553e-06
8.4536e-07
4.09119e-07
2.45779e-07
1.73265e-07
1.4117e-07
1.23078e-07
1.13895e-07
1.13895e-07
1.08285e-07
1.04052e-07
1.00719e-07
9.77864e-08
9.49521e-08
9.20326e-08
8.89109e-08
8.55053e-08
8.17517e-08
7.75945e-08
7.29783e-08
6.84447e-08
6.31757e-08
)
;
    }
}


// ************************************************************************* //
