/*--------------------------------*- C++ -*----------------------------------*\
| =========                 |                                                 |
| \\      /  F ield         | OpenFOAM: The Open Source CFD Toolbox           |
|  \\    /   O peration     | Version:  dev                                   |
|   \\  /    A nd           | Web:      www.OpenFOAM.org                      |
|    \\/     M anipulation  |                                                 |
\*---------------------------------------------------------------------------*/
FoamFile
{
    version     2.0;
    format      ascii;
    class       volScalarField;
    location    "0.09";
    object      OH;
}
// * * * * * * * * * * * * * * * * * * * * * * * * * * * * * * * * * * * * * //

dimensions      [0 0 0 0 0 0 0];

internalField   nonuniform List<scalar> 
1989
(
1.88627e-06
1.88484e-06
1.88416e-06
1.88323e-06
1.88298e-06
1.88239e-06
1.88233e-06
1.88197e-06
1.88199e-06
1.88178e-06
1.88181e-06
1.8817e-06
1.88172e-06
1.88168e-06
1.88168e-06
1.88172e-06
1.8817e-06
1.88181e-06
1.88177e-06
1.88198e-06
1.88197e-06
1.88233e-06
1.88239e-06
1.88298e-06
1.88324e-06
1.88417e-06
1.88485e-06
1.88628e-06
1.88796e-06
1.89041e-06
1.89435e-06
1.89878e-06
1.90681e-06
1.91507e-06
1.9311e-06
1.94924e-06
1.97027e-06
2.00612e-06
2.02684e-06
1.80201e-06
1.7827e-06
1.74926e-06
1.73003e-06
1.71363e-06
1.69907e-06
1.69155e-06
1.68426e-06
1.68028e-06
1.6767e-06
1.6745e-06
1.67295e-06
1.67166e-06
1.67106e-06
1.67021e-06
1.67e-06
1.66946e-06
1.66941e-06
1.66909e-06
1.6691e-06
1.66891e-06
1.66894e-06
1.66884e-06
1.66886e-06
1.66883e-06
1.66883e-06
1.66886e-06
1.66884e-06
1.66894e-06
1.66891e-06
1.6691e-06
1.66908e-06
1.66941e-06
1.66946e-06
1.67e-06
1.67022e-06
1.67107e-06
1.67167e-06
1.67295e-06
1.67449e-06
1.67671e-06
1.68029e-06
1.68425e-06
1.69153e-06
1.69905e-06
1.71361e-06
1.73e-06
1.74922e-06
1.78267e-06
1.80197e-06
1.59506e-06
1.57717e-06
1.5461e-06
1.5286e-06
1.51387e-06
1.50073e-06
1.49391e-06
1.48734e-06
1.48381e-06
1.48057e-06
1.47859e-06
1.47719e-06
1.47603e-06
1.4755e-06
1.47473e-06
1.47454e-06
1.47406e-06
1.47402e-06
1.47373e-06
1.47374e-06
1.47357e-06
1.4736e-06
1.47351e-06
1.47353e-06
1.4735e-06
1.4735e-06
1.47353e-06
1.47351e-06
1.4736e-06
1.47357e-06
1.47374e-06
1.47372e-06
1.47402e-06
1.47406e-06
1.47455e-06
1.47474e-06
1.4755e-06
1.47603e-06
1.47719e-06
1.47858e-06
1.48056e-06
1.48381e-06
1.48733e-06
1.49389e-06
1.50071e-06
1.51385e-06
1.52858e-06
1.54605e-06
1.57715e-06
1.59503e-06
1.40366e-06
1.38705e-06
1.358e-06
1.34211e-06
1.32886e-06
1.31698e-06
1.31088e-06
1.30493e-06
1.30179e-06
1.29886e-06
1.29708e-06
1.29581e-06
1.29477e-06
1.2943e-06
1.29361e-06
1.29345e-06
1.29302e-06
1.29298e-06
1.29272e-06
1.29274e-06
1.29258e-06
1.29261e-06
1.29253e-06
1.29255e-06
1.29252e-06
1.29252e-06
1.29255e-06
1.29253e-06
1.29261e-06
1.29258e-06
1.29274e-06
1.29272e-06
1.29298e-06
1.29302e-06
1.29345e-06
1.29362e-06
1.2943e-06
1.29477e-06
1.29581e-06
1.29707e-06
1.29885e-06
1.30179e-06
1.30492e-06
1.31086e-06
1.31697e-06
1.32884e-06
1.34209e-06
1.35795e-06
1.38704e-06
1.40363e-06
1.22688e-06
1.21182e-06
1.1885e-06
1.17438e-06
1.16258e-06
1.15195e-06
1.1466e-06
1.14124e-06
1.13847e-06
1.13586e-06
1.13427e-06
1.13315e-06
1.13221e-06
1.1318e-06
1.13119e-06
1.13105e-06
1.13067e-06
1.13064e-06
1.13041e-06
1.13043e-06
1.13029e-06
1.13031e-06
1.13024e-06
1.13026e-06
1.13023e-06
1.13023e-06
1.13026e-06
1.13024e-06
1.13031e-06
1.13028e-06
1.13042e-06
1.1304e-06
1.13064e-06
1.13067e-06
1.13105e-06
1.1312e-06
1.13181e-06
1.13222e-06
1.13315e-06
1.13427e-06
1.13585e-06
1.13848e-06
1.14123e-06
1.14659e-06
1.15194e-06
1.16257e-06
1.17436e-06
1.18846e-06
1.21181e-06
1.22685e-06
1.06988e-06
1.05623e-06
1.03455e-06
1.02146e-06
1.01076e-06
1.00102e-06
9.96239e-07
9.91338e-07
9.88866e-07
9.86497e-07
9.85064e-07
9.84052e-07
9.83207e-07
9.82842e-07
9.82292e-07
9.8217e-07
9.81821e-07
9.81802e-07
9.81589e-07
9.81609e-07
9.81483e-07
9.8151e-07
9.81442e-07
9.81459e-07
9.81437e-07
9.81437e-07
9.81459e-07
9.81441e-07
9.81509e-07
9.81481e-07
9.81608e-07
9.81588e-07
9.81802e-07
9.81821e-07
9.82171e-07
9.82296e-07
9.82848e-07
9.83212e-07
9.84049e-07
9.85064e-07
9.86492e-07
9.88871e-07
9.91332e-07
9.96229e-07
1.00101e-06
1.01074e-06
1.02144e-06
1.03452e-06
1.05621e-06
1.06985e-06
9.28049e-07
9.1567e-07
8.96103e-07
8.8441e-07
8.75027e-07
8.66365e-07
8.62221e-07
8.57845e-07
8.55697e-07
8.53599e-07
8.52335e-07
8.51443e-07
8.50696e-07
8.5038e-07
8.49894e-07
8.49792e-07
8.49483e-07
8.49471e-07
8.49282e-07
8.49302e-07
8.4919e-07
8.49216e-07
8.49155e-07
8.49171e-07
8.49151e-07
8.49151e-07
8.49171e-07
8.49154e-07
8.49214e-07
8.49188e-07
8.49301e-07
8.49281e-07
8.49471e-07
8.49484e-07
8.49794e-07
8.49898e-07
8.50386e-07
8.507e-07
8.5144e-07
8.52337e-07
8.53595e-07
8.55701e-07
8.57839e-07
8.62212e-07
8.66355e-07
8.75013e-07
8.84392e-07
8.96071e-07
9.15659e-07
9.28028e-07
7.99959e-07
7.88569e-07
7.70916e-07
7.60311e-07
7.52062e-07
7.44292e-07
7.40671e-07
7.36738e-07
7.34858e-07
7.32986e-07
7.31866e-07
7.31067e-07
7.30406e-07
7.30131e-07
7.29701e-07
7.29615e-07
7.29342e-07
7.29335e-07
7.29167e-07
7.29188e-07
7.29089e-07
7.29114e-07
7.2906e-07
7.29075e-07
7.29057e-07
7.29057e-07
7.29075e-07
7.29059e-07
7.29112e-07
7.29087e-07
7.29187e-07
7.29167e-07
7.29335e-07
7.29342e-07
7.29617e-07
7.29704e-07
7.30136e-07
7.30409e-07
7.31066e-07
7.31866e-07
7.3298e-07
7.34859e-07
7.36732e-07
7.40662e-07
7.44281e-07
7.52048e-07
7.60294e-07
7.70889e-07
7.88558e-07
7.99939e-07
6.83584e-07
6.73391e-07
6.57971e-07
6.48457e-07
6.41358e-07
6.3457e-07
6.31471e-07
6.28027e-07
6.26418e-07
6.24781e-07
6.23813e-07
6.23117e-07
6.22542e-07
6.22307e-07
6.21934e-07
6.21863e-07
6.21626e-07
6.21622e-07
6.21477e-07
6.21497e-07
6.21411e-07
6.21433e-07
6.21386e-07
6.21399e-07
6.21384e-07
6.21384e-07
6.21399e-07
6.21385e-07
6.21432e-07
6.21409e-07
6.21496e-07
6.21477e-07
6.21622e-07
6.21626e-07
6.21864e-07
6.21937e-07
6.22311e-07
6.22545e-07
6.23116e-07
6.23812e-07
6.24777e-07
6.26417e-07
6.28021e-07
6.31463e-07
6.3456e-07
6.41346e-07
6.48442e-07
6.57948e-07
6.7338e-07
6.83566e-07
5.80224e-07
5.71151e-07
5.57863e-07
5.493e-07
5.43238e-07
5.37357e-07
5.34726e-07
5.31734e-07
5.30369e-07
5.28942e-07
5.28119e-07
5.27517e-07
5.2702e-07
5.2682e-07
5.265e-07
5.26441e-07
5.26239e-07
5.26237e-07
5.26112e-07
5.2613e-07
5.26056e-07
5.26076e-07
5.26036e-07
5.26048e-07
5.26034e-07
5.26034e-07
5.26048e-07
5.26035e-07
5.26075e-07
5.26055e-07
5.2613e-07
5.26112e-07
5.26237e-07
5.26239e-07
5.26442e-07
5.26503e-07
5.26823e-07
5.27023e-07
5.27516e-07
5.28118e-07
5.2894e-07
5.30368e-07
5.31729e-07
5.34719e-07
5.37349e-07
5.43228e-07
5.49288e-07
5.57845e-07
5.7114e-07
5.80209e-07
4.88978e-07
4.80965e-07
4.69601e-07
4.63379e-07
4.58225e-07
4.53116e-07
4.50904e-07
4.48296e-07
4.47141e-07
4.45909e-07
4.45204e-07
4.44689e-07
4.44257e-07
4.44088e-07
4.43814e-07
4.43767e-07
4.43593e-07
4.43594e-07
4.43487e-07
4.43504e-07
4.4344e-07
4.43458e-07
4.43423e-07
4.43434e-07
4.43422e-07
4.43422e-07
4.43434e-07
4.43423e-07
4.43457e-07
4.43439e-07
4.43503e-07
4.43486e-07
4.43594e-07
4.43593e-07
4.43768e-07
4.43816e-07
4.44091e-07
4.44259e-07
4.44689e-07
4.45203e-07
4.45908e-07
4.4714e-07
4.48291e-07
4.50898e-07
4.53109e-07
4.58217e-07
4.63368e-07
4.69586e-07
4.80955e-07
4.88964e-07
4.1022e-07
4.03182e-07
3.93441e-07
3.87998e-07
3.8365e-07
3.79243e-07
3.77401e-07
3.75143e-07
3.74175e-07
3.73107e-07
3.72478e-07
3.72022e-07
3.71628e-07
3.71478e-07
3.71233e-07
3.71193e-07
3.71037e-07
3.71039e-07
3.70943e-07
3.70959e-07
3.70902e-07
3.70918e-07
3.70887e-07
3.70897e-07
3.70886e-07
3.70886e-07
3.70897e-07
3.70887e-07
3.70918e-07
3.70901e-07
3.70959e-07
3.70943e-07
3.71039e-07
3.71037e-07
3.71194e-07
3.71235e-07
3.71481e-07
3.7163e-07
3.72022e-07
3.72478e-07
3.73106e-07
3.74174e-07
3.75139e-07
3.77395e-07
3.79237e-07
3.83642e-07
3.87989e-07
3.93429e-07
4.03172e-07
4.10208e-07
3.40756e-07
3.34486e-07
3.26035e-07
3.21284e-07
3.17612e-07
3.13879e-07
3.12357e-07
3.10434e-07
3.09631e-07
3.08722e-07
3.08195e-07
3.0781e-07
3.0747e-07
3.07343e-07
3.07136e-07
3.07104e-07
3.06972e-07
3.06976e-07
3.06895e-07
3.06909e-07
3.06861e-07
3.06875e-07
3.06849e-07
3.06857e-07
3.06848e-07
3.06848e-07
3.06857e-07
3.06848e-07
3.06874e-07
3.0686e-07
3.06909e-07
3.06894e-07
3.06975e-07
3.06972e-07
3.07104e-07
3.07138e-07
3.07345e-07
3.07472e-07
3.07809e-07
3.08195e-07
3.08722e-07
3.0963e-07
3.10431e-07
3.12352e-07
3.13874e-07
3.17606e-07
3.21276e-07
3.26027e-07
3.34476e-07
3.40746e-07
2.80031e-07
2.74604e-07
2.67494e-07
2.6347e-07
2.60417e-07
2.57293e-07
2.56048e-07
2.54428e-07
2.53768e-07
2.53002e-07
2.52565e-07
2.52242e-07
2.5195e-07
2.51843e-07
2.51671e-07
2.51645e-07
2.51535e-07
2.51539e-07
2.51472e-07
2.51485e-07
2.51444e-07
2.51457e-07
2.51434e-07
2.51442e-07
2.51434e-07
2.51434e-07
2.51442e-07
2.51434e-07
2.51456e-07
2.51443e-07
2.51484e-07
2.51471e-07
2.51539e-07
2.51535e-07
2.51646e-07
2.51672e-07
2.51845e-07
2.51952e-07
2.52241e-07
2.52565e-07
2.53002e-07
2.53766e-07
2.54425e-07
2.56044e-07
2.57289e-07
2.60412e-07
2.63464e-07
2.67486e-07
2.74596e-07
2.80022e-07
2.28585e-07
2.23866e-07
2.17965e-07
2.14551e-07
2.12026e-07
2.09421e-07
2.08419e-07
2.07056e-07
2.06518e-07
2.05878e-07
2.05518e-07
2.05249e-07
2.04999e-07
2.04909e-07
2.04765e-07
2.04745e-07
2.04654e-07
2.04658e-07
2.04602e-07
2.04614e-07
2.0458e-07
2.04591e-07
2.04572e-07
2.04579e-07
2.04572e-07
2.04572e-07
2.04578e-07
2.04572e-07
2.0459e-07
2.04579e-07
2.04613e-07
2.04602e-07
2.04658e-07
2.04654e-07
2.04746e-07
2.04766e-07
2.04911e-07
2.05001e-07
2.05249e-07
2.05518e-07
2.05878e-07
2.06517e-07
2.07053e-07
2.08416e-07
2.09417e-07
2.12021e-07
2.14545e-07
2.17959e-07
2.23859e-07
2.28578e-07
1.84547e-07
1.80523e-07
1.75689e-07
1.72791e-07
1.70715e-07
1.68492e-07
1.67675e-07
1.66511e-07
1.6607e-07
1.65526e-07
1.65227e-07
1.64999e-07
1.64783e-07
1.64706e-07
1.64584e-07
1.64569e-07
1.64492e-07
1.64497e-07
1.64449e-07
1.6446e-07
1.64431e-07
1.64441e-07
1.64425e-07
1.64431e-07
1.64425e-07
1.64425e-07
1.64431e-07
1.64425e-07
1.64441e-07
1.64431e-07
1.6446e-07
1.64449e-07
1.64497e-07
1.64492e-07
1.64569e-07
1.64585e-07
1.64707e-07
1.64784e-07
1.64999e-07
1.65227e-07
1.65526e-07
1.66068e-07
1.66509e-07
1.67672e-07
1.68489e-07
1.70711e-07
1.72787e-07
1.75684e-07
1.80518e-07
1.84541e-07
1.47174e-07
1.43849e-07
1.39898e-07
1.37473e-07
1.35809e-07
1.33981e-07
1.33341e-07
1.3238e-07
1.32027e-07
1.31581e-07
1.3134e-07
1.31154e-07
1.30971e-07
1.30905e-07
1.30805e-07
1.30794e-07
1.30731e-07
1.30736e-07
1.30697e-07
1.30706e-07
1.30683e-07
1.30691e-07
1.30678e-07
1.30683e-07
1.30679e-07
1.30679e-07
1.30683e-07
1.30678e-07
1.30691e-07
1.30682e-07
1.30706e-07
1.30697e-07
1.30736e-07
1.30731e-07
1.30794e-07
1.30806e-07
1.30906e-07
1.30972e-07
1.31154e-07
1.31341e-07
1.31581e-07
1.32025e-07
1.32378e-07
1.33338e-07
1.33979e-07
1.35806e-07
1.37469e-07
1.39894e-07
1.43844e-07
1.47169e-07
1.15798e-07
1.13085e-07
1.09897e-07
1.07899e-07
1.06581e-07
1.051e-07
1.04607e-07
1.03823e-07
1.03545e-07
1.03184e-07
1.02993e-07
1.02842e-07
1.02689e-07
1.02633e-07
1.02551e-07
1.02543e-07
1.02492e-07
1.02496e-07
1.02465e-07
1.02473e-07
1.02454e-07
1.02461e-07
1.02451e-07
1.02455e-07
1.02451e-07
1.02451e-07
1.02455e-07
1.02451e-07
1.02461e-07
1.02454e-07
1.02473e-07
1.02465e-07
1.02496e-07
1.02492e-07
1.02543e-07
1.02551e-07
1.02633e-07
1.0269e-07
1.02842e-07
1.02994e-07
1.03184e-07
1.03544e-07
1.03821e-07
1.04605e-07
1.05098e-07
1.06579e-07
1.07896e-07
1.09894e-07
1.13082e-07
1.15794e-07
8.96817e-08
8.74518e-08
8.48669e-08
8.32283e-08
8.21813e-08
8.09925e-08
8.06137e-08
7.99797e-08
7.9759e-08
7.94705e-08
7.93201e-08
7.91989e-08
7.90707e-08
7.90209e-08
7.89534e-08
7.89478e-08
7.89067e-08
7.89111e-08
7.8886e-08
7.88929e-08
7.88778e-08
7.88836e-08
7.88752e-08
7.88785e-08
7.88757e-08
7.88756e-08
7.88785e-08
7.88751e-08
7.88834e-08
7.88775e-08
7.88927e-08
7.88859e-08
7.89111e-08
7.89067e-08
7.8948e-08
7.8954e-08
7.90216e-08
7.90713e-08
7.91989e-08
7.93205e-08
7.94707e-08
7.97581e-08
7.99785e-08
8.06123e-08
8.09909e-08
8.21793e-08
8.32259e-08
8.48642e-08
8.74486e-08
8.96786e-08
6.83132e-08
6.65404e-08
6.45085e-08
6.32038e-08
6.23947e-08
6.14637e-08
6.11847e-08
6.06821e-08
6.05102e-08
6.02853e-08
6.01695e-08
6.00746e-08
5.99697e-08
5.99272e-08
5.98711e-08
5.98673e-08
5.9835e-08
5.98389e-08
5.98191e-08
5.98248e-08
5.9813e-08
5.98178e-08
5.98112e-08
5.98139e-08
5.98117e-08
5.98116e-08
5.98139e-08
5.98111e-08
5.98176e-08
5.98128e-08
5.98247e-08
5.9819e-08
5.98388e-08
5.98349e-08
5.98674e-08
5.98715e-08
5.99278e-08
5.99702e-08
6.00746e-08
6.01698e-08
6.02854e-08
6.05095e-08
6.06812e-08
6.11836e-08
6.14625e-08
6.23932e-08
6.32019e-08
6.45065e-08
6.65377e-08
6.8311e-08
5.10381e-08
4.96522e-08
4.80821e-08
4.70656e-08
4.64497e-08
4.57382e-08
4.55395e-08
4.51484e-08
4.50134e-08
4.48414e-08
4.47543e-08
4.46816e-08
4.45973e-08
4.45624e-08
4.45135e-08
4.45111e-08
4.44861e-08
4.44894e-08
4.44742e-08
4.44788e-08
4.44697e-08
4.44736e-08
4.44685e-08
4.44707e-08
4.4469e-08
4.44689e-08
4.44706e-08
4.44685e-08
4.44735e-08
4.44695e-08
4.44787e-08
4.44741e-08
4.44894e-08
4.44861e-08
4.45112e-08
4.45139e-08
4.45628e-08
4.45976e-08
4.46817e-08
4.47545e-08
4.48415e-08
4.50129e-08
4.51477e-08
4.55387e-08
4.57373e-08
4.64485e-08
4.70641e-08
4.80807e-08
4.96498e-08
5.10366e-08
3.73063e-08
3.62436e-08
3.50534e-08
3.42823e-08
3.38201e-08
3.32515e-08
3.31135e-08
3.281e-08
3.27526e-08
3.26241e-08
3.25602e-08
3.25061e-08
3.24396e-08
3.24135e-08
3.23672e-08
3.23657e-08
3.23468e-08
3.23495e-08
3.23379e-08
3.23416e-08
3.23347e-08
3.23378e-08
3.2334e-08
3.23357e-08
3.23344e-08
3.23344e-08
3.23357e-08
3.2334e-08
3.23377e-08
3.23346e-08
3.23415e-08
3.23379e-08
3.23495e-08
3.23467e-08
3.23658e-08
3.23674e-08
3.24138e-08
3.24399e-08
3.25062e-08
3.25604e-08
3.26241e-08
3.27522e-08
3.28095e-08
3.31128e-08
3.32508e-08
3.38192e-08
3.42812e-08
3.50525e-08
3.62415e-08
3.73053e-08
2.66076e-08
2.58045e-08
2.4933e-08
2.43623e-08
2.40192e-08
2.36037e-08
2.35174e-08
2.32901e-08
2.32511e-08
2.31576e-08
2.31122e-08
2.30732e-08
2.30219e-08
2.3006e-08
2.29561e-08
2.29552e-08
2.29412e-08
2.29434e-08
2.29348e-08
2.29376e-08
2.29325e-08
2.29349e-08
2.29322e-08
2.29334e-08
2.29325e-08
2.29325e-08
2.29334e-08
2.29321e-08
2.29349e-08
2.29324e-08
2.29376e-08
2.29348e-08
2.29434e-08
2.29412e-08
2.29553e-08
2.29563e-08
2.30062e-08
2.30222e-08
2.30734e-08
2.31123e-08
2.31576e-08
2.32508e-08
2.32897e-08
2.35169e-08
2.36033e-08
2.40186e-08
2.43615e-08
2.49325e-08
2.58027e-08
2.66071e-08
1.84494e-08
1.7851e-08
1.72236e-08
1.67987e-08
1.6594e-08
1.62808e-08
1.61971e-08
1.60295e-08
1.60038e-08
1.59373e-08
1.59058e-08
1.58784e-08
1.58392e-08
1.58325e-08
1.58385e-08
1.58383e-08
1.58282e-08
1.58298e-08
1.58236e-08
1.58257e-08
1.5822e-08
1.58237e-08
1.58218e-08
1.58228e-08
1.58221e-08
1.58221e-08
1.58228e-08
1.58218e-08
1.58237e-08
1.58219e-08
1.58256e-08
1.58236e-08
1.58298e-08
1.58282e-08
1.58383e-08
1.58387e-08
1.58326e-08
1.58394e-08
1.58785e-08
1.59059e-08
1.59373e-08
1.60036e-08
1.60293e-08
1.61967e-08
1.62803e-08
1.65936e-08
1.67981e-08
1.72229e-08
1.78497e-08
1.8449e-08
1.24173e-08
1.19947e-08
1.15605e-08
1.12643e-08
1.11244e-08
1.09088e-08
1.08569e-08
1.07357e-08
1.07202e-08
1.06748e-08
1.06543e-08
1.0636e-08
1.06068e-08
1.06055e-08
1.06049e-08
1.06049e-08
1.05979e-08
1.05991e-08
1.05947e-08
1.05961e-08
1.05935e-08
1.05947e-08
1.05934e-08
1.05942e-08
1.05938e-08
1.05938e-08
1.05942e-08
1.05934e-08
1.05947e-08
1.05935e-08
1.05961e-08
1.05947e-08
1.05991e-08
1.05979e-08
1.0605e-08
1.0605e-08
1.06056e-08
1.06069e-08
1.06361e-08
1.06543e-08
1.06747e-08
1.072e-08
1.07355e-08
1.08566e-08
1.09085e-08
1.11241e-08
1.12639e-08
1.15601e-08
1.19937e-08
1.2417e-08
8.09209e-09
7.80063e-09
7.51195e-09
7.3144e-09
7.21125e-09
7.06105e-09
7.02936e-09
6.96297e-09
6.95484e-09
6.92533e-09
6.9129e-09
6.90157e-09
6.87948e-09
6.88019e-09
6.87743e-09
6.87765e-09
6.87291e-09
6.87372e-09
6.87077e-09
6.8717e-09
6.86987e-09
6.87056e-09
6.86941e-09
6.8697e-09
6.86932e-09
6.86931e-09
6.86969e-09
6.86938e-09
6.87053e-09
6.86983e-09
6.87167e-09
6.87075e-09
6.87372e-09
6.8729e-09
6.87767e-09
6.87749e-09
6.88026e-09
6.87955e-09
6.90163e-09
6.91294e-09
6.92528e-09
6.95475e-09
6.96284e-09
7.02923e-09
7.06084e-09
7.21101e-09
7.31414e-09
7.51172e-09
7.80003e-09
8.09186e-09
5.06303e-09
4.89996e-09
4.69934e-09
4.56066e-09
4.52086e-09
4.42538e-09
4.4078e-09
4.3559e-09
4.34663e-09
4.32447e-09
4.31477e-09
4.30631e-09
4.28653e-09
4.28642e-09
4.28312e-09
4.28302e-09
4.27999e-09
4.2805e-09
4.2786e-09
4.27916e-09
4.27795e-09
4.27833e-09
4.27759e-09
4.27778e-09
4.27754e-09
4.27754e-09
4.27778e-09
4.27758e-09
4.27831e-09
4.27793e-09
4.27914e-09
4.27858e-09
4.28049e-09
4.27999e-09
4.28303e-09
4.28317e-09
4.28648e-09
4.28658e-09
4.30635e-09
4.31483e-09
4.32444e-09
4.34657e-09
4.3558e-09
4.40773e-09
4.42525e-09
4.52071e-09
4.56048e-09
4.69921e-09
4.89964e-09
5.06284e-09
3.06487e-09
2.95065e-09
2.83894e-09
2.75242e-09
2.71904e-09
2.65613e-09
2.64536e-09
2.61311e-09
2.60761e-09
2.59398e-09
2.58836e-09
2.5836e-09
2.58549e-09
2.58543e-09
2.58302e-09
2.58302e-09
2.58114e-09
2.58145e-09
2.58026e-09
2.58059e-09
2.57982e-09
2.58004e-09
2.57958e-09
2.5797e-09
2.57955e-09
2.57955e-09
2.5797e-09
2.57957e-09
2.58003e-09
2.5798e-09
2.58058e-09
2.58025e-09
2.58145e-09
2.58114e-09
2.58302e-09
2.58305e-09
2.58546e-09
2.58553e-09
2.58363e-09
2.58839e-09
2.59397e-09
2.60757e-09
2.61305e-09
2.64533e-09
2.65605e-09
2.71895e-09
2.75231e-09
2.83887e-09
2.95037e-09
3.06473e-09
1.78068e-09
1.71206e-09
1.64644e-09
1.59479e-09
1.57572e-09
1.53859e-09
1.53294e-09
1.51358e-09
1.51056e-09
1.50234e-09
1.49923e-09
1.49666e-09
1.49765e-09
1.49753e-09
1.496e-09
1.49603e-09
1.49492e-09
1.4951e-09
1.49439e-09
1.49457e-09
1.49411e-09
1.49424e-09
1.49397e-09
1.49404e-09
1.49395e-09
1.49395e-09
1.49403e-09
1.49396e-09
1.49423e-09
1.4941e-09
1.49457e-09
1.49438e-09
1.4951e-09
1.49492e-09
1.49604e-09
1.49602e-09
1.49755e-09
1.49767e-09
1.49668e-09
1.49925e-09
1.50233e-09
1.51054e-09
1.51355e-09
1.53293e-09
1.53854e-09
1.57566e-09
1.59473e-09
1.6464e-09
1.71191e-09
1.7806e-09
9.88676e-10
9.49488e-10
9.12722e-10
8.83372e-10
8.73155e-10
8.52317e-10
8.49395e-10
8.38532e-10
8.37007e-10
8.32133e-10
8.3052e-10
8.29191e-10
8.29631e-10
8.29498e-10
8.28618e-10
8.28654e-10
8.28029e-10
8.28126e-10
8.27722e-10
8.27821e-10
8.27558e-10
8.27628e-10
8.27477e-10
8.27517e-10
8.27467e-10
8.27467e-10
8.27516e-10
8.27474e-10
8.27624e-10
8.27552e-10
8.27816e-10
8.27719e-10
8.28125e-10
8.28028e-10
8.28656e-10
8.28628e-10
8.29511e-10
8.29644e-10
8.29202e-10
8.30529e-10
8.32129e-10
8.36994e-10
8.38513e-10
8.49394e-10
8.5229e-10
8.73125e-10
8.83338e-10
9.12698e-10
9.49415e-10
9.8863e-10
5.22728e-10
5.0164e-10
4.81956e-10
4.66196e-10
4.61208e-10
4.50192e-10
4.48554e-10
4.43043e-10
4.42381e-10
4.39418e-10
4.38633e-10
4.37977e-10
4.38138e-10
4.38031e-10
4.37563e-10
4.37593e-10
4.37263e-10
4.37312e-10
4.37096e-10
4.37146e-10
4.37006e-10
4.37044e-10
4.36964e-10
4.36985e-10
4.36959e-10
4.36959e-10
4.36985e-10
4.36962e-10
4.37041e-10
4.37004e-10
4.37144e-10
4.37095e-10
4.37311e-10
4.37262e-10
4.37594e-10
4.37568e-10
4.38038e-10
4.38146e-10
4.37983e-10
4.38637e-10
4.39415e-10
4.42374e-10
4.43033e-10
4.48553e-10
4.50177e-10
4.61192e-10
4.66178e-10
4.81941e-10
5.01606e-10
5.22705e-10
2.61861e-10
2.51383e-10
2.4247e-10
2.34518e-10
2.31571e-10
2.25954e-10
2.25896e-10
2.22493e-10
2.22279e-10
2.21402e-10
2.21048e-10
2.20739e-10
2.20781e-10
2.2071e-10
2.20479e-10
2.205e-10
2.20337e-10
2.2036e-10
2.20253e-10
2.20277e-10
2.20208e-10
2.20226e-10
2.20187e-10
2.20197e-10
2.20184e-10
2.20184e-10
2.20197e-10
2.20186e-10
2.20225e-10
2.20206e-10
2.20275e-10
2.20252e-10
2.2036e-10
2.20337e-10
2.205e-10
2.20482e-10
2.20714e-10
2.20785e-10
2.20743e-10
2.2105e-10
2.21401e-10
2.22276e-10
2.22489e-10
2.25889e-10
2.25946e-10
2.31563e-10
2.34509e-10
2.42462e-10
2.51367e-10
2.6185e-10
1.26075e-10
1.21148e-10
1.17017e-10
1.13261e-10
1.11936e-10
1.09297e-10
1.09291e-10
1.07739e-10
1.07695e-10
1.07234e-10
1.07085e-10
1.06946e-10
1.06947e-10
1.06906e-10
1.068e-10
1.06812e-10
1.06738e-10
1.06748e-10
1.06698e-10
1.06708e-10
1.06676e-10
1.06685e-10
1.06667e-10
1.06672e-10
1.06666e-10
1.06666e-10
1.06671e-10
1.06666e-10
1.06684e-10
1.06676e-10
1.06708e-10
1.06697e-10
1.06747e-10
1.06738e-10
1.06812e-10
1.06801e-10
1.06907e-10
1.06949e-10
1.06948e-10
1.07086e-10
1.07233e-10
1.07694e-10
1.07737e-10
1.09286e-10
1.09293e-10
1.11932e-10
1.13257e-10
1.17013e-10
1.21141e-10
1.2607e-10
5.88436e-11
5.6633e-11
5.48226e-11
5.31166e-11
5.2545e-11
5.1412e-11
5.14154e-11
5.06843e-11
5.0683e-11
5.0455e-11
5.03957e-11
5.03349e-11
5.03267e-11
5.03039e-11
5.02573e-11
5.0264e-11
5.02326e-11
5.02363e-11
5.02143e-11
5.02187e-11
5.02047e-11
5.02083e-11
5.02003e-11
5.02024e-11
5.01998e-11
5.01998e-11
5.02024e-11
5.02002e-11
5.02081e-11
5.02044e-11
5.02184e-11
5.02141e-11
5.02363e-11
5.02326e-11
5.02635e-11
5.02579e-11
5.03047e-11
5.03278e-11
5.03356e-11
5.03961e-11
5.04548e-11
5.06823e-11
5.06833e-11
5.14127e-11
5.14104e-11
5.25433e-11
5.31148e-11
5.48207e-11
5.66302e-11
5.88412e-11
2.68539e-11
2.59015e-11
2.51407e-11
2.44033e-11
2.41692e-11
2.36851e-11
2.36891e-11
2.33791e-11
2.33835e-11
2.32782e-11
2.32558e-11
2.32297e-11
2.32223e-11
2.32103e-11
2.31907e-11
2.31936e-11
2.31822e-11
2.31835e-11
2.31742e-11
2.3176e-11
2.31701e-11
2.31716e-11
2.31682e-11
2.31691e-11
2.3168e-11
2.3168e-11
2.31691e-11
2.31682e-11
2.31715e-11
2.317e-11
2.31759e-11
2.31742e-11
2.31835e-11
2.31822e-11
2.31932e-11
2.31909e-11
2.32106e-11
2.32229e-11
2.323e-11
2.32559e-11
2.32781e-11
2.33832e-11
2.33787e-11
2.3688e-11
2.36845e-11
2.41685e-11
2.44025e-11
2.51398e-11
2.59004e-11
2.6853e-11
1.18546e-11
1.14529e-11
1.11447e-11
1.08355e-11
1.0743e-11
1.05421e-11
1.0545e-11
1.04169e-11
1.042e-11
1.03734e-11
1.03654e-11
1.03544e-11
1.03489e-11
1.03424e-11
1.03344e-11
1.03351e-11
1.03331e-11
1.03335e-11
1.03298e-11
1.03304e-11
1.0328e-11
1.03286e-11
1.03272e-11
1.03276e-11
1.03271e-11
1.03271e-11
1.03275e-11
1.03272e-11
1.03285e-11
1.0328e-11
1.03303e-11
1.03297e-11
1.03335e-11
1.03331e-11
1.0335e-11
1.03345e-11
1.03426e-11
1.03493e-11
1.03545e-11
1.03655e-11
1.03734e-11
1.04198e-11
1.04167e-11
1.05446e-11
1.05418e-11
1.07427e-11
1.08352e-11
1.11444e-11
1.14525e-11
1.18542e-11
4.83951e-12
4.67776e-12
4.55997e-12
4.43618e-12
4.40155e-12
4.32235e-12
4.32399e-12
4.27341e-12
4.27491e-12
4.25542e-12
4.25279e-12
4.24833e-12
4.24786e-12
4.24669e-12
4.24359e-12
4.24318e-12
4.2393e-12
4.23935e-12
4.23794e-12
4.23813e-12
4.23724e-12
4.23743e-12
4.23693e-12
4.23704e-12
4.23687e-12
4.23687e-12
4.23704e-12
4.23691e-12
4.23742e-12
4.23722e-12
4.23811e-12
4.23793e-12
4.23935e-12
4.2393e-12
4.24321e-12
4.24363e-12
4.24674e-12
4.24782e-12
4.24838e-12
4.25282e-12
4.2554e-12
4.27486e-12
4.27334e-12
4.32385e-12
4.32225e-12
4.40143e-12
4.43606e-12
4.55982e-12
4.67758e-12
4.83936e-12
1.68059e-12
1.62311e-12
1.58489e-12
1.54258e-12
1.5319e-12
1.50513e-12
1.50592e-12
1.48869e-12
1.48933e-12
1.4821e-12
1.48139e-12
1.47982e-12
1.47955e-12
1.47909e-12
1.47806e-12
1.47766e-12
1.47659e-12
1.47658e-12
1.47613e-12
1.47617e-12
1.47589e-12
1.47594e-12
1.47578e-12
1.47581e-12
1.47576e-12
1.47576e-12
1.47581e-12
1.47577e-12
1.47593e-12
1.47588e-12
1.47616e-12
1.47612e-12
1.47657e-12
1.47659e-12
1.47769e-12
1.47807e-12
1.47911e-12
1.47954e-12
1.47984e-12
1.4814e-12
1.4821e-12
1.48932e-12
1.48866e-12
1.50588e-12
1.5051e-12
1.53186e-12
1.54254e-12
1.58484e-12
1.62305e-12
1.68054e-12
4.29416e-13
4.14408e-13
4.06065e-13
3.95478e-13
3.92484e-13
3.85925e-13
3.86119e-13
3.81864e-13
3.82049e-13
3.80657e-13
3.80523e-13
3.80113e-13
3.80031e-13
3.79889e-13
3.79638e-13
3.79495e-13
3.79279e-13
3.79265e-13
3.79161e-13
3.79167e-13
3.79101e-13
3.7911e-13
3.79073e-13
3.7908e-13
3.79067e-13
3.79067e-13
3.7908e-13
3.79072e-13
3.79109e-13
3.79099e-13
3.79165e-13
3.7916e-13
3.79265e-13
3.79279e-13
3.79503e-13
3.79642e-13
3.79893e-13
3.80028e-13
3.80117e-13
3.80525e-13
3.80655e-13
3.82045e-13
3.81859e-13
3.86111e-13
3.85916e-13
3.92475e-13
3.95467e-13
4.06052e-13
4.14393e-13
4.29403e-13
6.46889e-14
6.25299e-14
6.14475e-14
5.99798e-14
5.957e-14
5.86693e-14
5.86919e-14
5.81058e-14
5.81322e-14
5.79374e-14
5.79222e-14
5.78628e-14
5.78508e-14
5.78269e-14
5.77932e-14
5.77704e-14
5.77442e-14
5.77408e-14
5.77274e-14
5.77273e-14
5.77188e-14
5.77196e-14
5.77148e-14
5.77156e-14
5.77139e-14
5.77138e-14
5.77155e-14
5.77147e-14
5.77195e-14
5.77185e-14
5.7727e-14
5.77272e-14
5.77408e-14
5.77441e-14
5.77712e-14
5.77937e-14
5.78275e-14
5.78505e-14
5.78633e-14
5.79225e-14
5.79372e-14
5.81317e-14
5.81051e-14
5.86908e-14
5.86682e-14
5.95688e-14
5.99784e-14
6.14458e-14
6.25278e-14
6.46871e-14
)
;

boundaryField
{
    fuel
    {
        type            fixedValue;
        value           nonuniform 0();
    }
    wall
    {
        type            zeroGradient;
    }
    outlet
    {
        type            zeroGradient;
    }
    frontAndBack
    {
        type            empty;
    }
    procBoundary3to2
    {
        type            processor;
        value           nonuniform List<scalar> 
51
(
2.11764e-06
2.11605e-06
2.1153e-06
2.11428e-06
2.11399e-06
2.11335e-06
2.11327e-06
2.11288e-06
2.11289e-06
2.11266e-06
2.1127e-06
2.11258e-06
2.1126e-06
2.11256e-06
2.11256e-06
2.1126e-06
2.11257e-06
2.1127e-06
2.11266e-06
2.11289e-06
2.11288e-06
2.11327e-06
2.11335e-06
2.114e-06
2.11428e-06
2.11531e-06
2.11606e-06
2.11765e-06
2.11947e-06
2.12218e-06
2.12649e-06
2.13141e-06
2.14023e-06
2.14924e-06
2.16681e-06
2.18679e-06
2.2096e-06
2.24797e-06
2.27004e-06
2.02687e-06
2.00615e-06
1.97031e-06
1.94927e-06
1.93112e-06
1.91508e-06
1.90683e-06
1.89879e-06
1.89435e-06
1.89041e-06
1.88797e-06
1.88797e-06
)
;
    }
}


// ************************************************************************* //
