/*--------------------------------*- C++ -*----------------------------------*\
| =========                 |                                                 |
| \\      /  F ield         | OpenFOAM: The Open Source CFD Toolbox           |
|  \\    /   O peration     | Version:  dev                                   |
|   \\  /    A nd           | Web:      www.OpenFOAM.org                      |
|    \\/     M anipulation  |                                                 |
\*---------------------------------------------------------------------------*/
FoamFile
{
    version     2.0;
    format      ascii;
    class       volVectorField;
    location    "0.09";
    object      U;
}
// * * * * * * * * * * * * * * * * * * * * * * * * * * * * * * * * * * * * * //

dimensions      [0 1 -1 0 0 0 0];

internalField   nonuniform List<vector> 
250
(
(0 0.000980617 0.491569)
(0 -0.000832051 0.491962)
(0 -0.0138324 0.491586)
(0 -0.0192452 0.49172)
(0 -0.0252986 0.491877)
(0 -0.0424573 0.491178)
(0 -0.0307423 0.492491)
(0 -0.0715293 0.49128)
(0 0.000970474 0.491785)
(0 -0.102664 0.478435)
(0 0.0767957 0.110505)
(0 0.00218883 0.689573)
(0 -3.84181e-05 0.690502)
(0 -0.0258662 0.689603)
(0 -0.0328033 0.690047)
(0 -0.0480705 0.690125)
(0 -0.0743435 0.689148)
(0 -0.0579465 0.691214)
(0 -0.127577 0.69064)
(0 0.00224657 0.690856)
(0 -0.168101 0.686823)
(0 0.269192 0.118675)
(0 0.00377332 0.733795)
(0 0.00186358 0.735362)
(0 -0.037893 0.733899)
(0 -0.0437989 0.734841)
(0 -0.0716451 0.735295)
(0 -0.101345 0.734284)
(0 -0.0862774 0.737002)
(0 -0.177026 0.738373)
(0 -0.000277537 0.737116)
(0 -0.225708 0.76536)
(0 0.393439 0.118959)
(0 0.00549518 0.72672)
(0 0.00413284 0.728832)
(0 -0.0482482 0.726943)
(0 -0.0517471 0.728281)
(0 -0.0955962 0.728161)
(0 -0.124349 0.727395)
(0 -0.116766 0.730052)
(0 -0.220496 0.735401)
(0 -0.00825388 0.731769)
(0 -0.283707 0.801065)
(0 0.45426 0.135639)
(0 0.00790958 0.720689)
(0 0.00720858 0.723351)
(0 -0.059864 0.721104)
(0 -0.0593432 0.722711)
(0 -0.121011 0.722158)
(0 -0.143984 0.721993)
(0 -0.149593 0.724032)
(0 -0.258025 0.735036)
(0 -0.025571 0.727102)
(0 -0.342554 0.838841)
(0 0.472158 0.169638)
(0 0.0108113 0.718642)
(0 0.0105583 0.721745)
(0 -0.0712217 0.719313)
(0 -0.0659958 0.720991)
(0 -0.146809 0.720181)
(0 -0.160955 0.720693)
(0 -0.184535 0.721786)
(0 -0.289868 0.739622)
(0 -0.0522372 0.725611)
(0 -0.4005 0.879282)
(0 0.46163 0.216755)
(0 0.0141858 0.716314)
(0 0.0139611 0.719735)
(0 -0.0821781 0.717312)
(0 -0.0721628 0.718836)
(0 -0.172562 0.718123)
(0 -0.176113 0.719288)
(0 -0.221179 0.719323)
(0 -0.316655 0.744708)
(0 -0.0883195 0.722973)
(0 -0.455491 0.917525)
(0 0.429836 0.27416)
(0 0.0179836 0.712659)
(0 0.017209 0.716258)
(0 -0.0926445 0.714053)
(0 -0.0782838 0.715175)
(0 -0.197903 0.71487)
(0 -0.190282 0.716534)
(0 -0.259107 0.715626)
(0 -0.339423 0.748786)
(0 -0.133245 0.718165)
(0 -0.505743 0.951607)
(0 0.378708 0.340695)
(0 0.022118 0.70804)
(0 0.0201223 0.711677)
(0 -0.1026 0.709899)
(0 -0.0847451 0.710366)
(0 -0.222585 0.710786)
(0 -0.204302 0.712686)
(0 -0.297643 0.711135)
(0 -0.359704 0.751882)
(0 -0.18585 0.711738)
(0 -0.549962 0.980723)
(0 0.306044 0.414625)
(0 0.0264717 0.70277)
(0 0.0225519 0.706301)
(0 -0.112084 0.705153)
(0 -0.0918623 0.704728)
(0 -0.246475 0.706196)
(0 -0.21892 0.708009)
(0 -0.336168 0.706237)
(0 -0.379155 0.754007)
(0 -0.244574 0.704275)
(0 -0.587642 1.00266)
(0 0.205636 0.490546)
(0 0.0243852 0.700218)
(0 -0.12118 0.69988)
(0 -0.0998653 0.698365)
(0 -0.269538 0.701187)
(0 -0.234733 0.702571)
(0 -0.374207 0.701061)
(0 -0.399334 0.754992)
(0 -0.307568 0.696154)
(0 -0.620631 1.01651)
(0 0.0724104 0.553935)
(0 0.0255505 0.693443)
(0 -0.129992 0.694059)
(0 -0.108892 0.691301)
(0 -0.291812 0.695743)
(0 -0.252145 0.696374)
(0 -0.411449 0.695657)
(0 -0.421525 0.754622)
(0 -0.37302 0.687656)
(0 -0.650586 1.02332)
(0 -0.0639011 0.594822)
(0 0.0260175 0.685994)
(0 -0.138627 0.687675)
(0 -0.118987 0.683551)
(0 -0.31338 0.689817)
(0 -0.27136 0.68941)
(0 -0.447719 0.689892)
(0 -0.446641 0.752862)
(0 -0.439378 0.678998)
(0 -0.679531 1.02499)
(0 -0.191679 0.612138)
(0 0.0257935 0.677892)
(0 -0.147177 0.680718)
(0 -0.130117 0.675134)
(0 -0.334342 0.683367)
(0 -0.2924 0.681686)
(0 -0.483011 0.683705)
(0 -0.475103 0.749642)
(0 -0.505446 0.670307)
(0 -0.709995 1.02306)
(0 -0.325941 0.621417)
(0 0.0249188 0.669144)
(0 -0.155709 0.673169)
(0 -0.142184 0.666072)
(0 -0.354793 0.676353)
(0 -0.315134 0.673229)
(0 -0.517377 0.67705)
(0 -0.506947 0.744928)
(0 -0.570333 0.66161)
(0 -0.74389 1.01818)
(0 -0.462021 0.625073)
(0 0.0234595 0.659756)
(0 -0.164265 0.665005)
(0 -0.155047 0.656385)
(0 -0.374811 0.668739)
(0 -0.33932 0.664063)
(0 -0.550882 0.669841)
(0 -0.541904 0.738762)
(0 -0.633422 0.652852)
(0 -0.782259 1.01049)
(0 -0.596107 0.623354)
(0 0.0214984 0.649737)
(0 -0.17286 0.656212)
(0 -0.168541 0.646087)
(0 -0.394453 0.660491)
(0 -0.36465 0.654201)
(0 -0.58359 0.662004)
(0 -0.579471 0.731184)
(0 -0.694298 0.643926)
(0 -0.825328 1.00021)
(0 -0.725298 0.617227)
(0 0.0191267 0.639095)
(0 -0.181486 0.646774)
(0 -0.182493 0.63519)
(0 -0.413752 0.651578)
(0 -0.390792 0.643649)
(0 -0.615535 0.65345)
(0 -0.619019 0.722279)
(0 -0.75275 0.634701)
(0 -0.872673 0.987821)
(0 -0.847497 0.608086)
(0 0.0164384 0.627833)
(0 -0.190113 0.636687)
(0 -0.196725 0.623688)
(0 -0.432735 0.641972)
(0 -0.417426 0.632423)
(0 -0.646692 0.644006)
(0 -0.659891 0.712225)
(0 -0.80871 0.625037)
(0 -0.923412 0.973566)
(0 -0.961351 0.597206)
(0 0.0135231 0.615949)
(0 -0.198704 0.625923)
(0 -0.211069 0.611596)
(0 -0.451406 0.631648)
(0 -0.444252 0.620542)
(0 -0.677058 0.633825)
(0 -0.701396 0.70089)
(0 -0.862216 0.614798)
(0 -0.976407 0.957636)
(0 -1.06618 0.585581)
(0 0.0104613 0.603444)
(0 -0.207218 0.614474)
(0 -0.225387 0.598924)
(0 -0.469741 0.620581)
(0 -0.470998 0.608024)
(0 -0.706633 0.622827)
(0 -0.742845 0.68839)
(0 -0.91341 0.603876)
(0 -1.03046 0.940211)
(0 -1.16186 0.573921)
(0 0.00732279 0.590336)
(0 -0.215616 0.602347)
(0 -0.239558 0.585683)
(0 -0.487681 0.608796)
(0 -0.497417 0.59486)
(0 -0.735444 0.610986)
(0 -0.783532 0.674835)
(0 -0.962556 0.592168)
(0 -1.08448 0.921513)
(0 -1.24873 0.562686)
(0 0.00416786 0.576626)
(0 -0.223853 0.589538)
(0 -0.253478 0.571842)
(0 -0.505188 0.596257)
(0 -0.523284 0.581058)
(0 -0.763496 0.598289)
(0 -0.823059 0.660239)
(0 -1.0097 0.579666)
(0 -1.13753 0.901776)
(0 -1.32744 0.552113)
(0 0.00104671 0.562297)
(0 -0.23189 0.576029)
(0 -0.267061 0.557384)
(0 -0.522224 0.582956)
(0 -0.548446 0.566595)
(0 -0.790753 0.58473)
(0 -0.861145 0.644641)
(0 -1.05481 0.566296)
(0 -1.18898 0.880803)
(0 -1.39885 0.542242)
)
;

boundaryField
{
    fuel
    {
        type            fixedValue;
        value           uniform (0 0 0.1055);
    }
    wall
    {
        type            slip;
    }
    outlet
    {
        type            pressureInletOutletVelocity;
        value           nonuniform List<vector> 
24
(
(0 0.0767957 0)
(0 0.269192 0)
(0 0.393439 0)
(0 0.45426 0)
(0 0.472158 0)
(0 0.46163 0)
(0 0.429836 0)
(0 0.378708 0)
(0 0.306044 0)
(0 0.205636 0)
(0 0.0724104 0)
(0 -0.0639011 0.594822)
(0 -0.191679 0.612138)
(0 -0.325941 0.621417)
(0 -0.462021 0.625073)
(0 -0.596107 0.623354)
(0 -0.725298 0.617227)
(0 -0.847497 0.608086)
(0 -0.961351 0.597206)
(0 -1.06618 0.585581)
(0 -1.16186 0.573921)
(0 -1.24873 0.562686)
(0 -1.32744 0.552113)
(0 -1.39885 0.542242)
)
;
    }
    frontAndBack
    {
        type            empty;
    }
    procBoundary3to0
    {
        type            processor;
        value           nonuniform List<vector> 10((0 -0.00199996 0.547338) (0 -0.23969 0.56183) (0 -0.280236 0.54233) (0 -0.538749 0.568907) (0 -0.57278 0.551495) (0 -0.817172 0.570353) (0 -0.897609 0.628102) (0 -1.09783 0.552036) (0 -1.23838 0.858721) (0 -1.46396 0.532926));
    }
    procBoundary3to2
    {
        type            processor;
        value           nonuniform List<vector> 
25
(
(0 0.0172511 0.491891)
(0 0.0324519 0.690288)
(0 0.0476676 0.735091)
(0 0.0607564 0.728527)
(0 0.0754877 0.723007)
(0 0.0900429 0.721349)
(0 0.10432 0.71928)
(0 0.118229 0.715779)
(0 0.131699 0.711217)
(0 0.144673 0.705907)
(0 0.030912 0.696935)
(0 0.030912 0.696935)
(0 0.0353066 0.690533)
(0 0.0395369 0.683551)
(0 0.0435075 0.675979)
(0 0.0471528 0.66781)
(0 0.0504381 0.659038)
(0 0.0533563 0.649657)
(0 0.0559217 0.639668)
(0 0.0581649 0.629071)
(0 0.060126 0.617842)
(0 0.0618491 0.605952)
(0 0.0633763 0.593407)
(0 0.064746 0.580211)
(0 0.0659913 0.566351)
)
;
    }
}


// ************************************************************************* //
