/*--------------------------------*- C++ -*----------------------------------*\
| =========                 |                                                 |
| \\      /  F ield         | OpenFOAM: The Open Source CFD Toolbox           |
|  \\    /   O peration     | Version:  dev                                   |
|   \\  /    A nd           | Web:      www.OpenFOAM.org                      |
|    \\/     M anipulation  |                                                 |
\*---------------------------------------------------------------------------*/
FoamFile
{
    version     2.0;
    format      ascii;
    class       volVectorField;
    location    "0.03";
    object      U;
}
// * * * * * * * * * * * * * * * * * * * * * * * * * * * * * * * * * * * * * //

dimensions      [0 1 -1 0 0 0 0];

internalField   nonuniform List<vector> 
13
(
(-4.51486e-05 -3.14202e-11 0.0907756)
(-4.43101e-05 -3.13896e-11 0.0916526)
(-4.34458e-05 -3.13444e-11 0.092517)
(-4.2556e-05 -3.12953e-11 0.0933777)
(-4.16423e-05 -3.12498e-11 0.0942294)
(-4.07019e-05 -3.1193e-11 0.0950801)
(-3.97376e-05 -3.1369e-11 0.0959214)
(-3.87468e-05 -2.9732e-11 0.0967487)
(-3.77335e-05 -2.8275e-11 0.0975484)
(-3.66962e-05 -2.67918e-11 0.098284)
(-3.56344e-05 -2.5306e-11 0.0989538)
(-3.45487e-05 -2.38639e-11 0.0995739)
(-3.3439e-05 -2.21302e-11 0.100225)
)
;

boundaryField
{
    front
    {
        type            wedge;
    }
    back
    {
        type            wedge;
    }
    wall
    {
        type            zeroGradient;
    }
    fuel
    {
        type            fixedValue;
        value           nonuniform 0();
    }
    outlet
    {
        type            pressureInletOutletVelocity;
        value           nonuniform 0();
    }
    axis
    {
        type            empty;
    }
    procBoundary5to4
    {
        type            processor;
        value           uniform (-4.59609e-05 -3.14233e-11 0.0898831);
    }
    procBoundary5to6
    {
        type            processor;
        value           uniform (-3.23112e-05 -2.24235e-11 0.100965);
    }
}


// ************************************************************************* //
