/*--------------------------------*- C++ -*----------------------------------*\
| =========                 |                                                 |
| \\      /  F ield         | OpenFOAM: The Open Source CFD Toolbox           |
|  \\    /   O peration     | Version:  dev                                   |
|   \\  /    A nd           | Web:      www.OpenFOAM.org                      |
|    \\/     M anipulation  |                                                 |
\*---------------------------------------------------------------------------*/
FoamFile
{
    version     2.0;
    format      ascii;
    class       volScalarField;
    location    "0.145";
    object      A1C2H22;
}
// * * * * * * * * * * * * * * * * * * * * * * * * * * * * * * * * * * * * * //

dimensions      [0 0 0 0 0 0 0];

internalField   nonuniform List<scalar> 
50
(
1.61575e-08
1.44299e-08
6.75283e-09
2.83458e-09
1.143e-09
4.52875e-10
1.7701e-10
6.84659e-11
2.62972e-11
1.01039e-11
3.86063e-12
1.48082e-12
5.76938e-13
2.34033e-13
1.03443e-13
5.29393e-14
3.26868e-14
2.37731e-14
1.92153e-14
1.63763e-14
1.42806e-14
1.25527e-14
1.10556e-14
9.7425e-15
8.57448e-15
7.54381e-15
6.62958e-15
5.8226e-15
5.11593e-15
4.49396e-15
3.94754e-15
3.47048e-15
3.05211e-15
2.68372e-15
2.36019e-15
2.07599e-15
1.82629e-15
1.60683e-15
1.41388e-15
1.24418e-15
1.09487e-15
9.63462e-16
8.47764e-16
7.45865e-16
6.56086e-16
5.7696e-16
5.07209e-16
4.45731e-16
3.91604e-16
3.44078e-16
)
;

boundaryField
{
    wall
    {
        type            zeroGradient;
    }
    fuel
    {
        type            fixedValue;
        value           uniform 0;
    }
    outlet
    {
        type            inletOutlet;
        inletValue      nonuniform 0();
        value           nonuniform 0();
    }
    procBoundary0to1
    {
        type            processor;
        value           uniform 3.02597e-16;
    }
}


// ************************************************************************* //
