/*--------------------------------*- C++ -*----------------------------------*\
| =========                 |                                                 |
| \\      /  F ield         | OpenFOAM: The Open Source CFD Toolbox           |
|  \\    /   O peration     | Version:  dev                                   |
|   \\  /    A nd           | Web:      www.OpenFOAM.org                      |
|    \\/     M anipulation  |                                                 |
\*---------------------------------------------------------------------------*/
FoamFile
{
    version     2.0;
    format      ascii;
    class       volScalarField;
    location    "0.145";
    object      A2C2HA;
}
// * * * * * * * * * * * * * * * * * * * * * * * * * * * * * * * * * * * * * //

dimensions      [0 0 0 0 0 0 0];

internalField   nonuniform List<scalar> 
250
(
3.40226e-10
3.41157e-10
3.40991e-10
3.42646e-10
3.42421e-10
3.51013e-10
3.83696e-10
4.91424e-10
1.04955e-09
2.02924e-09
3.26765e-10
3.27495e-10
3.27355e-10
3.28787e-10
3.28706e-10
3.36614e-10
3.66916e-10
4.68097e-10
9.50933e-10
1.87997e-09
1.01725e-08
1.40069e-09
5.07403e-10
3.52571e-10
3.24572e-10
3.18308e-10
3.18036e-10
3.18178e-10
3.17587e-10
3.17692e-10
3.17616e-10
3.1803e-10
3.18099e-10
3.19123e-10
3.19242e-10
3.26374e-10
3.54457e-10
4.50216e-10
8.69048e-10
1.76897e-09
8.46082e-09
1.25812e-09
4.85934e-10
3.45758e-10
3.19243e-10
3.13721e-10
3.13371e-10
3.13637e-10
3.1306e-10
3.13262e-10
3.13234e-10
3.13191e-10
3.13616e-10
3.14055e-10
3.14439e-10
3.20792e-10
3.46579e-10
4.3801e-10
8.16647e-10
1.69268e-09
7.02274e-09
1.13915e-09
4.70954e-10
3.44424e-10
3.1919e-10
3.14473e-10
3.14025e-10
3.14487e-10
3.13882e-10
3.14201e-10
3.14285e-10
3.13638e-10
3.14562e-10
3.14232e-10
3.14954e-10
3.20469e-10
3.4392e-10
4.31934e-10
7.80447e-10
1.64607e-09
5.77992e-09
1.04971e-09
4.63276e-10
3.49456e-10
3.25304e-10
3.21459e-10
3.20892e-10
3.21625e-10
3.20947e-10
3.21406e-10
3.21664e-10
3.20256e-10
3.21834e-10
3.20542e-10
3.21683e-10
3.26219e-10
3.47391e-10
4.32705e-10
7.58139e-10
1.62436e-09
4.65013e-09
9.80046e-10
4.63772e-10
3.61866e-10
3.38586e-10
3.35706e-10
3.34994e-10
3.36068e-10
3.35276e-10
3.35898e-10
3.36383e-10
3.3406e-10
3.36447e-10
3.34014e-10
3.35655e-10
3.3907e-10
3.58022e-10
4.41187e-10
7.48612e-10
1.62309e-09
3.85583e-09
9.29574e-10
4.73217e-10
3.82539e-10
3.59894e-10
3.58108e-10
3.5723e-10
3.58697e-10
3.57752e-10
3.58555e-10
3.59308e-10
3.55951e-10
3.59271e-10
3.55576e-10
3.57778e-10
3.59954e-10
3.77363e-10
4.59543e-10
7.51218e-10
1.63773e-09
3.18689e-09
8.96225e-10
4.91923e-10
4.11824e-10
3.90649e-10
3.89e-10
3.87946e-10
3.89811e-10
3.88694e-10
3.89682e-10
3.90713e-10
3.86299e-10
3.90583e-10
3.85628e-10
3.88408e-10
3.90275e-10
4.04907e-10
4.85491e-10
7.65041e-10
1.66284e-09
2.68097e-09
8.76318e-10
5.2066e-10
4.48956e-10
4.28464e-10
4.27621e-10
4.26404e-10
4.28605e-10
4.27329e-10
4.28476e-10
4.2975e-10
4.24414e-10
4.29545e-10
4.23516e-10
4.26811e-10
4.27696e-10
4.40615e-10
5.21309e-10
7.88375e-10
1.69153e-09
2.28508e-09
8.67429e-10
5.54957e-10
4.91672e-10
4.72065e-10
4.71682e-10
4.70345e-10
4.72741e-10
4.71354e-10
4.72606e-10
4.74032e-10
4.681e-10
4.73775e-10
4.67078e-10
4.70729e-10
4.70917e-10
4.82541e-10
5.60928e-10
8.17963e-10
1.71527e-09
1.97523e-09
8.63835e-10
5.92286e-10
5.36095e-10
5.17604e-10
5.17288e-10
5.15906e-10
5.18283e-10
5.16874e-10
5.18144e-10
5.19582e-10
5.13558e-10
5.19302e-10
5.12533e-10
5.16289e-10
5.16182e-10
5.27067e-10
6.01965e-10
8.49026e-10
1.72468e-09
1.73e-09
8.60234e-10
6.2775e-10
5.77201e-10
5.60055e-10
5.59428e-10
5.58099e-10
5.60215e-10
5.58895e-10
5.60085e-10
5.61369e-10
5.55842e-10
5.61094e-10
5.54934e-10
5.58485e-10
5.58521e-10
5.69248e-10
6.39256e-10
8.75583e-10
1.71101e-09
5.94356e-10
5.89867e-10
5.94105e-10
5.89166e-10
5.92209e-10
5.92752e-10
6.0377e-10
6.67523e-10
8.91522e-10
1.66817e-09
)
;

boundaryField
{
    fuel
    {
        type            fixedValue;
        value           nonuniform 0();
    }
    wall
    {
        type            zeroGradient;
    }
    outlet
    {
        type            zeroGradient;
    }
    frontAndBack
    {
        type            empty;
    }
    procBoundary0to1
    {
        type            processor;
        value           nonuniform List<scalar> 
21
(
1.53148e-09
8.51627e-10
6.56072e-10
6.09833e-10
5.94252e-10
5.93011e-10
5.91836e-10
5.93479e-10
5.92355e-10
5.93373e-10
5.93373e-10
6.14722e-10
6.11632e-10
6.14505e-10
6.11177e-10
6.13494e-10
6.14741e-10
6.26234e-10
6.82678e-10
8.92033e-10
1.59428e-09
)
;
    }
    procBoundary0to2
    {
        type            processor;
        value           nonuniform List<scalar> 
12
(
3.40255e-10
1.2132e-08
1.56784e-09
5.3474e-10
3.64206e-10
3.34516e-10
3.27573e-10
3.27362e-10
3.27447e-10
3.26806e-10
3.26827e-10
3.26827e-10
)
;
    }
    procBoundary0to3
    {
        type            processor;
        value           nonuniform List<scalar> 10(3.57662e-10 3.58803e-10 3.5885e-10 3.60511e-10 3.60196e-10 3.69386e-10 4.04624e-10 5.21801e-10 1.1839e-09 2.21745e-09);
    }
}


// ************************************************************************* //
