/*--------------------------------*- C++ -*----------------------------------*\
| =========                 |                                                 |
| \\      /  F ield         | OpenFOAM: The Open Source CFD Toolbox           |
|  \\    /   O peration     | Version:  dev                                   |
|   \\  /    A nd           | Web:      www.OpenFOAM.org                      |
|    \\/     M anipulation  |                                                 |
\*---------------------------------------------------------------------------*/
FoamFile
{
    version     2.0;
    format      ascii;
    class       volScalarField;
    location    "0.145";
    object      A2C2HB;
}
// * * * * * * * * * * * * * * * * * * * * * * * * * * * * * * * * * * * * * //

dimensions      [0 0 0 0 0 0 0];

internalField   nonuniform List<scalar> 
50
(
4.89185e-10
2.81288e-10
1.24762e-10
5.46992e-11
2.4277e-11
1.09073e-11
4.94319e-12
2.257e-12
1.03967e-12
4.85934e-13
2.29808e-13
1.1139e-13
5.62195e-14
3.0197e-14
1.7654e-14
1.13746e-14
8.04705e-15
6.11643e-15
4.87866e-15
4.00066e-15
3.32897e-15
2.78611e-15
2.33529e-15
1.95856e-15
1.63952e-15
1.37141e-15
1.14497e-15
9.54734e-16
7.9632e-16
6.63888e-16
5.53495e-16
4.62123e-16
3.86219e-16
3.22942e-16
2.70324e-16
2.26545e-16
1.90089e-16
1.59692e-16
1.34313e-16
1.13089e-16
9.53106e-17
8.03942e-17
6.78586e-17
5.73076e-17
4.84141e-17
4.09079e-17
3.45659e-17
2.92045e-17
2.46741e-17
2.08543e-17
)
;

boundaryField
{
    wall
    {
        type            zeroGradient;
    }
    fuel
    {
        type            fixedValue;
        value           uniform 0;
    }
    outlet
    {
        type            inletOutlet;
        inletValue      nonuniform 0();
        value           nonuniform 0();
    }
    procBoundary0to1
    {
        type            processor;
        value           uniform 1.76337e-17;
    }
}


// ************************************************************************* //
