/*--------------------------------*- C++ -*----------------------------------*\
| =========                 |                                                 |
| \\      /  F ield         | OpenFOAM: The Open Source CFD Toolbox           |
|  \\    /   O peration     | Version:  dev                                   |
|   \\  /    A nd           | Web:      www.OpenFOAM.org                      |
|    \\/     M anipulation  |                                                 |
\*---------------------------------------------------------------------------*/
FoamFile
{
    version     2.0;
    format      ascii;
    class       volScalarField;
    location    "0.145";
    object      c-C6H4;
}
// * * * * * * * * * * * * * * * * * * * * * * * * * * * * * * * * * * * * * //

dimensions      [0 0 0 0 0 0 0];

internalField   nonuniform List<scalar> 
250
(
6.57602e-07
6.58043e-07
6.58576e-07
6.58978e-07
6.59425e-07
6.66227e-07
6.96821e-07
8.22214e-07
1.32122e-06
9.57827e-07
6.25021e-07
6.25422e-07
6.25843e-07
6.26396e-07
6.26851e-07
6.33118e-07
6.60965e-07
7.72291e-07
1.20339e-06
1.0014e-06
9.91631e-07
1.00219e-06
7.08968e-07
6.40432e-07
6.07685e-07
5.99346e-07
5.99294e-07
5.96043e-07
5.9715e-07
5.94718e-07
5.95104e-07
5.95476e-07
5.9581e-07
5.9648e-07
5.96948e-07
6.02716e-07
6.28011e-07
7.25722e-07
1.08879e-06
1.01496e-06
9.89496e-07
9.15521e-07
6.70238e-07
6.08785e-07
5.78733e-07
5.70979e-07
5.70941e-07
5.67618e-07
5.68854e-07
5.66418e-07
5.66872e-07
5.67232e-07
5.6749e-07
5.68267e-07
5.68749e-07
5.7405e-07
5.96901e-07
6.81615e-07
9.81948e-07
1.0026e-06
9.70503e-07
8.47174e-07
6.326e-07
5.77922e-07
5.50419e-07
5.43158e-07
5.43147e-07
5.39702e-07
5.41118e-07
5.38596e-07
5.39126e-07
5.39492e-07
5.3968e-07
5.40571e-07
5.41066e-07
5.45936e-07
5.66496e-07
6.39286e-07
8.81631e-07
9.66246e-07
9.37056e-07
7.84209e-07
5.94649e-07
5.46524e-07
5.21354e-07
5.14496e-07
5.14536e-07
5.10884e-07
5.12554e-07
5.09843e-07
5.10464e-07
5.1085e-07
5.10972e-07
5.11999e-07
5.12503e-07
5.16986e-07
5.35435e-07
5.97381e-07
7.96095e-07
9.10095e-07
8.90633e-07
7.23563e-07
5.54877e-07
5.13118e-07
4.90012e-07
4.83495e-07
4.83617e-07
4.79658e-07
4.81669e-07
4.7866e-07
4.79391e-07
4.79785e-07
4.79862e-07
4.81055e-07
4.81558e-07
4.85712e-07
5.02216e-07
5.54495e-07
7.10595e-07
8.35129e-07
8.31922e-07
6.62497e-07
5.11936e-07
4.76278e-07
4.54931e-07
4.48791e-07
4.49026e-07
4.44687e-07
4.47105e-07
4.43712e-07
4.44564e-07
4.44871e-07
4.45007e-07
4.46379e-07
4.46866e-07
4.50771e-07
4.65384e-07
5.09305e-07
6.31844e-07
7.53065e-07
7.61397e-07
5.98829e-07
4.63228e-07
4.34815e-07
4.14191e-07
4.07974e-07
4.08369e-07
4.03495e-07
4.06523e-07
4.02581e-07
4.03637e-07
4.05105e-07
4.04033e-07
4.05691e-07
4.06189e-07
4.0967e-07
4.23852e-07
4.60867e-07
5.54872e-07
6.60683e-07
6.80107e-07
5.3137e-07
4.08842e-07
3.88302e-07
3.69081e-07
3.6327e-07
3.63812e-07
3.58597e-07
3.6204e-07
3.57711e-07
3.58881e-07
3.60326e-07
3.59241e-07
3.61055e-07
3.61509e-07
3.64778e-07
3.7739e-07
4.06539e-07
4.79173e-07
5.70383e-07
5.90407e-07
4.60326e-07
3.5275e-07
3.37404e-07
3.19685e-07
3.14356e-07
3.15024e-07
3.09653e-07
3.1338e-07
3.08816e-07
3.10055e-07
3.11495e-07
3.10367e-07
3.12274e-07
3.12665e-07
3.15695e-07
3.26822e-07
3.50976e-07
4.05122e-07
4.785e-07
4.96247e-07
3.87388e-07
2.94903e-07
2.84084e-07
2.68162e-07
2.63443e-07
2.64187e-07
2.58946e-07
2.62732e-07
2.58189e-07
2.59423e-07
2.60808e-07
2.5968e-07
2.61571e-07
2.61885e-07
2.64625e-07
2.74228e-07
2.94017e-07
3.34015e-07
3.93466e-07
4.03213e-07
3.15755e-07
2.38666e-07
2.314e-07
2.17721e-07
2.13716e-07
2.14459e-07
2.09686e-07
2.13248e-07
2.09037e-07
2.10179e-07
2.11433e-07
2.10378e-07
2.12123e-07
2.12357e-07
2.14736e-07
2.22742e-07
2.38663e-07
2.68061e-07
3.15495e-07
1.65864e-07
1.66913e-07
1.66007e-07
1.67488e-07
1.67648e-07
1.69605e-07
1.75968e-07
1.88424e-07
2.09992e-07
2.47289e-07
)
;

boundaryField
{
    fuel
    {
        type            fixedValue;
        value           nonuniform 0();
    }
    wall
    {
        type            zeroGradient;
    }
    outlet
    {
        type            zeroGradient;
    }
    frontAndBack
    {
        type            empty;
    }
    procBoundary0to1
    {
        type            processor;
        value           nonuniform List<scalar> 
21
(
3.1721e-07
2.49514e-07
1.8782e-07
1.83065e-07
1.71948e-07
1.68755e-07
1.69415e-07
1.65416e-07
1.68478e-07
1.64896e-07
1.64896e-07
1.29631e-07
1.30423e-07
1.29726e-07
1.30861e-07
1.30962e-07
1.32469e-07
1.37219e-07
1.46599e-07
1.62412e-07
1.91233e-07
)
;
    }
    procBoundary0to2
    {
        type            processor;
        value           nonuniform List<scalar> 
12
(
6.57376e-07
9.73445e-07
1.09257e-06
7.49913e-07
6.73961e-07
6.38448e-07
6.29439e-07
6.29373e-07
6.2619e-07
6.27186e-07
6.24708e-07
6.24708e-07
)
;
    }
    procBoundary0to3
    {
        type            processor;
        value           nonuniform List<scalar> 10(6.93627e-07 6.94112e-07 6.94793e-07 6.9499e-07 6.95437e-07 7.02844e-07 7.36112e-07 8.82247e-07 1.44297e-06 8.95193e-07);
    }
}


// ************************************************************************* //
