/*--------------------------------*- C++ -*----------------------------------*\
| =========                 |                                                 |
| \\      /  F ield         | OpenFOAM: The Open Source CFD Toolbox           |
|  \\    /   O peration     | Version:  dev                                   |
|   \\  /    A nd           | Web:      www.OpenFOAM.org                      |
|    \\/     M anipulation  |                                                 |
\*---------------------------------------------------------------------------*/
FoamFile
{
    version     2.0;
    format      ascii;
    class       volScalarField;
    location    "0.145";
    object      C5H4O;
}
// * * * * * * * * * * * * * * * * * * * * * * * * * * * * * * * * * * * * * //

dimensions      [0 0 0 0 0 0 0];

internalField   nonuniform List<scalar> 
250
(
8.6601e-10
8.66068e-10
8.68074e-10
8.66748e-10
8.66697e-10
8.78134e-10
9.42716e-10
1.28601e-09
3.09636e-09
1.09176e-08
8.45151e-10
8.45019e-10
8.46792e-10
8.45624e-10
8.45611e-10
8.56057e-10
9.15455e-10
1.22735e-09
2.8077e-09
8.42624e-09
3.20439e-09
2.02383e-09
1.08744e-09
9.00193e-10
8.46565e-10
8.37021e-10
8.36157e-10
8.37088e-10
8.34773e-10
8.35305e-10
8.34566e-10
8.34248e-10
8.35869e-10
8.34736e-10
8.34768e-10
8.44292e-10
8.98952e-10
1.18157e-09
2.54952e-09
6.81777e-09
2.98445e-09
1.85589e-09
1.06709e-09
8.92864e-10
8.44413e-10
8.3569e-10
8.347e-10
8.36102e-10
8.33505e-10
8.3468e-10
8.33916e-10
8.33425e-10
8.34952e-10
8.33757e-10
8.33839e-10
8.42496e-10
8.92742e-10
1.14811e-09
2.32996e-09
5.63989e-09
2.82638e-09
1.74933e-09
1.05924e-09
8.95602e-10
8.5213e-10
8.44134e-10
8.42989e-10
8.45008e-10
8.42021e-10
8.43894e-10
8.43064e-10
8.42409e-10
8.4389e-10
8.42556e-10
8.42689e-10
8.50521e-10
8.96672e-10
1.12713e-09
2.14511e-09
4.7659e-09
2.7161e-09
1.67741e-09
1.06356e-09
9.08457e-10
8.6978e-10
8.6244e-10
8.61112e-10
8.63866e-10
8.60392e-10
8.63025e-10
8.62088e-10
8.61269e-10
8.62748e-10
8.61214e-10
8.614e-10
8.68438e-10
9.10797e-10
1.11854e-09
2.01036e-09
4.11247e-09
2.64399e-09
1.6346e-09
1.0801e-09
9.31772e-10
8.97676e-10
8.90977e-10
8.89442e-10
8.93041e-10
8.8898e-10
8.92444e-10
8.91363e-10
8.90355e-10
8.91887e-10
8.90101e-10
8.90341e-10
8.96622e-10
9.35432e-10
1.12255e-09
1.89834e-09
3.5982e-09
2.60356e-09
1.61715e-09
1.10929e-09
9.66358e-10
9.36442e-10
9.30465e-10
9.28699e-10
9.33253e-10
9.28497e-10
9.32888e-10
9.31621e-10
9.3046e-10
9.32029e-10
9.29948e-10
9.30245e-10
9.35826e-10
9.71286e-10
1.13986e-09
1.82086e-09
3.22592e-09
2.59089e-09
1.62301e-09
1.15288e-09
1.01358e-09
9.88256e-10
9.83494e-10
9.81441e-10
9.87218e-10
9.81483e-10
9.87057e-10
9.85489e-10
9.83102e-10
9.85806e-10
9.83281e-10
9.83609e-10
9.88695e-10
1.01977e-09
1.17171e-09
1.77163e-09
2.93376e-09
2.60473e-09
1.652e-09
1.21329e-09
1.07588e-09
1.05446e-09
1.05063e-09
1.04825e-09
1.05537e-09
1.04856e-09
1.05546e-09
1.05358e-09
1.05098e-09
1.0538e-09
1.05082e-09
1.05122e-09
1.05562e-09
1.08352e-09
1.22132e-09
1.75166e-09
2.73378e-09
2.64707e-09
1.7064e-09
1.29311e-09
1.15755e-09
1.14034e-09
1.13764e-09
1.13485e-09
1.1437e-09
1.13544e-09
1.14407e-09
1.14175e-09
1.13872e-09
1.14187e-09
1.13829e-09
1.13876e-09
1.14241e-09
1.167e-09
1.29137e-09
1.76408e-09
2.59792e-09
2.72421e-09
1.79188e-09
1.40134e-09
1.26574e-09
1.25333e-09
1.25206e-09
1.24871e-09
1.25989e-09
1.24959e-09
1.26059e-09
1.25764e-09
1.25399e-09
1.25766e-09
1.25325e-09
1.25381e-09
1.25655e-09
1.27762e-09
1.39012e-09
1.81513e-09
2.53504e-09
2.84831e-09
1.91907e-09
1.55021e-09
1.41228e-09
1.40581e-09
1.40637e-09
1.40224e-09
1.41667e-09
1.40342e-09
1.4178e-09
1.41392e-09
1.40937e-09
1.41382e-09
1.40824e-09
1.40891e-09
1.41042e-09
1.42764e-09
1.52935e-09
1.91591e-09
2.54525e-09
1.63156e-09
1.62565e-09
1.6313e-09
1.62401e-09
1.62486e-09
1.62457e-09
1.6373e-09
1.72877e-09
2.08551e-09
2.64272e-09
)
;

boundaryField
{
    fuel
    {
        type            fixedValue;
        value           nonuniform 0();
    }
    wall
    {
        type            zeroGradient;
    }
    outlet
    {
        type            zeroGradient;
    }
    frontAndBack
    {
        type            empty;
    }
    procBoundary0to1
    {
        type            processor;
        value           nonuniform List<scalar> 
21
(
3.04066e-09
2.10647e-09
1.76026e-09
1.61684e-09
1.61817e-09
1.62127e-09
1.61599e-09
1.63514e-09
1.61746e-09
1.63683e-09
1.63683e-09
1.94615e-09
1.93818e-09
1.94569e-09
1.93584e-09
1.93696e-09
1.93394e-09
1.94096e-09
2.02199e-09
2.35689e-09
2.85655e-09
)
;
    }
    procBoundary0to2
    {
        type            processor;
        value           nonuniform List<scalar> 
12
(
8.66861e-10
3.50457e-09
2.22418e-09
1.12075e-09
9.17751e-10
8.5874e-10
8.48262e-10
8.47494e-10
8.48129e-10
8.45975e-10
8.45918e-10
8.45918e-10
)
;
    }
    procBoundary0to3
    {
        type            processor;
        value           nonuniform List<scalar> 10(8.97741e-10 8.9798e-10 9.00329e-10 8.98692e-10 8.98612e-10 9.11078e-10 9.81132e-10 1.36739e-09 3.41937e-09 1.40407e-08);
    }
}


// ************************************************************************* //
