/*--------------------------------*- C++ -*----------------------------------*\
| =========                 |                                                 |
| \\      /  F ield         | OpenFOAM: The Open Source CFD Toolbox           |
|  \\    /   O peration     | Version:  dev                                   |
|   \\  /    A nd           | Web:      www.OpenFOAM.org                      |
|    \\/     M anipulation  |                                                 |
\*---------------------------------------------------------------------------*/
FoamFile
{
    version     2.0;
    format      ascii;
    class       volScalarField;
    location    "0.145";
    object      C6H5O;
}
// * * * * * * * * * * * * * * * * * * * * * * * * * * * * * * * * * * * * * //

dimensions      [0 0 0 0 0 0 0];

internalField   nonuniform List<scalar> 
50
(
1.51363e-07
6.59914e-08
2.55244e-08
9.76885e-09
3.73888e-09
1.4355e-09
5.51986e-10
2.12813e-10
8.2478e-11
3.23454e-11
1.27425e-11
5.06809e-12
2.03705e-12
8.27939e-13
3.40341e-13
1.41401e-13
5.9591e-14
2.53656e-14
1.09302e-14
4.76827e-15
2.11415e-15
9.56535e-16
4.46653e-16
2.19886e-16
1.16124e-16
6.7469e-17
4.34225e-17
3.07464e-17
2.34976e-17
1.8906e-17
1.57197e-17
1.33487e-17
1.14779e-17
9.94136e-18
8.65279e-18
7.55589e-18
6.61291e-18
5.79684e-18
5.08723e-18
4.46802e-18
3.92628e-18
3.45135e-18
3.03431e-18
2.66765e-18
2.34496e-18
2.06071e-18
1.81021e-18
1.58942e-18
1.39497e-18
1.22414e-18
)
;

boundaryField
{
    wall
    {
        type            zeroGradient;
    }
    fuel
    {
        type            fixedValue;
        value           uniform 0;
    }
    outlet
    {
        type            inletOutlet;
        inletValue      nonuniform 0();
        value           nonuniform 0();
    }
    procBoundary0to1
    {
        type            processor;
        value           uniform 1.07528e-18;
    }
}


// ************************************************************************* //
