/*--------------------------------*- C++ -*----------------------------------*\
| =========                 |                                                 |
| \\      /  F ield         | OpenFOAM: The Open Source CFD Toolbox           |
|  \\    /   O peration     | Version:  dev                                   |
|   \\  /    A nd           | Web:      www.OpenFOAM.org                      |
|    \\/     M anipulation  |                                                 |
\*---------------------------------------------------------------------------*/
FoamFile
{
    version     2.0;
    format      ascii;
    class       volScalarField;
    location    "0.145";
    object      CH2CO;
}
// * * * * * * * * * * * * * * * * * * * * * * * * * * * * * * * * * * * * * //

dimensions      [0 0 0 0 0 0 0];

internalField   nonuniform List<scalar> 
250
(
1.97943e-05
1.98569e-05
1.98095e-05
1.99104e-05
1.98703e-05
2.00594e-05
2.04843e-05
2.09966e-05
2.2447e-05
2.09598e-05
1.90986e-05
1.91667e-05
1.91123e-05
1.92188e-05
1.91782e-05
1.93628e-05
1.97728e-05
2.02716e-05
2.17843e-05
2.07287e-05
2.86036e-05
1.97007e-05
1.94839e-05
1.87348e-05
1.85846e-05
1.84587e-05
1.84672e-05
1.84458e-05
1.84415e-05
1.84315e-05
1.8414e-05
1.84862e-05
1.84275e-05
1.85378e-05
1.84967e-05
1.86759e-05
1.90713e-05
1.95498e-05
2.09987e-05
2.04276e-05
2.53716e-05
1.89015e-05
1.87663e-05
1.8049e-05
1.79085e-05
1.77842e-05
1.77924e-05
1.77679e-05
1.77667e-05
1.77563e-05
1.7736e-05
1.7811e-05
1.77488e-05
1.78619e-05
1.78204e-05
1.7995e-05
1.83734e-05
1.88278e-05
2.02808e-05
2.0034e-05
2.28699e-05
1.81051e-05
1.80468e-05
1.73626e-05
1.72314e-05
1.71095e-05
1.71175e-05
1.70902e-05
1.70917e-05
1.7081e-05
1.70587e-05
1.71362e-05
1.70705e-05
1.71858e-05
1.71439e-05
1.73144e-05
1.76748e-05
1.81024e-05
1.95367e-05
1.95392e-05
2.08235e-05
1.73653e-05
1.7322e-05
1.66706e-05
1.6549e-05
1.64296e-05
1.64372e-05
1.64075e-05
1.64115e-05
1.64003e-05
1.63765e-05
1.64566e-05
1.63874e-05
1.65044e-05
1.64619e-05
1.66285e-05
1.69716e-05
1.7371e-05
1.87649e-05
1.89465e-05
1.89983e-05
1.66185e-05
1.6589e-05
1.59689e-05
1.58582e-05
1.57401e-05
1.57476e-05
1.57157e-05
1.57219e-05
1.57102e-05
1.56851e-05
1.57679e-05
1.56951e-05
1.58134e-05
1.57704e-05
1.59337e-05
1.62597e-05
1.66327e-05
1.79663e-05
1.82652e-05
1.76722e-05
1.58653e-05
1.58462e-05
1.52544e-05
1.51581e-05
1.50382e-05
1.50457e-05
1.50119e-05
1.50201e-05
1.50077e-05
1.49817e-05
1.50669e-05
1.49908e-05
1.51098e-05
1.50664e-05
1.52276e-05
1.55138e-05
1.58258e-05
1.71413e-05
1.75078e-05
1.64621e-05
1.51056e-05
1.50936e-05
1.45261e-05
1.44229e-05
1.4323e-05
1.43305e-05
1.42951e-05
1.43051e-05
1.42921e-05
1.42652e-05
1.43528e-05
1.42736e-05
1.43927e-05
1.4349e-05
1.44855e-05
1.47719e-05
1.50581e-05
1.62946e-05
1.66884e-05
1.54247e-05
1.42946e-05
1.42938e-05
1.37855e-05
1.3695e-05
1.35956e-05
1.36033e-05
1.35666e-05
1.3578e-05
1.35645e-05
1.35371e-05
1.36264e-05
1.35448e-05
1.36632e-05
1.36195e-05
1.37508e-05
1.40183e-05
1.42345e-05
1.54293e-05
1.58224e-05
1.44709e-05
1.35159e-05
1.35153e-05
1.3036e-05
1.29558e-05
1.28592e-05
1.28671e-05
1.28295e-05
1.28422e-05
1.28281e-05
1.28004e-05
1.28909e-05
1.28075e-05
1.29246e-05
1.28809e-05
1.30064e-05
1.32558e-05
1.34413e-05
1.45532e-05
1.49258e-05
1.35719e-05
1.27347e-05
1.27318e-05
1.22821e-05
1.22102e-05
1.21182e-05
1.21262e-05
1.20881e-05
1.21017e-05
1.20874e-05
1.20594e-05
1.21505e-05
1.20661e-05
1.21813e-05
1.21377e-05
1.22569e-05
1.24884e-05
1.26456e-05
1.36733e-05
1.40146e-05
1.27089e-05
1.19558e-05
1.1947e-05
1.15285e-05
1.14634e-05
1.13765e-05
1.13846e-05
1.13466e-05
1.13608e-05
1.13463e-05
1.13184e-05
1.14095e-05
1.13245e-05
1.14376e-05
1.13939e-05
1.15066e-05
1.17205e-05
1.18522e-05
1.27968e-05
1.31038e-05
1.05802e-05
1.06711e-05
1.05858e-05
1.06966e-05
1.06526e-05
1.07588e-05
1.09552e-05
1.1065e-05
1.19293e-05
1.22054e-05
)
;

boundaryField
{
    fuel
    {
        type            fixedValue;
        value           nonuniform 0();
    }
    wall
    {
        type            zeroGradient;
    }
    outlet
    {
        type            zeroGradient;
    }
    frontAndBack
    {
        type            empty;
    }
    procBoundary0to1
    {
        type            processor;
        value           nonuniform List<scalar> 
21
(
1.18743e-05
1.11816e-05
1.11662e-05
1.07779e-05
1.07193e-05
1.06373e-05
1.06454e-05
1.06079e-05
1.06225e-05
1.06079e-05
1.06079e-05
9.84786e-06
9.93803e-06
9.85314e-06
9.9609e-06
9.91673e-06
1.00162e-05
1.01954e-05
1.02866e-05
1.10749e-05
1.13283e-05
)
;
    }
    procBoundary0to2
    {
        type            processor;
        value           nonuniform List<scalar> 
12
(
1.98034e-05
3.2772e-05
2.0512e-05
2.02074e-05
1.94248e-05
1.92655e-05
1.91385e-05
1.91474e-05
1.91295e-05
1.91219e-05
1.9112e-05
1.9112e-05
)
;
    }
    procBoundary0to3
    {
        type            processor;
        value           nonuniform List<scalar> 10(2.05006e-05 2.05609e-05 2.05263e-05 2.06173e-05 2.05788e-05 2.07696e-05 2.12108e-05 2.17659e-05 2.30858e-05 2.11677e-05);
    }
}


// ************************************************************************* //
