/*--------------------------------*- C++ -*----------------------------------*\
| =========                 |                                                 |
| \\      /  F ield         | OpenFOAM: The Open Source CFD Toolbox           |
|  \\    /   O peration     | Version:  dev                                   |
|   \\  /    A nd           | Web:      www.OpenFOAM.org                      |
|    \\/     M anipulation  |                                                 |
\*---------------------------------------------------------------------------*/
FoamFile
{
    version     2.0;
    format      ascii;
    class       volScalarField;
    location    "0.145";
    object      HCCO;
}
// * * * * * * * * * * * * * * * * * * * * * * * * * * * * * * * * * * * * * //

dimensions      [0 0 0 0 0 0 0];

internalField   nonuniform List<scalar> 
250
(
6.27552e-07
6.32077e-07
6.28375e-07
6.35322e-07
6.32373e-07
6.41457e-07
6.55601e-07
6.43906e-07
6.03473e-07
4.00899e-07
5.79705e-07
5.84639e-07
5.80469e-07
5.87815e-07
5.84819e-07
5.93809e-07
6.08021e-07
5.98988e-07
5.7791e-07
4.10599e-07
5.08179e-07
4.34354e-07
5.37482e-07
5.37504e-07
5.40442e-07
5.34609e-07
5.35363e-07
5.3356e-07
5.33679e-07
5.32777e-07
5.31556e-07
5.36784e-07
5.32321e-07
5.39924e-07
5.369e-07
5.45726e-07
5.59945e-07
5.53003e-07
5.43381e-07
4.1238e-07
4.31849e-07
4.01561e-07
4.9355e-07
4.89947e-07
4.92394e-07
4.8646e-07
4.87194e-07
4.85201e-07
4.85504e-07
4.84583e-07
4.83198e-07
4.88608e-07
4.83935e-07
4.91681e-07
4.88646e-07
4.97294e-07
5.11334e-07
5.06083e-07
5.08594e-07
4.05397e-07
3.72802e-07
3.67513e-07
4.48823e-07
4.4212e-07
4.44066e-07
4.38142e-07
4.3885e-07
4.36722e-07
4.37176e-07
4.36243e-07
4.34766e-07
4.40278e-07
4.35451e-07
4.43229e-07
4.40206e-07
4.4864e-07
4.62332e-07
4.58464e-07
4.70025e-07
3.89729e-07
3.23879e-07
3.34657e-07
4.03542e-07
3.94279e-07
3.9578e-07
3.89941e-07
3.90623e-07
3.88413e-07
3.88987e-07
3.88053e-07
3.86531e-07
3.92071e-07
3.87154e-07
3.94843e-07
3.91864e-07
4.0002e-07
4.13236e-07
4.10544e-07
4.28325e-07
3.66299e-07
2.79019e-07
3.00672e-07
3.58094e-07
3.46837e-07
3.48032e-07
3.42297e-07
3.42952e-07
3.40713e-07
3.41376e-07
3.40452e-07
3.38924e-07
3.4441e-07
3.39483e-07
3.46953e-07
3.44058e-07
3.51886e-07
3.64464e-07
3.62921e-07
3.84343e-07
3.36566e-07
2.45121e-07
2.66073e-07
3.13043e-07
3.00364e-07
3.01507e-07
2.95791e-07
2.96417e-07
2.94206e-07
2.94926e-07
2.94027e-07
2.92527e-07
2.97864e-07
2.93023e-07
3.00139e-07
2.97374e-07
3.0486e-07
3.15255e-07
3.12768e-07
3.39011e-07
3.02263e-07
2.12795e-07
2.31475e-07
2.69136e-07
2.55548e-07
2.55463e-07
2.51123e-07
2.51721e-07
2.49594e-07
2.50336e-07
2.49479e-07
2.48042e-07
2.53126e-07
2.48475e-07
2.55108e-07
2.52514e-07
2.58283e-07
2.68797e-07
2.6726e-07
2.93526e-07
2.65219e-07
1.83917e-07
1.95748e-07
2.2523e-07
2.132e-07
2.13154e-07
2.09065e-07
2.09626e-07
2.07636e-07
2.0837e-07
2.07571e-07
2.06229e-07
2.10959e-07
2.06599e-07
2.12639e-07
2.10259e-07
2.15461e-07
2.2478e-07
2.21788e-07
2.4897e-07
2.2722e-07
1.56619e-07
1.63126e-07
1.85628e-07
1.741e-07
1.74024e-07
1.70365e-07
1.70881e-07
1.69074e-07
1.69771e-07
1.69046e-07
1.67826e-07
1.72113e-07
1.68136e-07
1.735e-07
1.71365e-07
1.75922e-07
1.84005e-07
1.81533e-07
2.06574e-07
1.89914e-07
1.30761e-07
1.32711e-07
1.49434e-07
1.38923e-07
1.38799e-07
1.35664e-07
1.36126e-07
1.34538e-07
1.35174e-07
1.34536e-07
1.33458e-07
1.37235e-07
1.33711e-07
1.38351e-07
1.36478e-07
1.40352e-07
1.47183e-07
1.45145e-07
1.67362e-07
1.54717e-07
1.06556e-07
1.05232e-07
1.1728e-07
1.08161e-07
1.07997e-07
1.05409e-07
1.0581e-07
1.04461e-07
1.05018e-07
1.04475e-07
1.03552e-07
1.06784e-07
1.03752e-07
1.07657e-07
1.0605e-07
1.09245e-07
1.14849e-07
1.13184e-07
1.32176e-07
1.22738e-07
7.82833e-08
8.09686e-08
7.84363e-08
8.16333e-08
8.02842e-08
8.28438e-08
8.72871e-08
8.59522e-08
1.01591e-07
9.47175e-08
)
;

boundaryField
{
    fuel
    {
        type            fixedValue;
        value           nonuniform 0();
    }
    wall
    {
        type            zeroGradient;
    }
    outlet
    {
        type            zeroGradient;
    }
    frontAndBack
    {
        type            empty;
    }
    procBoundary0to1
    {
        type            processor;
        value           nonuniform List<scalar> 
21
(
8.45074e-08
8.11681e-08
8.96246e-08
8.20361e-08
8.18765e-08
7.97942e-08
8.0134e-08
7.90269e-08
7.94976e-08
7.90495e-08
7.90495e-08
5.7577e-08
5.97409e-08
5.76908e-08
6.0229e-08
5.91297e-08
6.11125e-08
6.45188e-08
6.34643e-08
7.5871e-08
7.10497e-08
)
;
    }
    procBoundary0to2
    {
        type            processor;
        value           nonuniform List<scalar> 
12
(
6.28279e-07
6.08413e-07
4.66426e-07
5.80786e-07
5.8463e-07
5.881e-07
5.82448e-07
5.83232e-07
5.81664e-07
5.81571e-07
5.80688e-07
5.80688e-07
)
;
    }
    procBoundary0to3
    {
        type            processor;
        value           nonuniform List<scalar> 10(6.74808e-07 6.79096e-07 6.7621e-07 6.82497e-07 6.79657e-07 6.88665e-07 7.02797e-07 6.89945e-07 6.23668e-07 3.84548e-07);
    }
}


// ************************************************************************* //
