/*--------------------------------*- C++ -*----------------------------------*\
| =========                 |                                                 |
| \\      /  F ield         | OpenFOAM: The Open Source CFD Toolbox           |
|  \\    /   O peration     | Version:  dev                                   |
|   \\  /    A nd           | Web:      www.OpenFOAM.org                      |
|    \\/     M anipulation  |                                                 |
\*---------------------------------------------------------------------------*/
FoamFile
{
    version     2.0;
    format      ascii;
    class       volScalarField;
    location    "0.145";
    object      n-A1C2H2;
}
// * * * * * * * * * * * * * * * * * * * * * * * * * * * * * * * * * * * * * //

dimensions      [0 0 0 0 0 0 0];

internalField   nonuniform List<scalar> 
250
(
1.30647e-11
1.30642e-11
1.30831e-11
1.30764e-11
1.30882e-11
1.32758e-11
1.42165e-11
1.86682e-11
4.48334e-11
1.72656e-10
1.27227e-11
1.27199e-11
1.27374e-11
1.27314e-11
1.27429e-11
1.29158e-11
1.37789e-11
1.77759e-11
3.99793e-11
1.34081e-10
4.16601e-11
2.81015e-11
1.61644e-11
1.36059e-11
1.27669e-11
1.2572e-11
1.25579e-11
1.25426e-11
1.25269e-11
1.25203e-11
1.25164e-11
1.25115e-11
1.25283e-11
1.25216e-11
1.25331e-11
1.2692e-11
1.34838e-11
1.70603e-11
3.56911e-11
1.08228e-10
3.89383e-11
2.56685e-11
1.5786e-11
1.34231e-11
1.26641e-11
1.24856e-11
1.24698e-11
1.24633e-11
1.2442e-11
1.24446e-11
1.24399e-11
1.24332e-11
1.24498e-11
1.24415e-11
1.24531e-11
1.25987e-11
1.33239e-11
1.65114e-11
3.20864e-11
8.85463e-11
3.67609e-11
2.40726e-11
1.55607e-11
1.33676e-11
1.26859e-11
1.25216e-11
1.25037e-11
1.25066e-11
1.24793e-11
1.2491e-11
1.24851e-11
1.24771e-11
1.24935e-11
1.24833e-11
1.24952e-11
1.26281e-11
1.32913e-11
1.61244e-11
2.90702e-11
7.33781e-11
3.50421e-11
2.2915e-11
1.5472e-11
1.34294e-11
1.28208e-11
1.26686e-11
1.26486e-11
1.26604e-11
1.26273e-11
1.26473e-11
1.26402e-11
1.26313e-11
1.26477e-11
1.26354e-11
1.26477e-11
1.27688e-11
1.33747e-11
1.58839e-11
2.68294e-11
6.16194e-11
3.36904e-11
2.2095e-11
1.54987e-11
1.35934e-11
1.30518e-11
1.291e-11
1.2888e-11
1.29073e-11
1.28693e-11
1.28961e-11
1.28881e-11
1.28787e-11
1.28949e-11
1.28811e-11
1.2894e-11
1.30042e-11
1.35569e-11
1.57703e-11
2.49009e-11
5.20173e-11
3.26078e-11
2.1527e-11
1.56137e-11
1.38392e-11
1.33543e-11
1.32228e-11
1.31993e-11
1.32235e-11
1.31824e-11
1.32139e-11
1.32052e-11
1.31956e-11
1.32115e-11
1.3197e-11
1.32106e-11
1.33119e-11
1.38144e-11
1.57593e-11
2.34142e-11
4.47794e-11
3.16939e-11
2.11341e-11
1.57863e-11
1.41389e-11
1.37061e-11
1.35878e-11
1.35633e-11
1.35901e-11
1.35472e-11
1.35812e-11
1.35721e-11
1.35538e-11
1.35781e-11
1.35635e-11
1.35774e-11
1.36731e-11
1.41184e-11
1.58215e-11
2.22103e-11
3.8778e-11
3.08544e-11
2.08483e-11
1.59782e-11
1.44623e-11
1.40665e-11
1.39561e-11
1.39316e-11
1.39567e-11
1.39157e-11
1.39486e-11
1.39401e-11
1.39242e-11
1.39459e-11
1.3933e-11
1.39475e-11
1.40368e-11
1.44401e-11
1.5924e-11
2.12313e-11
3.42376e-11
3.00153e-11
2.0615e-11
1.61617e-11
1.47849e-11
1.44195e-11
1.43166e-11
1.42927e-11
1.43139e-11
1.42765e-11
1.43064e-11
1.4299e-11
1.42857e-11
1.43044e-11
1.4294e-11
1.4309e-11
1.43925e-11
1.47568e-11
1.60436e-11
2.0431e-11
3.05162e-11
2.91376e-11
2.04027e-11
1.6336e-11
1.50987e-11
1.47605e-11
1.46656e-11
1.46427e-11
1.46597e-11
1.4626e-11
1.46527e-11
1.46463e-11
1.46353e-11
1.46511e-11
1.46434e-11
1.46586e-11
1.47362e-11
1.50632e-11
1.61744e-11
1.97837e-11
2.76664e-11
2.82373e-11
2.02161e-11
1.65282e-11
1.54255e-11
1.51177e-11
1.50322e-11
1.50099e-11
1.50252e-11
1.49928e-11
1.50193e-11
1.50127e-11
1.50029e-11
1.50168e-11
1.50107e-11
1.50258e-11
1.50962e-11
1.53862e-11
1.63395e-11
1.92959e-11
2.54561e-11
1.5481e-11
1.54703e-11
1.5484e-11
1.54773e-11
1.5492e-11
1.55524e-11
1.58032e-11
1.66117e-11
1.9024e-11
2.38343e-11
)
;

boundaryField
{
    fuel
    {
        type            fixedValue;
        value           nonuniform 0();
    }
    wall
    {
        type            zeroGradient;
    }
    outlet
    {
        type            zeroGradient;
    }
    frontAndBack
    {
        type            empty;
    }
    procBoundary0to1
    {
        type            processor;
        value           nonuniform List<scalar> 
21
(
2.73901e-11
2.01128e-11
1.68177e-11
1.58383e-11
1.55693e-11
1.54969e-11
1.5474e-11
1.54943e-11
1.54566e-11
1.549e-11
1.549e-11
1.62091e-11
1.6194e-11
1.62107e-11
1.61995e-11
1.62138e-11
1.62601e-11
1.64669e-11
1.71371e-11
1.90973e-11
2.28436e-11
)
;
    }
    procBoundary0to2
    {
        type            processor;
        value           nonuniform List<scalar> 
12
(
1.30686e-11
4.49845e-11
3.09959e-11
1.67075e-11
1.39227e-11
1.30017e-11
1.27882e-11
1.27753e-11
1.27527e-11
1.27415e-11
1.27262e-11
1.27262e-11
)
;
    }
    procBoundary0to3
    {
        type            processor;
        value           nonuniform List<scalar> 10(1.35485e-11 1.35503e-11 1.35714e-11 1.35624e-11 1.35748e-11 1.37777e-11 1.47995e-11 1.98749e-11 5.0307e-11 2.18474e-10);
    }
}


// ************************************************************************* //
