/*--------------------------------*- C++ -*----------------------------------*\
| =========                 |                                                 |
| \\      /  F ield         | OpenFOAM: The Open Source CFD Toolbox           |
|  \\    /   O peration     | Version:  dev                                   |
|   \\  /    A nd           | Web:      www.OpenFOAM.org                      |
|    \\/     M anipulation  |                                                 |
\*---------------------------------------------------------------------------*/
FoamFile
{
    version     2.0;
    format      ascii;
    class       volScalarField;
    location    "0.145";
    object      P2-;
}
// * * * * * * * * * * * * * * * * * * * * * * * * * * * * * * * * * * * * * //

dimensions      [0 0 0 0 0 0 0];

internalField   nonuniform List<scalar> 
250
(
4.00307e-12
4.00561e-12
4.01274e-12
4.01325e-12
4.0187e-12
4.09992e-12
4.51548e-12
6.70424e-12
2.29271e-11
8.06976e-11
3.75829e-12
3.76005e-12
3.76607e-12
3.76756e-12
3.77286e-12
3.84611e-12
4.21627e-12
6.10904e-12
1.91753e-11
6.43973e-11
1.60062e-11
1.12265e-11
5.12851e-12
4.04854e-12
3.67938e-12
3.59448e-12
3.5904e-12
3.57144e-12
3.5734e-12
3.56003e-12
3.5611e-12
3.56218e-12
3.56746e-12
3.56939e-12
3.57463e-12
3.64063e-12
3.97058e-12
5.59836e-12
1.59481e-11
5.20451e-11
1.51205e-11
9.62765e-12
4.80131e-12
3.84102e-12
3.51073e-12
3.43378e-12
3.42942e-12
3.41236e-12
3.41369e-12
3.40257e-12
3.4037e-12
3.40426e-12
3.40901e-12
3.4111e-12
3.4163e-12
3.4757e-12
3.76916e-12
5.16004e-12
1.32947e-11
4.1736e-11
1.42374e-11
8.54194e-12
4.52532e-12
3.66899e-12
3.37474e-12
3.30441e-12
3.2998e-12
3.28444e-12
3.2853e-12
3.27593e-12
3.27713e-12
3.27737e-12
3.28167e-12
3.28384e-12
3.28905e-12
3.34242e-12
3.60286e-12
4.78529e-12
1.11035e-11
3.32312e-11
1.33668e-11
7.68926e-12
4.28496e-12
3.52181e-12
3.26041e-12
3.19557e-12
3.19084e-12
3.1765e-12
3.17738e-12
3.16895e-12
3.17032e-12
3.17048e-12
3.17431e-12
3.17671e-12
3.18194e-12
3.22987e-12
3.46048e-12
4.45896e-12
9.46245e-12
2.63244e-11
1.24937e-11
6.98904e-12
4.0627e-12
3.38627e-12
3.15392e-12
3.09373e-12
3.08913e-12
3.0747e-12
3.07646e-12
3.06783e-12
3.06957e-12
3.06979e-12
3.07317e-12
3.07614e-12
3.08136e-12
3.12453e-12
3.32799e-12
4.16416e-12
8.02494e-12
2.05222e-11
1.15855e-11
6.37687e-12
3.83971e-12
3.24667e-12
3.03863e-12
2.98307e-12
2.97897e-12
2.96304e-12
2.96677e-12
2.95657e-12
2.95894e-12
2.95895e-12
2.96225e-12
2.96623e-12
2.97138e-12
3.01073e-12
3.1887e-12
3.88279e-12
6.86437e-12
1.6094e-11
1.06037e-11
5.80078e-12
3.58882e-12
3.08502e-12
2.89445e-12
2.84187e-12
2.83882e-12
2.81944e-12
2.82695e-12
2.81332e-12
2.81689e-12
2.82072e-12
2.8199e-12
2.82572e-12
2.83083e-12
2.86645e-12
3.02484e-12
3.59644e-12
5.86084e-12
1.24192e-11
9.51858e-12
5.22134e-12
3.29359e-12
2.88485e-12
2.71057e-12
2.66173e-12
2.66008e-12
2.63655e-12
2.64837e-12
2.63056e-12
2.63539e-12
2.64029e-12
2.63814e-12
2.64586e-12
2.6507e-12
2.68346e-12
2.82129e-12
3.2754e-12
4.97266e-12
9.64309e-12
8.32352e-12
4.61447e-12
2.96103e-12
2.63561e-12
2.47588e-12
2.43074e-12
2.43078e-12
2.40289e-12
2.41936e-12
2.39704e-12
2.40318e-12
2.40948e-12
2.40562e-12
2.41529e-12
2.41968e-12
2.44967e-12
2.56892e-12
2.93159e-12
4.16975e-12
7.37824e-12
7.04322e-12
3.97384e-12
2.58293e-12
2.33679e-12
2.19177e-12
2.15083e-12
2.15257e-12
2.12123e-12
2.14177e-12
2.11565e-12
2.12286e-12
2.13032e-12
2.12492e-12
2.13616e-12
2.13993e-12
2.16702e-12
2.26879e-12
2.55352e-12
3.43492e-12
5.6308e-12
5.73887e-12
3.31311e-12
2.17504e-12
1.99932e-12
1.87118e-12
1.83488e-12
1.83806e-12
1.80515e-12
1.8283e-12
1.80001e-12
1.80782e-12
1.81588e-12
1.80947e-12
1.8215e-12
1.82452e-12
1.84839e-12
1.93348e-12
2.15262e-12
2.76354e-12
4.23902e-12
1.47949e-12
1.48748e-12
1.48071e-12
1.49261e-12
1.49485e-12
1.51514e-12
1.58436e-12
1.74894e-12
2.16076e-12
3.13282e-12
)
;

boundaryField
{
    fuel
    {
        type            fixedValue;
        value           nonuniform 0();
    }
    wall
    {
        type            zeroGradient;
    }
    outlet
    {
        type            zeroGradient;
    }
    frontAndBack
    {
        type            empty;
    }
    procBoundary0to1
    {
        type            processor;
        value           nonuniform List<scalar> 
21
(
4.48061e-12
2.65998e-12
1.76165e-12
1.64456e-12
1.53514e-12
1.50422e-12
1.5083e-12
1.47619e-12
1.49999e-12
1.47168e-12
1.47168e-12
1.16163e-12
1.16896e-12
1.16247e-12
1.17336e-12
1.17488e-12
1.19152e-12
1.24582e-12
1.36592e-12
1.63557e-12
2.26301e-12
)
;
    }
    procBoundary0to2
    {
        type            processor;
        value           nonuniform List<scalar> 
12
(
4.0029e-12
1.68226e-11
1.31843e-11
5.52117e-12
4.30027e-12
3.88941e-12
3.79539e-12
3.79139e-12
3.77094e-12
3.77331e-12
3.75751e-12
3.75751e-12
)
;
    }
    procBoundary0to3
    {
        type            processor;
        value           nonuniform List<scalar> 10(4.30304e-12 4.30641e-12 4.31516e-12 4.3139e-12 4.3196e-12 4.4099e-12 4.87424e-12 7.47582e-12 2.72898e-11 9.76191e-11);
    }
}


// ************************************************************************* //
