/*--------------------------------*- C++ -*----------------------------------*\
| =========                 |                                                 |
| \\      /  F ield         | OpenFOAM: The Open Source CFD Toolbox           |
|  \\    /   O peration     | Version:  dev                                   |
|   \\  /    A nd           | Web:      www.OpenFOAM.org                      |
|    \\/     M anipulation  |                                                 |
\*---------------------------------------------------------------------------*/
FoamFile
{
    version     2.0;
    format      ascii;
    class       volScalarField;
    location    "0.145";
    object      T;
}
// * * * * * * * * * * * * * * * * * * * * * * * * * * * * * * * * * * * * * //

dimensions      [0 0 0 1 0 0 0];

internalField   nonuniform List<scalar> 
250
(
2008.44
2008.61
2008.54
2008.79
2008.79
2008.67
2006.84
1994.64
1943.7
1791.51
2001
2001.2
2001.12
2001.42
2001.42
2001.37
1999.82
1988.75
1942.29
1808.77
1906.15
1964.82
1987.02
1994.87
1993.86
1993.3
1993.52
1992.42
1993.09
1992.2
1992.42
1992.64
1992.53
1992.89
1992.91
1992.93
1991.69
1981.81
1939.67
1822.34
1912.14
1960.71
1978.51
1985.65
1984.18
1983.51
1983.75
1982.47
1983.28
1982.24
1982.5
1982.75
1982.62
1983.04
1983.07
1983.17
1982.28
1973.6
1935.64
1833.4
1914.38
1955.02
1968.45
1974.95
1973
1972.21
1972.48
1971.01
1971.96
1970.76
1971.07
1971.33
1971.18
1971.68
1971.72
1971.91
1971.37
1963.95
1929.89
1841.72
1913.01
1947.22
1956.62
1962.54
1960.09
1959.18
1959.48
1957.81
1958.92
1957.54
1957.89
1958.16
1958.01
1958.59
1958.63
1958.92
1958.74
1952.61
1922.7
1847.08
1908.13
1937.11
1942.81
1948.19
1945.23
1944.19
1944.53
1942.63
1943.92
1942.34
1942.75
1943.02
1942.87
1943.53
1943.58
1943.98
1944.16
1939.33
1913.02
1849.31
1899.76
1924.47
1926.75
1931.61
1928.15
1926.97
1927.36
1925.22
1926.7
1924.91
1925.38
1925.64
1925.5
1926.24
1926.3
1926.81
1927.35
1923.85
1901.23
1848.04
1887.85
1909.02
1907.64
1912.51
1908.2
1906.67
1907.12
1904.68
1906.44
1904.36
1904.93
1905.71
1905.05
1905.92
1906
1906.53
1908.01
1905.86
1886.68
1842.87
1872.29
1890.49
1885.29
1890.57
1885.7
1884.02
1884.52
1881.82
1883.81
1881.48
1882.11
1882.94
1882.24
1883.21
1883.29
1883.94
1885.82
1884.33
1869
1833.86
1852.89
1868.56
1860.4
1865.45
1860
1858.17
1858.74
1855.76
1858
1855.39
1856.11
1856.98
1856.23
1857.3
1857.38
1858.15
1860.44
1860.17
1847.83
1820.19
1829.38
1842.86
1831.85
1836.74
1830.72
1828.74
1829.38
1826.13
1828.64
1825.73
1826.53
1827.46
1826.65
1827.83
1827.9
1828.81
1831.49
1832.34
1822.78
1802.1
1801.44
1812.97
1799.24
1804.01
1797.46
1795.33
1796.05
1792.51
1795.3
1792.09
1792.97
1793.96
1793.09
1794.38
1794.44
1795.49
1798.54
1800.43
1793.4
1778.92
1754.99
1756.05
1755.1
1756.51
1756.55
1757.75
1761.14
1763.97
1759.22
1750.22
)
;

boundaryField
{
    fuel
    {
        type            fixedValue;
        value           nonuniform 0();
    }
    wall
    {
        type            fixedValue;
        value           nonuniform 0();
    }
    outlet
    {
        type            inletOutlet;
        inletValue      uniform 353;
        value           nonuniform List<scalar> 
25
(
1907.05
1912.88
1914.97
1913.47
1908.48
1900
1888.01
1872.38
1852.92
1829.38
1801.4
1791.35
1808.7
1822.34
1833.45
1841.81
1847.2
1849.44
1848.18
1843.02
1834.01
1820.32
1802.22
1779.03
1750.31
)
;
    }
    frontAndBack
    {
        type            empty;
    }
    procBoundary0to1
    {
        type            processor;
        value           nonuniform List<scalar> 
21
(
1768.63
1778.39
1762.09
1766.81
1759.76
1757.48
1758.28
1754.47
1757.55
1754.02
1754.02
1712.11
1713.23
1712.22
1713.72
1713.75
1715.1
1718.79
1722.45
1719.72
1715.5
)
;
    }
    procBoundary0to2
    {
        type            processor;
        value           nonuniform List<scalar> 
12
(
2008.29
1896.27
1966.81
1994.17
2002.81
2002.23
2001.77
2001.96
2001.03
2001.59
2000.82
2000.82
)
;
    }
    procBoundary0to3
    {
        type            processor;
        value           nonuniform List<scalar> 10(2014.86 2015.02 2014.97 2015.17 2015.15 2014.99 2012.89 2000.05 1944.24 1773.79);
    }
}


// ************************************************************************* //
