/*--------------------------------*- C++ -*----------------------------------*\
| =========                 |                                                 |
| \\      /  F ield         | OpenFOAM: The Open Source CFD Toolbox           |
|  \\    /   O peration     | Version:  dev                                   |
|   \\  /    A nd           | Web:      www.OpenFOAM.org                      |
|    \\/     M anipulation  |                                                 |
\*---------------------------------------------------------------------------*/
FoamFile
{
    version     2.0;
    format      ascii;
    class       volScalarField;
    location    "0.01";
    object      A2C2HB;
}
// * * * * * * * * * * * * * * * * * * * * * * * * * * * * * * * * * * * * * //

dimensions      [0 0 0 0 0 0 0];

internalField   nonuniform List<scalar> 
12
(
1.33381e-09
1.299e-09
1.25983e-09
1.21745e-09
1.17207e-09
1.12334e-09
1.07076e-09
1.01407e-09
9.5334e-10
8.88974e-10
8.21789e-10
7.52533e-10
)
;

boundaryField
{
    wall
    {
        type            zeroGradient;
    }
    fuel
    {
        type            fixedValue;
        value           nonuniform 0();
    }
    outlet
    {
        type            inletOutlet;
        inletValue      nonuniform 0();
        value           nonuniform 0();
    }
    procBoundary2to1
    {
        type            processor;
        value           uniform 1.36196e-09;
    }
    procBoundary2to3
    {
        type            processor;
        value           uniform 6.82108e-10;
    }
}


// ************************************************************************* //
