/*--------------------------------*- C++ -*----------------------------------*\
| =========                 |                                                 |
| \\      /  F ield         | OpenFOAM: The Open Source CFD Toolbox           |
|  \\    /   O peration     | Version:  dev                                   |
|   \\  /    A nd           | Web:      www.OpenFOAM.org                      |
|    \\/     M anipulation  |                                                 |
\*---------------------------------------------------------------------------*/
FoamFile
{
    version     2.0;
    format      ascii;
    class       volScalarField;
    location    "0.01";
    object      c-C6H4;
}
// * * * * * * * * * * * * * * * * * * * * * * * * * * * * * * * * * * * * * //

dimensions      [0 0 0 0 0 0 0];

internalField   nonuniform List<scalar> 
250
(
1.06174e-07
2.4178e-06
3.12412e-06
3.24404e-06
3.28008e-06
3.30653e-06
3.3225e-06
3.33315e-06
3.34015e-06
3.41587e-07
7.20213e-06
8.02115e-06
7.5881e-06
7.27984e-06
7.05807e-06
6.90395e-06
6.82032e-06
6.77662e-06
5.31249e-07
1.01976e-05
1.15847e-05
1.02893e-05
9.45274e-06
8.88961e-06
8.51947e-06
8.30924e-06
8.20284e-06
6.04689e-07
1.00595e-05
1.34178e-05
1.14084e-05
9.99532e-06
9.08513e-06
8.509e-06
8.20558e-06
8.04162e-06
5.9171e-07
7.73402e-06
1.37695e-05
1.15764e-05
9.61843e-06
8.38781e-06
7.63286e-06
7.25509e-06
7.03852e-06
5.71985e-07
4.97035e-06
1.29434e-05
1.12863e-05
8.89798e-06
7.39485e-06
6.47985e-06
6.05807e-06
5.80112e-06
5.89344e-07
2.92461e-06
1.12477e-05
1.07568e-05
8.14944e-06
6.29315e-06
5.37012e-06
4.77059e-06
4.57177e-06
6.33362e-07
1.83166e-06
9.07056e-06
1.00344e-05
7.49552e-06
5.43979e-06
4.36815e-06
3.80146e-06
3.59707e-06
6.83976e-07
1.40073e-06
6.83591e-06
9.10366e-06
6.95691e-06
4.7715e-06
3.53079e-06
2.97598e-06
2.72546e-06
7.31201e-07
1.27592e-06
4.89529e-06
7.97771e-06
6.4881e-06
4.2792e-06
2.88905e-06
2.33469e-06
2.05808e-06
7.70798e-07
1.24953e-06
3.43888e-06
6.71637e-06
6.03068e-06
3.93364e-06
2.46237e-06
1.85966e-06
1.61364e-06
1.52055e-06
8.01849e-07
1.24244e-06
2.48151e-06
5.42363e-06
5.53275e-06
3.69723e-06
2.15232e-06
1.50797e-06
1.28338e-06
1.19019e-06
8.25127e-07
1.2178e-06
1.92394e-06
4.21714e-06
4.96505e-06
3.53089e-06
1.9303e-06
1.2446e-06
1.01335e-06
9.41836e-07
8.42124e-07
1.16371e-06
1.63127e-06
3.19375e-06
4.32874e-06
3.39686e-06
1.78016e-06
1.04407e-06
8.21509e-07
7.53831e-07
8.54401e-07
1.09652e-06
1.48759e-06
2.40652e-06
3.65306e-06
3.26146e-06
1.68436e-06
8.88183e-07
6.67476e-07
5.91059e-07
8.63173e-07
1.03511e-06
1.41513e-06
1.86153e-06
2.98424e-06
3.09875e-06
1.63159e-06
7.78887e-07
5.39862e-07
4.6314e-07
8.69144e-07
9.86246e-07
1.37355e-06
1.52303e-06
2.3706e-06
2.89394e-06
1.61215e-06
6.85706e-07
4.40578e-07
3.63505e-07
8.72522e-07
9.49619e-07
1.34281e-06
1.33561e-06
1.84966e-06
2.6451e-06
1.61739e-06
6.10511e-07
3.60739e-07
2.89849e-07
8.73052e-07
9.22734e-07
1.31083e-06
1.24416e-06
1.44176e-06
2.36183e-06
1.63915e-06
5.5759e-07
2.92515e-07
2.29704e-07
8.70023e-07
9.02661e-07
1.2712e-06
1.19428e-06
1.14853e-06
2.06144e-06
1.67166e-06
5.1753e-07
2.41994e-07
1.81488e-07
8.62288e-07
8.86564e-07
1.22456e-06
1.17131e-06
9.55055e-07
1.76417e-06
1.70167e-06
4.88427e-07
2.0108e-07
1.41369e-07
8.48419e-07
8.71899e-07
1.17541e-06
1.15289e-06
8.36138e-07
1.49068e-06
1.72437e-06
4.68676e-07
1.65401e-07
1.11387e-07
8.27027e-07
8.5655e-07
1.12768e-06
1.13245e-06
7.66699e-07
1.25462e-06
1.72821e-06
4.54922e-07
1.38803e-07
8.60611e-08
7.97034e-07
8.38788e-07
1.08291e-06
1.10736e-06
7.25891e-07
1.06159e-06
1.71401e-06
4.43493e-07
1.17296e-07
6.77427e-08
7.57448e-07
8.1638e-07
1.04009e-06
1.07676e-06
6.98441e-07
9.10994e-07
1.68317e-06
4.30959e-07
9.9896e-08
5.34834e-08
7.06412e-07
7.84073e-07
9.96261e-07
1.04048e-06
6.74262e-07
7.98622e-07
1.63858e-06
4.15297e-07
8.5167e-08
4.25575e-08
)
;

boundaryField
{
    fuel
    {
        type            fixedValue;
        value           uniform 0;
    }
    wall
    {
        type            zeroGradient;
    }
    outlet
    {
        type            zeroGradient;
    }
    frontAndBack
    {
        type            empty;
    }
    procBoundary2to0
    {
        type            processor;
        value           nonuniform List<scalar> 
12
(
5.35042e-08
6.43634e-07
7.34228e-07
9.4782e-07
9.98631e-07
6.47279e-07
7.1933e-07
1.58304e-06
3.94628e-07
7.23204e-08
4.263e-08
3.40516e-08
)
;
    }
    procBoundary2to3
    {
        type            processor;
        value           nonuniform List<scalar> 
25
(
3.34226e-06
6.76244e-06
8.17099e-06
7.99567e-06
6.98208e-06
5.70709e-06
4.51977e-06
3.49844e-06
2.62759e-06
1.96314e-06
1.96314e-06
1.5209e-06
1.1905e-06
9.42087e-07
7.53988e-07
5.90978e-07
4.62636e-07
3.64173e-07
2.90254e-07
2.29854e-07
1.81504e-07
1.41524e-07
1.11499e-07
8.60685e-08
6.772e-08
)
;
    }
}


// ************************************************************************* //
