/*--------------------------------*- C++ -*----------------------------------*\
| =========                 |                                                 |
| \\      /  F ield         | OpenFOAM: The Open Source CFD Toolbox           |
|  \\    /   O peration     | Version:  dev                                   |
|   \\  /    A nd           | Web:      www.OpenFOAM.org                      |
|    \\/     M anipulation  |                                                 |
\*---------------------------------------------------------------------------*/
FoamFile
{
    version     2.0;
    format      ascii;
    class       volScalarField;
    location    "0.01";
    object      C5H5O;
}
// * * * * * * * * * * * * * * * * * * * * * * * * * * * * * * * * * * * * * //

dimensions      [0 0 0 0 0 0 0];

internalField   nonuniform List<scalar> 
1997
(
1.11366e-11
6.08451e-12
2.55395e-12
9.27205e-13
2.86401e-13
8.69015e-14
2.9219e-14
1.36285e-14
8.56385e-15
6.47652e-15
5.27695e-15
4.46947e-15
3.88065e-15
3.40861e-15
3.04841e-15
2.77045e-15
2.57078e-15
2.41605e-15
1.17655e-11
6.4086e-12
2.69958e-12
9.93147e-13
3.13232e-13
9.73432e-14
3.35107e-14
1.54536e-14
9.49993e-15
7.01182e-15
5.65324e-15
4.75841e-15
4.10908e-15
3.59588e-15
3.20757e-15
2.90592e-15
2.69163e-15
2.52459e-15
2.404e-15
2.31145e-15
2.25058e-15
2.20725e-15
2.17906e-15
2.16142e-15
2.15309e-15
2.15272e-15
2.16049e-15
2.17781e-15
1.24864e-11
6.77512e-12
2.86391e-12
1.06638e-12
3.44308e-13
1.09977e-13
3.85043e-14
1.78391e-14
1.06806e-14
7.74696e-15
6.17451e-15
5.16521e-15
4.44381e-15
3.87533e-15
3.44833e-15
3.11428e-15
2.87985e-15
2.6946e-15
2.55899e-15
2.45497e-15
2.38673e-15
2.33784e-15
2.30626e-15
2.28629e-15
2.27688e-15
2.27648e-15
2.28526e-15
2.30484e-15
2.34296e-15
2.39036e-15
2.46073e-15
2.56534e-15
2.70109e-15
2.88781e-15
3.12731e-15
3.46598e-15
3.89781e-15
4.47426e-15
5.20792e-15
6.2561e-15
1.32981e-11
7.18873e-12
3.0489e-12
1.14921e-12
3.78927e-13
1.25034e-13
4.4613e-14
2.08421e-14
1.2228e-14
8.74741e-15
6.88882e-15
5.73683e-15
4.92209e-15
4.27524e-15
3.79769e-15
3.41876e-15
3.15717e-15
2.94753e-15
2.79164e-15
2.6714e-15
2.59291e-15
2.53597e-15
2.49955e-15
2.4762e-15
2.46521e-15
2.46474e-15
2.475e-15
2.49778e-15
2.53873e-15
2.59294e-15
2.67327e-15
2.79317e-15
2.94697e-15
3.15944e-15
3.42618e-15
3.8078e-15
4.2903e-15
4.94427e-15
5.77178e-15
6.96457e-15
8.94325e-15
1.26175e-14
2.17374e-14
4.71473e-14
1.32907e-13
4.01588e-13
1.21096e-12
3.19304e-12
7.4962e-12
1.38374e-11
1.42104e-11
7.65584e-12
3.25866e-12
1.24353e-12
4.18641e-13
1.42035e-13
5.22508e-14
2.44127e-14
1.42954e-14
1.01012e-14
7.87798e-15
6.50448e-15
5.5853e-15
4.83756e-15
4.28844e-15
3.8512e-15
3.53831e-15
3.2971e-15
3.11513e-15
2.97451e-15
2.8829e-15
2.81617e-15
2.77367e-15
2.74625e-15
2.73337e-15
2.73282e-15
2.74485e-15
2.77151e-15
2.81795e-15
2.88118e-15
2.97474e-15
3.11466e-15
3.29243e-15
3.5374e-15
3.85574e-15
4.29415e-15
4.8504e-15
5.60499e-15
6.54301e-15
7.95475e-15
1.02858e-14
1.46831e-14
2.5316e-14
5.48011e-14
1.4988e-13
4.41163e-13
1.30518e-12
3.40068e-12
7.9589e-12
1.47448e-11
1.52496e-11
8.18425e-12
3.49455e-12
1.35143e-12
4.65076e-13
1.62653e-13
6.14845e-14
2.88508e-14
1.68079e-14
1.18619e-14
9.18489e-15
7.51716e-15
6.43755e-15
5.56668e-15
4.92603e-15
4.4166e-15
4.05574e-15
3.77366e-15
3.55804e-15
3.39105e-15
3.28211e-15
3.20266e-15
3.15217e-15
3.1195e-15
3.10417e-15
3.10352e-15
3.11783e-15
3.14948e-15
3.20327e-15
3.27831e-15
3.38927e-15
3.55499e-15
3.76422e-15
4.05055e-15
4.41781e-15
4.92651e-15
5.57703e-15
6.45604e-15
7.55433e-15
9.26404e-15
1.20481e-14
1.72034e-14
2.97934e-14
6.40971e-14
1.70624e-13
4.87997e-13
1.41311e-12
3.63695e-12
8.48815e-12
1.57871e-11
1.64286e-11
8.78307e-12
3.76161e-12
1.47385e-12
5.17408e-13
1.8699e-13
7.2089e-14
3.45472e-14
1.9979e-14
1.4026e-14
1.08108e-14
8.83814e-15
7.55848e-15
6.52702e-15
5.76814e-15
5.18319e-15
4.74544e-15
4.41092e-15
4.15279e-15
3.95184e-15
3.82019e-15
3.72424e-15
3.66339e-15
3.62398e-15
3.60554e-15
3.60475e-15
3.62196e-15
3.66e-15
3.72349e-15
3.8139e-15
3.94757e-15
4.14602e-15
4.39628e-15
4.73466e-15
5.18084e-15
5.7638e-15
6.53382e-15
7.57735e-15
8.8748e-15
1.08954e-14
1.42192e-14
2.0406e-14
3.55495e-14
7.48041e-14
1.95164e-13
5.40632e-13
1.53568e-12
3.90541e-12
9.0899e-12
1.69778e-11
1.77812e-11
9.46339e-12
4.06588e-12
1.61103e-12
5.79114e-13
2.14498e-13
8.491e-14
4.1591e-14
2.41266e-14
1.6871e-14
1.29201e-14
1.05425e-14
9.01756e-15
7.79947e-15
6.86782e-15
6.17211e-15
5.65323e-15
5.25193e-15
4.94037e-15
4.69626e-15
4.53498e-15
4.41775e-15
4.34346e-15
4.29549e-15
4.27312e-15
4.27215e-15
4.29299e-15
4.33918e-15
4.4154e-15
4.52566e-15
4.68882e-15
4.92818e-15
5.23167e-15
5.63508e-15
6.16563e-15
6.85849e-15
7.78193e-15
9.03486e-15
1.05785e-14
1.30039e-14
1.70808e-14
2.45889e-14
4.26678e-14
8.78172e-14
2.22977e-13
6.0293e-13
1.67419e-12
4.21174e-12
9.77559e-12
1.83476e-11
1.93243e-11
1.02412e-11
4.41191e-12
1.76901e-12
6.50449e-13
2.46736e-13
1.00788e-13
4.98496e-14
2.93401e-14
2.05271e-14
1.57072e-14
1.2728e-14
1.09097e-14
9.41448e-15
8.28968e-15
7.48456e-15
6.83673e-15
6.35113e-15
5.97282e-15
5.67458e-15
5.47477e-15
5.33025e-15
5.23857e-15
5.17959e-15
5.15229e-15
5.15108e-15
5.17647e-15
5.2331e-15
5.32596e-15
5.4617e-15
5.66298e-15
5.95287e-15
6.32501e-15
6.80893e-15
7.47343e-15
8.27686e-15
9.39576e-15
1.09199e-14
1.27643e-14
1.58009e-14
2.07573e-14
2.98473e-14
5.10211e-14
1.03901e-13
2.55628e-13
6.75024e-13
1.83269e-12
4.56114e-12
1.05609e-11
1.99097e-11
2.11014e-11
1.11281e-11
4.80495e-12
1.94801e-12
7.30434e-13
2.84485e-13
1.19885e-13
6.02619e-14
3.554e-14
2.49407e-14
1.91108e-14
1.5578e-14
1.34157e-14
1.14912e-14
1.0168e-14
9.15143e-15
8.36951e-15
7.78516e-15
7.31599e-15
6.95088e-15
6.7011e-15
6.52187e-15
6.40762e-15
6.33429e-15
6.30072e-15
6.29919e-15
6.33035e-15
6.40058e-15
6.51514e-15
6.68336e-15
6.93368e-15
7.30586e-15
7.7567e-15
8.32856e-15
9.13574e-15
1.01537e-14
1.14696e-14
1.3418e-14
1.56144e-14
1.92168e-14
2.51978e-14
3.61043e-14
6.15681e-14
1.23221e-13
2.93902e-13
7.56001e-13
2.01408e-12
4.95883e-12
1.14587e-11
2.17101e-11
2.31532e-11
1.21458e-11
5.2553e-12
2.15327e-12
8.228e-13
3.29984e-13
1.4186e-13
7.31694e-14
4.35171e-14
3.06634e-14
2.3495e-14
1.92666e-14
1.64994e-14
1.41456e-14
1.25219e-14
1.12942e-14
1.03446e-14
9.62154e-15
9.05338e-15
8.6064e-15
8.29242e-15
8.06935e-15
7.92586e-15
7.83343e-15
7.79156e-15
7.78962e-15
7.82839e-15
7.91674e-15
8.05944e-15
8.26879e-15
8.58209e-15
9.03468e-15
9.59186e-15
1.02852e-14
1.12743e-14
1.25011e-14
1.4119e-14
1.64966e-14
1.93049e-14
2.36133e-14
3.09588e-14
4.41615e-14
7.46318e-14
1.45474e-13
3.40106e-13
8.49622e-13
2.22206e-12
5.41444e-12
1.24905e-11
2.37928e-11
2.55778e-11
1.33176e-11
5.77135e-12
2.38898e-12
9.31504e-13
3.83783e-13
1.68262e-13
8.8948e-14
5.34891e-14
3.75964e-14
2.89166e-14
2.37666e-14
2.04137e-14
1.75241e-14
1.55313e-14
1.40767e-14
1.29429e-14
1.20321e-14
1.12989e-14
1.07443e-14
1.03716e-14
1.01188e-14
9.94646e-15
9.83208e-15
9.78018e-15
9.77771e-15
9.82567e-15
9.93475e-15
1.01027e-14
1.03467e-14
1.0711e-14
1.12627e-14
1.19529e-14
1.28527e-14
1.40137e-14
1.54995e-14
1.74908e-14
2.04033e-14
2.38069e-14
2.90543e-14
3.7937e-14
5.42296e-14
9.06033e-14
1.72344e-13
3.94699e-13
9.59972e-13
2.46106e-12
5.93795e-12
1.36802e-11
2.62575e-11
2.84158e-11
1.46876e-11
6.36563e-12
2.66028e-12
1.05859e-12
4.44957e-13
1.99712e-13
1.07375e-13
6.52778e-14
4.62313e-14
3.57151e-14
2.94415e-14
2.54322e-14
2.19036e-14
1.93609e-14
1.75912e-14
1.63089e-14
1.50729e-14
1.41669e-14
1.3581e-14
1.31117e-14
1.27919e-14
1.25725e-14
1.24231e-14
1.23545e-14
1.23512e-14
1.24146e-14
1.25571e-14
1.27698e-14
1.30769e-14
1.35333e-14
1.41189e-14
1.5006e-14
1.61806e-14
1.75933e-14
1.93152e-14
2.18606e-14
2.53982e-14
2.9484e-14
3.58765e-14
4.66284e-14
6.61322e-14
1.09258e-13
2.0424e-13
4.56777e-13
1.08897e-12
2.73636e-12
6.54119e-12
1.50736e-11
2.91468e-11
3.17349e-11
1.62635e-11
7.05242e-12
2.97338e-12
1.20636e-12
5.18316e-13
2.37259e-13
1.29782e-13
7.98702e-14
5.69798e-14
4.43343e-14
3.66897e-14
3.19209e-14
2.7546e-14
2.43782e-14
2.22194e-14
2.04766e-14
1.89726e-14
1.79484e-14
1.72446e-14
1.66422e-14
1.62391e-14
1.59628e-14
1.57686e-14
1.56762e-14
1.5672e-14
1.5757e-14
1.59429e-14
1.62089e-14
1.65946e-14
1.71803e-14
1.7879e-14
1.88863e-14
2.02961e-14
2.20872e-14
2.4297e-14
2.7491e-14
3.18649e-14
3.67219e-14
4.452e-14
5.74454e-14
8.08769e-14
1.31942e-13
2.42333e-13
5.31273e-13
1.23904e-12
3.0543e-12
7.23892e-12
1.66794e-11
3.25173e-11
3.56527e-11
1.81225e-11
7.84872e-12
3.33577e-12
1.37445e-12
6.0321e-13
2.83208e-13
1.56997e-13
9.84896e-14
7.08284e-14
5.49529e-14
4.59847e-14
3.983e-14
3.44568e-14
3.07603e-14
2.79128e-14
2.57937e-14
2.40982e-14
2.27888e-14
2.17978e-14
2.10362e-14
2.05304e-14
2.0189e-14
1.99435e-14
1.98198e-14
1.98142e-14
1.99278e-14
2.01634e-14
2.04896e-14
2.09727e-14
2.17117e-14
2.26991e-14
2.39995e-14
2.56883e-14
2.7782e-14
3.06579e-14
3.43842e-14
3.97456e-14
4.60181e-14
5.51733e-14
7.13816e-14
9.96772e-14
1.59493e-13
2.88982e-13
6.17468e-13
1.40984e-12
3.42253e-12
8.04834e-12
1.85608e-11
3.65158e-11
4.04571e-11
2.02934e-11
8.77699e-12
3.75676e-12
1.57087e-12
7.0603e-13
3.3918e-13
1.90015e-13
1.21445e-13
8.80761e-14
6.84059e-14
5.76737e-14
4.9788e-14
4.33252e-14
3.88646e-14
3.52286e-14
3.25588e-14
3.04662e-14
2.88052e-14
2.76191e-14
2.66996e-14
2.60273e-14
2.56087e-14
2.53392e-14
2.52149e-14
2.52083e-14
2.5322e-14
2.55759e-14
2.59721e-14
2.66248e-14
2.75058e-14
2.86893e-14
3.03375e-14
3.23979e-14
3.50614e-14
3.87346e-14
4.31889e-14
4.97019e-14
5.77082e-14
6.86489e-14
8.87363e-14
1.22849e-13
1.92912e-13
3.45759e-13
7.22001e-13
1.60946e-12
3.85054e-12
8.99263e-12
2.07768e-11
4.14172e-11
4.62526e-11
2.29115e-11
9.86374e-12
4.24747e-12
1.80089e-12
8.28381e-13
4.06465e-13
2.3108e-13
1.48499e-13
1.08629e-13
8.55432e-14
7.18111e-14
6.22243e-14
5.43278e-14
4.87918e-14
4.43984e-14
4.11534e-14
3.85824e-14
3.64942e-14
3.50449e-14
3.39027e-14
3.30565e-14
3.25419e-14
3.2202e-14
3.20365e-14
3.20278e-14
3.21782e-14
3.24995e-14
3.29822e-14
3.38016e-14
3.49041e-14
3.63432e-14
3.84156e-14
4.09465e-14
4.4206e-14
4.86277e-14
5.41572e-14
6.21056e-14
7.1846e-14
8.58359e-14
1.09414e-13
1.50154e-13
2.34542e-13
4.13999e-13
8.46298e-13
1.84328e-12
4.34962e-12
1.00987e-11
2.34481e-11
4.73194e-11
5.33474e-11
2.60495e-11
1.11412e-11
4.82201e-12
2.07103e-12
9.69339e-13
4.8438e-13
2.8178e-13
1.81661e-13
1.3425e-13
1.06081e-13
8.94944e-14
7.78484e-14
6.81774e-14
6.13238e-14
5.61684e-14
5.20606e-14
4.89197e-14
4.65401e-14
4.47424e-14
4.32381e-14
4.22608e-14
4.16223e-14
4.11921e-14
4.09795e-14
4.0968e-14
4.11596e-14
4.15666e-14
4.21597e-14
4.31195e-14
4.45759e-14
4.63386e-14
4.87014e-14
5.1822e-14
5.5863e-14
6.11206e-14
6.79609e-14
7.76828e-14
8.9529e-14
1.0643e-13
1.352e-13
1.83619e-13
2.8585e-13
4.93013e-13
9.89521e-13
2.11823e-12
4.93416e-12
1.13995e-11
2.66499e-11
5.45703e-11
6.22319e-11
2.98551e-11
1.26599e-11
5.49794e-12
2.38906e-12
1.13684e-12
5.78036e-13
3.41119e-13
2.23304e-13
1.65685e-13
1.31601e-13
1.11593e-13
9.80074e-14
8.55883e-14
7.71918e-14
7.14091e-14
6.59558e-14
6.22507e-14
5.94892e-14
5.68767e-14
5.53779e-14
5.41327e-14
5.33359e-14
5.27962e-14
5.25277e-14
5.25128e-14
5.27531e-14
5.32639e-14
5.40007e-14
5.52195e-14
5.66647e-14
5.92294e-14
6.19801e-14
6.56136e-14
7.09975e-14
7.69261e-14
8.53148e-14
9.77938e-14
1.11625e-13
1.3202e-13
1.66819e-13
2.25631e-13
3.45894e-13
5.87974e-13
1.15971e-12
2.44162e-12
5.62207e-12
1.29468e-11
3.05299e-11
6.36741e-11
7.37453e-11
3.44536e-11
1.44744e-11
6.29733e-12
2.76501e-12
1.33635e-12
6.93833e-13
4.13248e-13
2.75313e-13
2.05802e-13
1.63298e-13
1.3919e-13
1.22495e-13
1.07478e-13
9.71548e-14
9.01418e-14
8.3495e-14
7.89942e-14
7.55245e-14
7.23599e-14
7.04201e-14
6.88543e-14
6.78605e-14
6.71889e-14
6.68542e-14
6.68351e-14
6.71328e-14
6.77685e-14
6.86898e-14
7.02157e-14
7.20861e-14
7.5193e-14
7.86369e-14
8.30841e-14
8.96248e-14
9.68214e-14
1.07123e-13
1.22227e-13
1.39218e-13
1.63803e-13
2.07188e-13
2.78098e-13
4.18867e-13
7.05411e-13
1.36241e-12
2.82387e-12
6.43586e-12
1.47963e-11
3.52267e-11
7.54522e-11
8.85686e-11
4.02878e-11
1.66622e-11
7.24915e-12
3.21218e-12
1.57458e-12
8.30239e-13
5.0392e-13
3.36733e-13
2.54011e-13
2.02668e-13
1.73648e-13
1.53176e-13
1.35011e-13
1.22346e-13
1.13874e-13
1.05745e-13
1.00266e-13
9.5969e-14
9.20964e-14
8.96928e-14
8.77294e-14
8.64758e-14
8.5624e-14
8.52052e-14
8.51802e-14
8.55501e-14
8.63551e-14
8.75285e-14
8.94343e-14
9.17462e-14
9.55467e-14
9.98067e-14
1.05233e-13
1.13213e-13
1.21928e-13
1.34542e-13
1.52839e-13
1.73669e-13
2.03277e-13
2.55672e-13
3.40052e-13
5.10634e-13
8.43681e-13
1.60445e-12
3.27892e-12
7.40536e-12
1.70266e-11
4.1185e-11
9.06147e-11
1.07875e-10
4.75563e-11
1.93132e-11
8.38753e-12
3.74457e-12
1.85998e-12
9.95186e-13
6.15347e-13
4.14647e-13
3.14818e-13
2.52144e-13
2.16703e-13
1.92371e-13
1.69672e-13
1.54998e-13
1.43946e-13
1.33975e-13
1.2731e-13
1.22032e-13
1.17917e-13
1.14976e-13
1.12492e-13
1.10888e-13
1.09769e-13
1.09245e-13
1.09213e-13
1.09673e-13
1.10732e-13
1.12256e-13
1.14644e-13
1.17468e-13
1.21494e-13
1.26722e-13
1.33332e-13
1.4309e-13
1.54465e-13
1.69039e-13
1.91924e-13
2.16717e-13
2.52888e-13
3.16849e-13
4.18675e-13
6.23318e-13
1.01122e-12
1.89441e-12
3.82043e-12
8.56492e-12
1.97316e-11
4.862e-11
1.10369e-10
1.33195e-10
5.69172e-11
2.25814e-11
9.7611e-12
4.38277e-12
2.20316e-12
1.19483e-12
7.46974e-13
5.11519e-13
3.88956e-13
3.15455e-13
2.70841e-13
2.40729e-13
2.1333e-13
1.95347e-13
1.82066e-13
1.698e-13
1.61731e-13
1.5528e-13
1.50117e-13
1.46443e-13
1.43357e-13
1.4134e-13
1.39943e-13
1.39292e-13
1.39251e-13
1.3982e-13
1.41141e-13
1.43069e-13
1.46022e-13
1.49555e-13
1.54586e-13
1.60951e-13
1.69009e-13
1.80961e-13
1.94679e-13
2.12472e-13
2.40163e-13
2.70742e-13
3.16362e-13
3.91406e-13
5.16374e-13
7.56407e-13
1.2136e-12
2.24306e-12
4.46974e-12
9.96462e-12
2.30686e-11
5.82015e-11
1.36267e-10
1.65706e-10
6.93968e-11
2.67006e-11
1.14357e-11
5.15214e-12
2.61751e-12
1.43724e-12
9.08205e-13
6.26935e-13
4.80935e-13
3.91809e-13
3.38253e-13
3.01461e-13
2.68661e-13
2.46448e-13
2.3043e-13
2.1533e-13
2.05602e-13
1.97714e-13
1.91252e-13
1.86721e-13
1.82935e-13
1.80581e-13
1.7889e-13
1.78098e-13
1.78043e-13
1.7873e-13
1.80319e-13
1.82558e-13
1.86188e-13
1.90551e-13
1.96822e-13
2.04568e-13
2.14328e-13
2.29018e-13
2.45605e-13
2.67322e-13
3.00744e-13
3.38118e-13
3.92905e-13
4.839e-13
6.32767e-13
9.19393e-13
1.45934e-12
2.66399e-12
5.25264e-12
1.16711e-11
2.72779e-11
7.0982e-11
1.69525e-10
2.08156e-10
8.59332e-11
3.19511e-11
1.34915e-11
6.08547e-12
3.12009e-12
1.73267e-12
1.1062e-12
7.69777e-13
5.95251e-13
4.87241e-13
4.22771e-13
3.77826e-13
3.38296e-13
3.11256e-13
2.91858e-13
2.73303e-13
2.61559e-13
2.51945e-13
2.4387e-13
2.38329e-13
2.33674e-13
2.30735e-13
2.28648e-13
2.27661e-13
2.27591e-13
2.28443e-13
2.30397e-13
2.33169e-13
2.37649e-13
2.4299e-13
2.50774e-13
2.602e-13
2.71999e-13
2.90079e-13
3.1018e-13
3.36427e-13
3.76922e-13
4.22581e-13
4.88559e-13
5.98853e-13
7.76805e-13
1.11949e-12
1.75879e-12
3.17456e-12
6.20251e-12
1.37675e-11
3.26449e-11
8.79196e-11
2.12926e-10
2.63015e-10
1.07912e-10
3.87254e-11
1.60552e-11
7.23363e-12
3.73286e-12
2.09416e-12
1.35107e-12
9.46885e-13
7.37643e-13
6.06717e-13
5.28982e-13
4.74013e-13
4.2646e-13
3.93578e-13
3.70003e-13
3.4725e-13
3.32997e-13
3.21451e-13
3.11686e-13
3.04546e-13
2.98805e-13
2.95155e-13
2.92569e-13
2.91339e-13
2.91248e-13
2.92304e-13
2.94714e-13
2.98128e-13
3.03677e-13
3.10545e-13
3.19784e-13
3.31181e-13
3.45555e-13
3.67797e-13
3.92189e-13
4.24767e-13
4.72878e-13
5.28711e-13
6.08291e-13
7.42036e-13
9.55375e-13
1.36732e-12
2.1252e-12
3.79706e-12
7.37186e-12
1.63832e-11
3.95777e-11
1.10437e-10
2.6897e-10
3.33943e-10
1.36881e-10
4.76956e-11
1.92992e-11
8.66223e-12
4.48434e-12
2.53852e-12
1.65248e-12
1.16705e-12
9.15473e-13
7.56643e-13
6.62827e-13
5.95422e-13
5.38388e-13
4.98317e-13
4.69632e-13
4.4175e-13
4.24232e-13
4.10468e-13
3.98338e-13
3.89655e-13
3.82564e-13
3.78026e-13
3.74811e-13
3.73277e-13
3.7316e-13
3.74467e-13
3.77443e-13
3.81655e-13
3.88548e-13
3.96873e-13
4.08046e-13
4.21832e-13
4.39589e-13
4.66941e-13
4.96498e-13
5.35941e-13
5.94002e-13
6.62422e-13
7.58504e-13
9.20851e-13
1.17733e-12
1.67196e-12
2.57557e-12
4.56045e-12
8.82656e-12
1.96947e-11
4.87642e-11
1.40087e-10
3.41265e-10
4.21888e-10
1.75608e-10
5.97758e-11
2.34801e-11
1.04453e-11
5.42355e-12
3.08766e-12
2.02641e-12
1.44164e-12
1.13825e-12
9.45303e-13
8.32066e-13
7.49087e-13
6.80859e-13
6.31869e-13
5.98235e-13
5.64969e-13
5.43142e-13
5.24891e-13
5.09872e-13
4.99277e-13
4.90513e-13
4.8485e-13
4.80843e-13
4.78928e-13
4.78776e-13
4.80395e-13
4.84141e-13
4.89309e-13
4.97858e-13
5.0798e-13
5.23258e-13
5.4038e-13
5.62228e-13
5.94827e-13
6.29518e-13
6.77493e-13
7.47348e-13
8.31377e-13
9.47475e-13
1.14485e-12
1.45412e-12
2.04997e-12
3.13211e-12
5.51545e-12
1.06431e-11
2.39658e-11
6.11416e-11
1.7961e-10
4.30942e-10
5.3084e-10
2.26476e-10
7.62471e-11
2.89835e-11
1.26705e-11
6.60507e-12
3.77039e-12
2.49268e-12
1.78553e-12
1.41833e-12
1.18346e-12
1.04646e-12
9.44305e-13
8.62296e-13
8.02942e-13
7.61697e-13
7.21198e-13
6.94212e-13
6.72358e-13
6.53834e-13
6.40843e-13
6.29995e-13
6.22892e-13
6.17887e-13
6.15497e-13
6.15299e-13
6.17304e-13
6.21951e-13
6.28425e-13
6.39005e-13
6.51389e-13
6.6974e-13
6.905e-13
7.17706e-13
7.57474e-13
7.99833e-13
8.57774e-13
9.42292e-13
1.04546e-12
1.18596e-12
1.42646e-12
1.80075e-12
2.52138e-12
3.82401e-12
6.7158e-12
1.29112e-11
2.95957e-11
7.80207e-11
2.31728e-10
5.41586e-10
6.62207e-10
2.92488e-10
9.88426e-11
3.64005e-11
1.55607e-11
8.09639e-12
4.63298e-12
3.07746e-12
2.22114e-12
1.77197e-12
1.48521e-12
1.31928e-12
1.19344e-12
1.09395e-12
1.02279e-12
9.71928e-13
9.23276e-13
8.89601e-13
8.63013e-13
8.40261e-13
8.24218e-13
8.10792e-13
8.01814e-13
7.95546e-13
7.92562e-13
7.92303e-13
7.94787e-13
8.0058e-13
8.08762e-13
8.21824e-13
8.37092e-13
8.59495e-13
8.84659e-13
9.18653e-13
9.66633e-13
1.01887e-12
1.08785e-12
1.19112e-12
1.31778e-12
1.48805e-12
1.78199e-12
2.24025e-12
3.11268e-12
4.69955e-12
8.23115e-12
1.58586e-11
3.71842e-11
1.01168e-10
2.99076e-10
6.75137e-10
8.21904e-10
3.7662e-10
1.30168e-10
4.6596e-11
1.93686e-11
1.00065e-11
5.74546e-12
3.81568e-12
2.76963e-12
2.22069e-12
1.86913e-12
1.6682e-12
1.51263e-12
1.39108e-12
1.30802e-12
1.24618e-12
1.18953e-12
1.14632e-12
1.11386e-12
1.08567e-12
1.06545e-12
1.04862e-12
1.03697e-12
1.02897e-12
1.02518e-12
1.02483e-12
1.02795e-12
1.03531e-12
1.04595e-12
1.06223e-12
1.08145e-12
1.1091e-12
1.1399e-12
1.18299e-12
1.23933e-12
1.30174e-12
1.38363e-12
1.50921e-12
1.66574e-12
1.87241e-12
2.23305e-12
2.79331e-12
3.85919e-12
5.82746e-12
1.01725e-11
1.97382e-11
4.76223e-11
1.33238e-10
3.84803e-10
8.37218e-10
1.00265e-09
4.81632e-10
1.72564e-10
6.08488e-11
2.44351e-11
1.24497e-11
7.17231e-12
4.78157e-12
3.46905e-12
2.79342e-12
2.36007e-12
2.11714e-12
1.92357e-12
1.77416e-12
1.67579e-12
1.59971e-12
1.53223e-12
1.47658e-12
1.43745e-12
1.40284e-12
1.37746e-12
1.35675e-12
1.34162e-12
1.33151e-12
1.32676e-12
1.3263e-12
1.33017e-12
1.33945e-12
1.35327e-12
1.37325e-12
1.39734e-12
1.43115e-12
1.46855e-12
1.52345e-12
1.59088e-12
1.66824e-12
1.76508e-12
1.91844e-12
2.11252e-12
2.36408e-12
2.80869e-12
3.49885e-12
4.83647e-12
7.2749e-12
1.2657e-11
2.49085e-11
6.22171e-11
1.76548e-10
4.91687e-10
1.02039e-09
1.20824e-09
6.0982e-10
2.2909e-10
8.095e-11
3.15018e-11
1.57412e-11
9.03135e-12
6.03339e-12
4.36824e-12
3.54669e-12
3.00211e-12
2.69907e-12
2.46328e-12
2.27829e-12
2.15473e-12
2.06304e-12
1.98879e-12
1.91561e-12
1.86846e-12
1.82542e-12
1.79296e-12
1.76227e-12
1.74215e-12
1.72927e-12
1.72327e-12
1.72267e-12
1.7275e-12
1.7393e-12
1.75767e-12
1.78731e-12
1.81809e-12
1.85985e-12
1.90514e-12
1.97692e-12
2.05105e-12
2.14572e-12
2.2669e-12
2.45555e-12
2.69711e-12
3.00768e-12
3.56614e-12
4.40612e-12
6.10274e-12
9.16292e-12
1.60076e-11
3.21261e-11
8.27954e-11
2.34274e-10
6.21978e-10
1.22847e-09
1.43734e-09
7.66506e-10
3.03438e-10
1.0943e-10
4.13961e-11
2.01703e-11
1.14318e-11
7.67756e-12
5.57609e-12
4.50522e-12
3.85259e-12
3.46168e-12
3.18043e-12
2.95033e-12
2.79764e-12
2.67216e-12
2.58411e-12
2.50384e-12
2.44757e-12
2.37857e-12
2.33742e-12
2.3032e-12
2.28027e-12
2.26577e-12
2.25892e-12
2.25814e-12
2.26346e-12
2.27659e-12
2.29751e-12
2.32994e-12
2.36894e-12
2.43607e-12
2.49026e-12
2.56847e-12
2.65659e-12
2.7873e-12
2.93602e-12
3.16957e-12
3.45511e-12
3.861e-12
4.53073e-12
5.62483e-12
7.76631e-12
1.16072e-11
2.05169e-11
4.22374e-11
1.11934e-10
3.10084e-10
7.81074e-10
1.46006e-09
1.68747e-09
9.45637e-10
3.98962e-10
1.49261e-10
5.56163e-11
2.64445e-11
1.47216e-11
9.81711e-12
7.17924e-12
5.80583e-12
4.94529e-12
4.46657e-12
4.13077e-12
3.84562e-12
3.6606e-12
3.49753e-12
3.37863e-12
3.29192e-12
3.20436e-12
3.12585e-12
3.08141e-12
3.04263e-12
3.01064e-12
2.99148e-12
2.98252e-12
2.98146e-12
2.98832e-12
3.00561e-12
3.03505e-12
3.07158e-12
3.11305e-12
3.18908e-12
3.27401e-12
3.35774e-12
3.47703e-12
3.65104e-12
3.82741e-12
4.11562e-12
4.45652e-12
4.95646e-12
5.84214e-12
7.24251e-12
9.93189e-12
1.49235e-11
2.69094e-11
5.6771e-11
1.52629e-10
4.07336e-10
9.62181e-10
1.71259e-09
1.95544e-09
1.14969e-09
5.18632e-10
2.03739e-10
7.62029e-11
3.53656e-11
1.92613e-11
1.27379e-11
9.28576e-12
7.5118e-12
6.45302e-12
5.83102e-12
5.41202e-12
5.05593e-12
4.83064e-12
4.62441e-12
4.46842e-12
4.33516e-12
4.23078e-12
4.15712e-12
4.10022e-12
4.05053e-12
4.00527e-12
3.97982e-12
3.968e-12
3.96652e-12
3.97542e-12
3.99831e-12
4.04017e-12
4.0867e-12
4.13982e-12
4.21024e-12
4.31129e-12
4.4398e-12
4.5971e-12
4.79273e-12
5.03131e-12
5.39178e-12
5.82092e-12
6.46586e-12
7.55951e-12
9.36821e-12
1.28893e-11
1.95438e-11
3.59991e-11
7.78003e-11
2.08215e-10
5.2899e-10
1.16874e-09
1.98284e-09
2.23737e-09
1.37788e-09
6.64634e-10
2.77099e-10
1.0592e-10
4.84288e-11
2.57691e-11
1.68344e-11
1.22035e-11
9.86154e-12
8.47065e-12
7.68387e-12
7.15868e-12
6.72373e-12
6.40564e-12
6.1841e-12
5.95393e-12
5.79329e-12
5.65615e-12
5.54932e-12
5.47733e-12
5.41415e-12
5.38601e-12
5.35169e-12
5.33583e-12
5.33373e-12
5.34544e-12
5.37618e-12
5.39988e-12
5.45853e-12
5.52559e-12
5.62697e-12
5.76019e-12
5.91399e-12
6.14748e-12
6.37193e-12
6.69107e-12
7.13025e-12
7.66823e-12
8.48744e-12
9.9241e-12
1.23123e-11
1.70385e-11
2.6159e-11
4.93065e-11
1.08126e-10
2.82918e-10
6.77175e-10
1.3993e-09
2.26685e-09
2.52881e-09
1.62766e-09
8.39497e-10
3.72902e-10
1.48264e-10
6.77253e-11
3.54688e-11
2.2848e-11
1.63585e-11
1.3238e-11
1.13287e-11
1.02946e-11
9.58183e-12
9.01847e-12
8.63056e-12
8.33916e-12
8.05312e-12
7.83348e-12
7.66077e-12
7.51732e-12
7.42535e-12
7.34465e-12
7.29832e-12
7.25119e-12
7.2296e-12
7.22657e-12
7.24215e-12
7.28424e-12
7.32446e-12
7.39854e-12
7.48419e-12
7.61933e-12
7.78721e-12
7.99503e-12
8.29056e-12
8.58368e-12
8.97295e-12
9.54199e-12
1.02701e-11
1.13522e-11
1.33115e-11
1.65042e-11
2.313e-11
3.60182e-11
6.89733e-11
1.51276e-10
3.80334e-10
8.5421e-10
1.65131e-09
2.56015e-09
2.82494e-09
1.89557e-09
1.04071e-09
4.94681e-10
2.07663e-10
9.60884e-11
4.97895e-11
3.18681e-11
2.24882e-11
1.82346e-11
1.55642e-11
1.41761e-11
1.31421e-11
1.24239e-11
1.18614e-11
1.14714e-11
1.10964e-11
1.07975e-11
1.05714e-11
1.03736e-11
1.02529e-11
1.0152e-11
1.00848e-11
1.00194e-11
9.98988e-12
9.9853e-12
1.00057e-11
1.00635e-11
1.01219e-11
1.02135e-11
1.03259e-11
1.05112e-11
1.07302e-11
1.10099e-11
1.14085e-11
1.17942e-11
1.23561e-11
1.3085e-11
1.41392e-11
1.55972e-11
1.83346e-11
2.26786e-11
3.22629e-11
5.05636e-11
9.78219e-11
2.11711e-10
5.03938e-10
1.05767e-09
1.92125e-09
2.85787e-09
3.12284e-09
2.17751e-09
1.26837e-09
6.44899e-10
2.87861e-10
1.37193e-10
7.13331e-11
4.51838e-11
3.17983e-11
2.57548e-11
2.19124e-11
1.98364e-11
1.83863e-11
1.73944e-11
1.67055e-11
1.62046e-11
1.57034e-11
1.53119e-11
1.501e-11
1.47266e-11
1.45174e-11
1.43326e-11
1.42308e-11
1.4136e-11
1.4094e-11
1.4087e-11
1.41155e-11
1.41988e-11
1.42875e-11
1.4457e-11
1.46542e-11
1.4918e-11
1.52086e-11
1.55727e-11
1.60755e-11
1.65966e-11
1.72932e-11
1.83022e-11
1.97816e-11
2.19549e-11
2.58888e-11
3.21146e-11
4.57361e-11
7.24546e-11
1.39571e-10
2.93144e-10
6.56121e-10
1.2875e-09
2.20495e-09
3.15645e-09
3.41414e-09
2.46883e-09
1.51988e-09
8.25434e-10
3.93382e-10
1.95417e-10
1.03242e-10
6.53503e-11
4.57486e-11
3.69656e-11
3.13607e-11
2.84827e-11
2.64783e-11
2.50094e-11
2.40419e-11
2.33381e-11
2.27362e-11
2.20752e-11
2.16508e-11
2.12411e-11
2.09571e-11
2.07015e-11
2.05484e-11
2.04082e-11
2.03476e-11
2.03367e-11
2.03771e-11
2.04989e-11
2.06322e-11
2.08651e-11
2.11329e-11
2.15118e-11
2.19206e-11
2.25722e-11
2.31631e-11
2.38773e-11
2.48619e-11
2.63465e-11
2.83872e-11
3.14104e-11
3.71422e-11
4.61752e-11
6.61161e-11
1.0479e-10
1.98634e-10
4.00079e-10
8.38338e-10
1.541e-09
2.49771e-09
3.44862e-09
3.69605e-09
2.76454e-09
1.79153e-09
1.03487e-09
5.27705e-10
2.752e-10
1.49663e-10
9.62161e-11
6.69991e-11
5.41651e-11
4.62577e-11
)
;

boundaryField
{
    fuel
    {
        type            fixedValue;
        value           nonuniform 0();
    }
    wall
    {
        type            zeroGradient;
    }
    outlet
    {
        type            zeroGradient;
    }
    frontAndBack
    {
        type            empty;
    }
    procBoundary2to0
    {
        type            processor;
        value           nonuniform List<scalar> 
53
(
1.05075e-11
5.75466e-12
2.40408e-12
8.60459e-13
2.60872e-13
7.68782e-14
2.54783e-14
1.21497e-14
7.84253e-15
6.06923e-15
5.02314e-15
4.28377e-15
3.73275e-15
3.29117e-15
2.95149e-15
2.69096e-15
2.50193e-15
2.35707e-15
2.30568e-15
2.30568e-15
2.2221e-15
2.16669e-15
2.12752e-15
2.10184e-15
2.08596e-15
2.07844e-15
2.07811e-15
2.0851e-15
2.1007e-15
2.20736e-15
2.20736e-15
2.24933e-15
2.31186e-15
2.4043e-15
2.52598e-15
2.6989e-15
2.91687e-15
3.22335e-15
3.61533e-15
4.13449e-15
4.79403e-15
5.70271e-15
7.93466e-15
7.93466e-15
1.10064e-14
1.85927e-14
4.06511e-14
1.16656e-13
3.63434e-13
1.11861e-12
2.98582e-12
7.03961e-12
1.29551e-11
)
;
    }
    procBoundary2to3
    {
        type            processor;
        value           nonuniform List<scalar> 
51
(
4.17407e-11
3.88137e-11
3.66744e-11
3.50538e-11
3.40604e-11
3.31686e-11
3.25127e-11
3.19023e-11
3.13019e-11
3.0901e-11
3.05284e-11
3.02994e-11
3.00905e-11
3.00027e-11
2.99855e-11
3.00439e-11
3.02226e-11
3.04219e-11
3.07595e-11
3.11381e-11
3.16912e-11
3.22781e-11
3.29198e-11
3.37979e-11
3.48054e-11
3.64475e-11
3.85226e-11
4.1601e-11
4.59396e-11
5.38952e-11
6.68858e-11
9.62199e-11
1.49924e-10
2.76169e-10
5.30243e-10
1.0407e-09
1.80269e-09
2.78181e-09
3.71924e-09
3.95278e-09
3.04701e-09
2.06658e-09
1.26212e-09
6.86309e-10
3.76868e-10
2.12845e-10
1.39178e-10
9.86215e-11
7.95885e-11
4.17407e-11
6.79019e-11
)
;
    }
}


// ************************************************************************* //
