/*--------------------------------*- C++ -*----------------------------------*\
| =========                 |                                                 |
| \\      /  F ield         | OpenFOAM: The Open Source CFD Toolbox           |
|  \\    /   O peration     | Version:  dev                                   |
|   \\  /    A nd           | Web:      www.OpenFOAM.org                      |
|    \\/     M anipulation  |                                                 |
\*---------------------------------------------------------------------------*/
FoamFile
{
    version     2.0;
    format      ascii;
    class       volScalarField;
    location    "0.01";
    object      CH2CO;
}
// * * * * * * * * * * * * * * * * * * * * * * * * * * * * * * * * * * * * * //

dimensions      [0 0 0 0 0 0 0];

internalField   nonuniform List<scalar> 
250
(
9.05861e-05
0.00110424
0.000721339
0.000616193
0.000569274
0.000538558
0.000516951
0.000504187
0.000498796
0.000241142
0.000403978
0.000290419
0.000258237
0.000243087
0.000232761
0.000225563
0.000221344
0.00021935
0.000409998
0.000221502
0.000165722
0.000149923
0.00014176
0.000135892
0.000131784
0.000129228
0.000127946
0.000592917
0.000168518
0.000117934
0.000106082
9.96828e-05
9.49248e-05
9.15378e-05
8.95339e-05
8.84508e-05
0.000777475
0.000159243
9.37965e-05
8.27699e-05
7.70599e-05
7.28119e-05
6.96698e-05
6.79012e-05
6.68348e-05
0.000944632
0.000178953
8.03565e-05
6.84184e-05
6.31321e-05
5.94565e-05
5.63866e-05
5.48946e-05
5.37952e-05
0.00107314
0.000230577
7.40272e-05
5.90579e-05
5.40135e-05
5.00615e-05
4.79953e-05
4.58469e-05
4.51572e-05
0.00114852
0.000317359
7.40759e-05
5.29331e-05
4.78069e-05
4.43307e-05
4.22012e-05
4.05153e-05
3.97969e-05
0.00116657
0.000430635
8.13357e-05
4.92028e-05
4.34337e-05
4.03084e-05
3.8021e-05
3.65344e-05
3.55441e-05
0.00113048
0.000554772
9.7707e-05
4.75511e-05
4.02619e-05
3.73207e-05
3.49125e-05
3.34958e-05
3.22895e-05
0.00104922
0.000669581
0.000125153
4.80085e-05
3.79711e-05
3.49641e-05
3.27039e-05
3.10623e-05
2.99162e-05
2.94203e-05
0.000935194
0.000755315
0.000164794
5.09969e-05
3.64463e-05
3.30039e-05
3.08471e-05
2.89848e-05
2.78668e-05
2.73054e-05
0.00080199
0.000799551
0.000215956
5.74407e-05
3.57009e-05
3.13182e-05
2.92018e-05
2.7132e-05
2.58556e-05
2.53949e-05
0.000662712
0.000800006
0.000275765
6.8727e-05
3.58293e-05
2.986e-05
2.77332e-05
2.54388e-05
2.41402e-05
2.36427e-05
0.000528649
0.00076347
0.000339349
8.6434e-05
3.70228e-05
2.86338e-05
2.63878e-05
2.38687e-05
2.24959e-05
2.18025e-05
0.000408383
0.00070622
0.00040122
0.000111126
3.96424e-05
2.76777e-05
2.51492e-05
2.25739e-05
2.08866e-05
2.0071e-05
0.000307282
0.00063958
0.000455674
0.000142266
4.42574e-05
2.70446e-05
2.40061e-05
2.12738e-05
1.94187e-05
1.84724e-05
0.000227407
0.000569423
0.000497684
0.000177961
5.15642e-05
2.67862e-05
2.29543e-05
2.00368e-05
1.80507e-05
1.70823e-05
0.000167806
0.000499786
0.000524025
0.000214602
6.20985e-05
2.69526e-05
2.19929e-05
1.90059e-05
1.67087e-05
1.57592e-05
0.000125343
0.000433776
0.000533828
0.000259375
7.56214e-05
2.76095e-05
2.10745e-05
1.80573e-05
1.55754e-05
1.45249e-05
9.60288e-05
0.000373708
0.000528543
0.000292028
9.11666e-05
2.88404e-05
2.02932e-05
1.71822e-05
1.45284e-05
1.33254e-05
7.61326e-05
0.000320997
0.000511478
0.000318115
0.0001075
3.05703e-05
1.9539e-05
1.63712e-05
1.34818e-05
1.22762e-05
6.26829e-05
0.000276181
0.000486575
0.000336313
0.000123131
3.26329e-05
1.89165e-05
1.56135e-05
1.25884e-05
1.12325e-05
5.35573e-05
0.000238971
0.000457087
0.000346019
0.000136572
3.47436e-05
1.83402e-05
1.48986e-05
1.17647e-05
1.03424e-05
4.73266e-05
0.000207905
0.000424879
0.00034744
0.000146584
3.65402e-05
1.7783e-05
1.42015e-05
1.10086e-05
9.52568e-06
4.27048e-05
0.000179713
0.000390601
0.000341342
0.000152331
3.7663e-05
1.72154e-05
1.35372e-05
1.02853e-05
8.78634e-06
)
;

boundaryField
{
    fuel
    {
        type            fixedValue;
        value           uniform 0;
    }
    wall
    {
        type            zeroGradient;
    }
    outlet
    {
        type            zeroGradient;
    }
    frontAndBack
    {
        type            empty;
    }
    procBoundary2to0
    {
        type            processor;
        value           nonuniform List<scalar> 
12
(
9.53103e-06
3.9452e-05
0.000151066
0.000354586
0.000328812
0.000153384
3.78228e-05
1.66107e-05
1.2884e-05
9.57388e-06
8.79597e-06
8.10065e-06
)
;
    }
    procBoundary2to3
    {
        type            processor;
        value           nonuniform List<scalar> 
25
(
0.000496659
0.000218661
0.000127555
8.81365e-05
6.65574e-05
5.33177e-05
4.50189e-05
3.94039e-05
3.51323e-05
3.1843e-05
3.1843e-05
2.94255e-05
2.73101e-05
2.53991e-05
2.36459e-05
2.18023e-05
2.00645e-05
1.84853e-05
1.70911e-05
1.57639e-05
1.45273e-05
1.33331e-05
1.2283e-05
1.12356e-05
1.03448e-05
)
;
    }
}


// ************************************************************************* //
