/*--------------------------------*- C++ -*----------------------------------*\
| =========                 |                                                 |
| \\      /  F ield         | OpenFOAM: The Open Source CFD Toolbox           |
|  \\    /   O peration     | Version:  dev                                   |
|   \\  /    A nd           | Web:      www.OpenFOAM.org                      |
|    \\/     M anipulation  |                                                 |
\*---------------------------------------------------------------------------*/
FoamFile
{
    version     2.0;
    format      ascii;
    class       volScalarField;
    location    "0.01";
    object      H2;
}
// * * * * * * * * * * * * * * * * * * * * * * * * * * * * * * * * * * * * * //

dimensions      [0 0 0 0 0 0 0];

internalField   nonuniform List<scalar> 
250
(
0.000231074
0.0055591
0.00574335
0.00581527
0.00585332
0.00588084
0.00590064
0.00591255
0.00591844
0.000611599
0.00633025
0.00664726
0.00678666
0.00686411
0.0069212
0.00696268
0.00698773
0.00700042
0.000978324
0.00646274
0.00692834
0.00713858
0.00725801
0.0073472
0.00741267
0.00745206
0.0074726
0.00134204
0.00641525
0.00701875
0.00729614
0.00745714
0.00757852
0.00766874
0.00772331
0.00775276
0.00172191
0.00629032
0.0070234
0.00736552
0.00756875
0.0077223
0.00783852
0.0079091
0.00794893
0.00213777
0.00612322
0.00697985
0.00738608
0.00763286
0.00781757
0.00796243
0.00804981
0.00810072
0.00259635
0.00592977
0.00690511
0.00737537
0.00766662
0.0078911
0.00805836
0.00817914
0.00823468
0.00307665
0.00572517
0.00680794
0.00734211
0.00767864
0.00793794
0.00814088
0.00827905
0.00834733
0.00354736
0.00553966
0.00669343
0.00729165
0.00767276
0.00796909
0.0082132
0.00837571
0.00846614
0.00398981
0.00539228
0.00656591
0.00722619
0.00765192
0.0079866
0.0082739
0.00846588
0.00857928
0.0043928
0.00529092
0.00643062
0.00714747
0.00761747
0.00799141
0.00831791
0.00854786
0.00867378
0.00872295
0.00474909
0.00523569
0.00629326
0.00705681
0.00757018
0.007984
0.00835191
0.008622
0.00876219
0.00881965
0.00505363
0.00522159
0.00616008
0.00695538
0.00751058
0.00796456
0.00837622
0.00868841
0.00885246
0.00891084
0.00530303
0.00524083
0.00603743
0.0068445
0.00743923
0.00793327
0.0083903
0.00874693
0.0089301
0.00899579
0.00549565
0.00528426
0.00593099
0.00672594
0.00735685
0.0078904
0.00839442
0.00879744
0.00900366
0.00908477
0.00563191
0.00534231
0.00584307
0.00660432
0.00726443
0.00783651
0.00838872
0.00883478
0.00907356
0.00916691
0.00571455
0.00540591
0.00577435
0.00648477
0.00716334
0.00777248
0.00837369
0.00886677
0.00913421
0.00924015
0.00574877
0.00546705
0.00572397
0.0063727
0.00705542
0.00769964
0.00835007
0.00889085
0.00918691
0.00930062
0.00574176
0.00551935
0.0056897
0.00627421
0.00694367
0.0076198
0.00831884
0.00890484
0.00923389
0.00935426
0.0057019
0.00555844
0.00566833
0.00616674
0.00683344
0.00753523
0.00827925
0.00891125
0.00926863
0.00939961
0.00563761
0.00558198
0.00565636
0.00609146
0.00672993
0.00744898
0.0082368
0.00891051
0.00929497
0.00943777
0.00555634
0.00558953
0.00565036
0.00602944
0.00663566
0.00736558
0.00818762
0.00890313
0.00931404
0.00946459
0.00546417
0.00558215
0.00564754
0.00597975
0.00655265
0.00728813
0.0081422
0.00889024
0.00932294
0.00948275
0.00536608
0.00556183
0.00564602
0.00594157
0.00648238
0.00721944
0.00809876
0.00887292
0.00932304
0.00948903
0.00526645
0.00553086
0.00564499
0.00591395
0.00642576
0.00716182
0.00805931
0.0088515
0.00931416
0.00948407
0.00516998
0.00549141
0.00564452
0.00589604
0.00638323
0.00711695
0.00802532
0.00882706
0.00929498
0.00946696
)
;

boundaryField
{
    fuel
    {
        type            fixedValue;
        value           uniform 0;
    }
    wall
    {
        type            zeroGradient;
    }
    outlet
    {
        type            zeroGradient;
    }
    frontAndBack
    {
        type            empty;
    }
    procBoundary2to0
    {
        type            processor;
        value           nonuniform List<scalar> 
12
(
0.00948563
0.005082
0.00544453
0.00564529
0.00588736
0.00635505
0.00708601
0.00799762
0.00879901
0.00926283
0.00946873
0.00943546
)
;
    }
    procBoundary2to3
    {
        type            processor;
        value           nonuniform List<scalar> 
25
(
0.00592048
0.00700466
0.00747927
0.00776196
0.00796105
0.00811957
0.00825252
0.00837531
0.00850051
0.00862098
0.00862098
0.0087228
0.00881956
0.00891081
0.00899587
0.00908506
0.00916757
0.00924
0.00930074
0.00935467
0.00940025
0.00943843
0.00946545
0.0094839
0.00949042
)
;
    }
}


// ************************************************************************* //
