/*--------------------------------*- C++ -*----------------------------------*\
| =========                 |                                                 |
| \\      /  F ield         | OpenFOAM: The Open Source CFD Toolbox           |
|  \\    /   O peration     | Version:  dev                                   |
|   \\  /    A nd           | Web:      www.OpenFOAM.org                      |
|    \\/     M anipulation  |                                                 |
\*---------------------------------------------------------------------------*/
FoamFile
{
    version     2.0;
    format      ascii;
    class       volScalarField;
    location    "0.01";
    object      N2;
}
// * * * * * * * * * * * * * * * * * * * * * * * * * * * * * * * * * * * * * //

dimensions      [0 0 0 0 0 0 0];

internalField   nonuniform List<scalar> 
250
(
0.022967
0.00968571
0.00571305
0.00393825
0.00310194
0.000949149
0.000432033
0.000348337
0.000313149
0.0699401
0.0338471
0.0197549
0.0120859
0.00611119
0.00182568
0.000827109
0.000668773
0.000601339
0.108
0.0615325
0.0373686
0.0223891
0.00977878
0.00286628
0.00129441
0.00105239
0.000946937
0.122821
0.0824229
0.0540869
0.0339081
0.0142552
0.00410761
0.00184866
0.00151547
0.00136454
0.116428
0.090657
0.0662247
0.04483
0.0196633
0.00557259
0.0024973
0.00207024
0.00186521
0.101124
0.0894478
0.0732206
0.0539075
0.0256211
0.00727947
0.00324447
0.00272752
0.00245944
0.0885273
0.0861533
0.0770899
0.0609512
0.0316664
0.00924666
0.00424469
0.00349869
0.00315773
0.0838514
0.0868657
0.0806686
0.0666228
0.0374889
0.0114947
0.00542541
0.00446969
0.00401
0.0868006
0.0937634
0.0861684
0.0718504
0.0429626
0.0140499
0.00661345
0.00551967
0.00510041
0.094572
0.105842
0.0946166
0.0773903
0.0481065
0.0169133
0.00796935
0.00686775
0.00637906
0.104976
0.120824
0.106129
0.0836791
0.0530295
0.0200313
0.00950405
0.00846236
0.007867
0.00771766
0.116848
0.137545
0.120478
0.0908848
0.057841
0.0233558
0.0112228
0.0102854
0.00936866
0.00924808
0.129582
0.155677
0.137348
0.0990173
0.0626235
0.0268438
0.0131288
0.0123339
0.0110516
0.0109425
0.14286
0.175129
0.156423
0.107996
0.0674224
0.0304563
0.0152239
0.0146044
0.013035
0.0128496
0.156535
0.195959
0.177374
0.117732
0.0722591
0.0341552
0.0175102
0.016882
0.0153901
0.0149877
0.170606
0.218209
0.199764
0.128106
0.0771337
0.0379055
0.0199909
0.0194063
0.0180155
0.0176729
0.185212
0.24181
0.222978
0.138946
0.0820201
0.0416742
0.0226661
0.0221644
0.0209338
0.0204172
0.200633
0.266534
0.246204
0.150011
0.086964
0.045434
0.0255328
0.0251458
0.023806
0.0233381
0.217259
0.291961
0.268482
0.160996
0.0917892
0.0491921
0.0285856
0.0283496
0.0269131
0.0264921
0.235531
0.317446
0.288798
0.171553
0.0964478
0.0528609
0.0318158
0.0317798
0.0303269
0.0299392
0.255806
0.342148
0.306204
0.181335
0.100864
0.056425
0.035211
0.0354454
0.0343785
0.0340444
0.278216
0.365126
0.319952
0.190018
0.104954
0.0598612
0.0387506
0.0393673
0.03843
0.0384442
0.302568
0.385481
0.329592
0.197338
0.108642
0.0631423
0.0424388
0.0437228
0.0428663
0.0431778
0.328291
0.402497
0.33503
0.203108
0.111864
0.0662473
0.04622
0.048338
0.0477459
0.0485862
0.35483
0.415745
0.336539
0.20724
0.11457
0.0691717
0.0500923
0.0530235
0.0531293
0.0543259
0.381737
0.425103
0.334709
0.209779
0.116729
0.0719183
0.0540427
0.0581195
0.0591138
0.0608717
)
;

boundaryField
{
    fuel
    {
        type            fixedValue;
        value           uniform 0;
    }
    wall
    {
        type            zeroGradient;
    }
    outlet
    {
        type            zeroGradient;
    }
    frontAndBack
    {
        type            empty;
    }
    procBoundary2to0
    {
        type            processor;
        value           nonuniform List<scalar> 
12
(
0.0544032
0.407642
0.430754
0.330361
0.210948
0.11831
0.0744823
0.0580844
0.0636673
0.0657434
0.0608866
0.0687799
)
;
    }
    procBoundary2to3
    {
        type            processor;
        value           nonuniform List<scalar> 
25
(
0.000307884
0.000591381
0.000931772
0.00134361
0.00183789
0.00242497
0.00311501
0.00400758
0.0051048
0.00639884
0.00639884
0.00771905
0.00924938
0.01094
0.0128453
0.0149897
0.017611
0.0205019
0.0233662
0.0265063
0.0299388
0.0339148
0.0385536
0.0432245
0.0486282
)
;
    }
}


// ************************************************************************* //
