/*--------------------------------*- C++ -*----------------------------------*\
| =========                 |                                                 |
| \\      /  F ield         | OpenFOAM: The Open Source CFD Toolbox           |
|  \\    /   O peration     | Version:  dev                                   |
|   \\  /    A nd           | Web:      www.OpenFOAM.org                      |
|    \\/     M anipulation  |                                                 |
\*---------------------------------------------------------------------------*/
FoamFile
{
    version     2.0;
    format      ascii;
    class       volScalarField;
    location    "0.01";
    object      OH;
}
// * * * * * * * * * * * * * * * * * * * * * * * * * * * * * * * * * * * * * //

dimensions      [0 0 0 0 0 0 0];

internalField   nonuniform List<scalar> 
25
(
4.60842e-08
2.90952e-08
1.81317e-08
1.12996e-08
7.12791e-09
4.37274e-09
2.78808e-09
1.78119e-09
1.15187e-09
7.62899e-10
4.90875e-10
3.33634e-10
2.27385e-10
1.49958e-10
1.07575e-10
7.97809e-11
5.94422e-11
4.80457e-11
4.02353e-11
3.47856e-11
3.06246e-11
2.69001e-11
2.317e-11
1.94618e-11
1.5858e-11
)
;

boundaryField
{
    wall
    {
        type            zeroGradient;
    }
    fuel
    {
        type            fixedValue;
        value           nonuniform 0();
    }
    outlet
    {
        type            inletOutlet;
        inletValue      nonuniform 0();
        value           nonuniform 0();
    }
    procBoundary2to1
    {
        type            processor;
        value           uniform 7.08147e-08;
    }
    procBoundary2to3
    {
        type            processor;
        value           uniform 1.25584e-11;
    }
}


// ************************************************************************* //
