# Probe 0 (0 0 0)
# Probe 1 (0 0 0.005)
# Probe 2 (0 0 0.4)
# Probe 3 (0 0 0.9)
#       Probe             0             1             2             3
#        Time
   0.00788462   7.45079e+14   6.49075e+14             0             0
   0.00790385   7.45079e+14   6.49075e+14             0             0
   0.00792308   7.45079e+14   6.49075e+14             0             0
   0.00794231   7.45079e+14   6.49074e+14             0             0
   0.00796154   7.45079e+14   6.49074e+14             0             0
   0.00798077   7.45079e+14   6.49074e+14             0             0
        0.008   7.45079e+14   6.49074e+14             0             0
   0.00801923   7.45079e+14   6.49074e+14             0             0
   0.00803846   7.45079e+14   6.49074e+14             0             0
   0.00805769   7.45079e+14   6.49074e+14             0             0
   0.00807692   7.45079e+14   6.49074e+14             0             0
   0.00809615   7.45079e+14   6.49074e+14             0             0
   0.00811538   7.45079e+14   6.49074e+14             0             0
   0.00813462   7.45079e+14   6.49074e+14             0             0
   0.00815385   7.45079e+14   6.49074e+14             0             0
   0.00817308   7.45079e+14   6.49074e+14             0             0
   0.00819231   7.45079e+14   6.49074e+14             0             0
   0.00821154   7.45079e+14   6.49074e+14             0             0
   0.00823077   7.45079e+14   6.49074e+14             0             0
      0.00825   7.45079e+14   6.49074e+14             0             0
   0.00826923   7.45079e+14   6.49074e+14             0             0
   0.00828846   7.45079e+14   6.49074e+14             0             0
   0.00830769   7.45079e+14   6.49074e+14             0             0
   0.00832692   7.45079e+14   6.49074e+14             0             0
   0.00834615   7.45079e+14   6.49074e+14             0             0
   0.00836538   7.45079e+14   6.49074e+14             0             0
   0.00838462   7.45079e+14   6.49074e+14             0             0
   0.00840385   7.45079e+14   6.49074e+14             0             0
   0.00842308   7.45079e+14   6.49074e+14             0             0
   0.00844231   7.45079e+14   6.49074e+14             0             0
   0.00846154   7.45079e+14   6.49074e+14             0             0
   0.00848077   7.45079e+14   6.49074e+14             0             0
       0.0085   7.45079e+14   6.49074e+14             0             0
   0.00851923   7.45079e+14   6.49074e+14             0             0
   0.00853846   7.45079e+14   6.49074e+14             0             0
   0.00855769   7.45079e+14   6.49074e+14             0             0
   0.00857692   7.45079e+14   6.49074e+14             0             0
   0.00859615   7.45079e+14   6.49074e+14             0             0
   0.00861538   7.45079e+14   6.49074e+14             0             0
   0.00863462   7.45079e+14   6.49074e+14             0             0
   0.00865385   7.45079e+14   6.49074e+14             0             0
   0.00867308   7.45079e+14   6.49074e+14             0             0
   0.00869231   7.45079e+14   6.49074e+14             0             0
   0.00871154   7.45079e+14   6.49074e+14             0             0
   0.00873077   7.45079e+14   6.49074e+14             0             0
      0.00875   7.45079e+14   6.49074e+14             0             0
   0.00876923   7.45079e+14   6.49074e+14             0             0
   0.00878846   7.45079e+14   6.49074e+14             0             0
   0.00880769   7.45079e+14   6.49074e+14             0             0
   0.00882692   7.45079e+14   6.49074e+14             0             0
   0.00884615   7.45079e+14   6.49074e+14             0             0
   0.00886538   7.45079e+14   6.49074e+14             0             0
   0.00888462   7.45079e+14   6.49074e+14             0             0
   0.00890385   7.45079e+14   6.49074e+14             0             0
   0.00892308   7.45079e+14   6.49074e+14             0             0
   0.00894231   7.45079e+14   6.49074e+14             0             0
   0.00896154   7.45079e+14   6.49074e+14             0             0
   0.00898077   7.45079e+14   6.49074e+14             0             0
        0.009   7.45079e+14   6.49074e+14             0             0
   0.00901923   7.45079e+14   6.49074e+14             0             0
   0.00903846   7.45079e+14   6.49074e+14             0             0
   0.00905769   7.45079e+14   6.49074e+14             0             0
   0.00907692   7.45079e+14   6.49074e+14             0             0
   0.00909615   7.45079e+14   6.49074e+14             0             0
   0.00911538   7.45079e+14   6.49074e+14             0             0
   0.00913462   7.45079e+14   6.49074e+14             0             0
   0.00915385   7.45079e+14   6.49074e+14             0             0
   0.00917308   7.45079e+14   6.49074e+14             0             0
   0.00919231   7.45079e+14   6.49074e+14             0             0
   0.00921154   7.45079e+14   6.49074e+14             0             0
   0.00923077   7.45079e+14   6.49074e+14             0             0
      0.00925   7.45079e+14   6.49074e+14             0             0
   0.00926923   7.45079e+14   6.49074e+14             0             0
   0.00928846   7.45079e+14   6.49074e+14             0             0
   0.00930769   7.45079e+14   6.49074e+14             0             0
   0.00932692   7.45079e+14   6.49074e+14             0             0
   0.00934615   7.45079e+14   6.49074e+14             0             0
   0.00936538   7.45079e+14   6.49074e+14             0             0
   0.00938462   7.45079e+14   6.49074e+14             0             0
   0.00940385   7.45079e+14   6.49074e+14             0             0
   0.00942308   7.45079e+14   6.49074e+14             0             0
   0.00944231   7.45079e+14   6.49074e+14             0             0
   0.00946154   7.45079e+14   6.49074e+14             0             0
   0.00948077   7.45079e+14   6.49074e+14             0             0
       0.0095   7.45079e+14   6.49074e+14             0             0
   0.00951923   7.45079e+14   6.49074e+14             0             0
   0.00953846   7.45079e+14   6.49074e+14             0             0
   0.00955769   7.45079e+14   6.49074e+14             0             0
   0.00957692   7.45079e+14   6.49074e+14             0             0
   0.00959615   7.45079e+14   6.49074e+14             0             0
   0.00961538   7.45079e+14   6.49074e+14             0             0
   0.00963462   7.45079e+14   6.49074e+14             0             0
   0.00965385   7.45079e+14   6.49074e+14             0             0
   0.00967308   7.45079e+14   6.49074e+14             0             0
   0.00969231   7.45079e+14   6.49074e+14             0             0
   0.00971154   7.45079e+14   6.49074e+14             0             0
   0.00973077   7.45079e+14   6.49074e+14             0             0
      0.00975   7.45079e+14   6.49074e+14             0             0
   0.00976923   7.45079e+14   6.49074e+14             0             0
   0.00978846   7.45079e+14   6.49074e+14             0             0
   0.00980769   7.45079e+14   6.49074e+14             0             0
   0.00982692   7.45079e+14   6.49074e+14             0             0
   0.00984615   7.45079e+14   6.49074e+14             0             0
   0.00986538   7.45079e+14   6.49074e+14             0             0
   0.00988462   7.45079e+14   6.49074e+14             0             0
   0.00990385   7.45079e+14   6.49074e+14             0             0
   0.00992308   7.45079e+14   6.49074e+14             0             0
   0.00994231   7.45079e+14   6.49074e+14             0             0
   0.00996154   7.45079e+14   6.49074e+14             0             0
   0.00998077   7.45079e+14   6.49074e+14             0             0
         0.01   7.45079e+14   6.49074e+14             0             0
    0.0100192   7.45079e+14   6.49074e+14             0             0
    0.0100385   7.45079e+14   6.49074e+14             0             0
    0.0100577   7.45079e+14   6.49074e+14             0             0
    0.0100769   7.45079e+14   6.49074e+14             0             0
    0.0100962   7.45079e+14   6.49074e+14             0             0
    0.0101154   7.45079e+14   6.49074e+14             0             0
    0.0101346   7.45079e+14   6.49074e+14             0             0
    0.0101538   7.45079e+14   6.49074e+14             0             0
    0.0101731   7.45079e+14   6.49074e+14             0             0
    0.0101923   7.45079e+14   6.49074e+14             0             0
    0.0102115   7.45079e+14   6.49074e+14             0             0
    0.0102308   7.45079e+14   6.49074e+14             0             0
      0.01025   7.45079e+14   6.49074e+14             0             0
    0.0102692   7.45079e+14   6.49074e+14             0             0
    0.0102885   7.45079e+14   6.49074e+14             0             0
    0.0103077   7.45079e+14   6.49074e+14             0             0
    0.0103269   7.45079e+14   6.49074e+14             0             0
    0.0103462   7.45079e+14   6.49074e+14             0             0
    0.0103654   7.45079e+14   6.49074e+14             0             0
    0.0103846   7.45079e+14   6.49074e+14             0             0
    0.0104038   7.45079e+14   6.49074e+14             0             0
    0.0104231   7.45079e+14   6.49074e+14             0             0
    0.0104423   7.45079e+14   6.49074e+14             0             0
    0.0104615   7.45079e+14   6.49074e+14             0             0
    0.0104808   7.45079e+14   6.49074e+14             0             0
       0.0105   7.45079e+14   6.49074e+14             0             0
    0.0105192   7.45079e+14   6.49074e+14             0             0
    0.0105385   7.45079e+14   6.49074e+14             0             0
    0.0105577   7.45079e+14   6.49074e+14             0             0
    0.0105769   7.45079e+14   6.49074e+14             0             0
    0.0105962   7.45079e+14   6.49074e+14             0             0
    0.0106154   7.45079e+14   6.49074e+14             0             0
    0.0106346   7.45079e+14   6.49074e+14             0             0
    0.0106538   7.45079e+14   6.49074e+14             0             0
    0.0106731   7.45079e+14   6.49074e+14             0             0
    0.0106923   7.45079e+14   6.49074e+14             0             0
    0.0107115   7.45079e+14   6.49074e+14             0             0
    0.0107308   7.45079e+14   6.49074e+14             0             0
      0.01075   7.45079e+14   6.49074e+14             0             0
    0.0107692   7.45079e+14   6.49074e+14             0             0
    0.0107885   7.45079e+14   6.49074e+14             0             0
    0.0108077   7.45079e+14   6.49074e+14             0             0
    0.0108269   7.45079e+14   6.49074e+14             0             0
    0.0108462   7.45079e+14   6.49074e+14             0             0
    0.0108654   7.45079e+14   6.49074e+14             0             0
    0.0108846   7.45079e+14   6.49074e+14             0             0
    0.0109038   7.45079e+14   6.49074e+14             0             0
    0.0109231   7.45079e+14   6.49074e+14             0             0
    0.0109423   7.45079e+14   6.49074e+14             0             0
    0.0109615   7.45079e+14   6.49074e+14             0             0
    0.0109808   7.45079e+14   6.49074e+14             0             0
        0.011   7.45079e+14   6.49074e+14             0             0
    0.0110192   7.45079e+14   6.49074e+14             0             0
    0.0110385   7.45079e+14   6.49074e+14             0             0
    0.0110577   7.45079e+14   6.49074e+14             0             0
    0.0110769   7.45079e+14   6.49074e+14             0             0
    0.0110962   7.45079e+14   6.49074e+14             0             0
    0.0111154   7.45079e+14   6.49074e+14             0             0
    0.0111346   7.45079e+14   6.49074e+14             0             0
    0.0111538   7.45079e+14   6.49074e+14             0             0
    0.0111731   7.45079e+14   6.49074e+14             0             0
    0.0111923   7.45079e+14   6.49074e+14             0             0
    0.0112115   7.45079e+14   6.49074e+14             0             0
    0.0112308   7.45079e+14   6.49074e+14             0             0
      0.01125   7.45079e+14   6.49074e+14             0             0
    0.0112692   7.45079e+14   6.49074e+14             0             0
    0.0112885   7.45079e+14   6.49074e+14             0             0
    0.0113077   7.45079e+14   6.49074e+14             0             0
    0.0113269   7.45079e+14   6.49074e+14             0             0
    0.0113462   7.45079e+14   6.49074e+14             0             0
    0.0113654   7.45079e+14   6.49074e+14             0             0
    0.0113846   7.45079e+14   6.49074e+14             0             0
    0.0114038   7.45079e+14   6.49074e+14             0             0
    0.0114231   7.45079e+14   6.49074e+14             0             0
    0.0114423   7.45079e+14   6.49074e+14             0             0
    0.0114615   7.45079e+14   6.49074e+14             0             0
    0.0114808   7.45079e+14   6.49074e+14             0             0
       0.0115   7.45079e+14   6.49074e+14             0             0
    0.0115192   7.45079e+14   6.49074e+14             0             0
