# Probe 0 (0 0 0)
# Probe 1 (0 0 0.005)
# Probe 2 (0 0 0.4)
# Probe 3 (0 0 0.9)
#       Probe             0             1             2             3
#        Time
   0.00788462       110.578       107.316             0             0
   0.00790385       110.578       107.316             0             0
   0.00792308       110.578       107.316             0             0
   0.00794231       110.578       107.316             0             0
   0.00796154       110.578       107.316             0             0
   0.00798077       110.578       107.316             0             0
        0.008       110.578       107.316             0             0
   0.00801923       110.578       107.316             0             0
   0.00803846       110.578       107.316             0             0
   0.00805769       110.578       107.316             0             0
   0.00807692       110.578       107.316             0             0
   0.00809615       110.578       107.316             0             0
   0.00811538       110.578       107.316             0             0
   0.00813462       110.578       107.316             0             0
   0.00815385       110.578       107.316             0             0
   0.00817308       110.578       107.316             0             0
   0.00819231       110.578       107.316             0             0
   0.00821154       110.578       107.316             0             0
   0.00823077       110.578       107.316             0             0
      0.00825       110.578       107.316             0             0
   0.00826923       110.578       107.316             0             0
   0.00828846       110.578       107.316             0             0
   0.00830769       110.578       107.316             0             0
   0.00832692       110.578       107.316             0             0
   0.00834615       110.578       107.316             0             0
   0.00836538       110.578       107.316             0             0
   0.00838462       110.578       107.316             0             0
   0.00840385       110.578       107.316             0             0
   0.00842308       110.578       107.316             0             0
   0.00844231       110.578       107.316             0             0
   0.00846154       110.578       107.316             0             0
   0.00848077       110.578       107.316             0             0
       0.0085       110.578       107.316             0             0
   0.00851923       110.578       107.316             0             0
   0.00853846       110.578       107.316             0             0
   0.00855769       110.578       107.316             0             0
   0.00857692       110.578       107.316             0             0
   0.00859615       110.578       107.316             0             0
   0.00861538       110.578       107.316             0             0
   0.00863462       110.578       107.316             0             0
   0.00865385       110.578       107.316             0             0
   0.00867308       110.578       107.316             0             0
   0.00869231       110.578       107.316             0             0
   0.00871154       110.578       107.316             0             0
   0.00873077       110.578       107.316             0             0
      0.00875       110.578       107.316             0             0
   0.00876923       110.578       107.316             0             0
   0.00878846       110.578       107.316             0             0
   0.00880769       110.578       107.316             0             0
   0.00882692       110.578       107.316             0             0
   0.00884615       110.578       107.316             0             0
   0.00886538       110.578       107.316             0             0
   0.00888462       110.578       107.316             0             0
   0.00890385       110.578       107.316             0             0
   0.00892308       110.578       107.316             0             0
   0.00894231       110.578       107.316             0             0
   0.00896154       110.578       107.316             0             0
   0.00898077       110.578       107.316             0             0
        0.009       110.578       107.316             0             0
   0.00901923       110.578       107.316             0             0
   0.00903846       110.578       107.316             0             0
   0.00905769       110.578       107.316             0             0
   0.00907692       110.578       107.316             0             0
   0.00909615       110.578       107.316             0             0
   0.00911538       110.578       107.316             0             0
   0.00913462       110.578       107.316             0             0
   0.00915385       110.578       107.316             0             0
   0.00917308       110.578       107.316             0             0
   0.00919231       110.578       107.316             0             0
   0.00921154       110.578       107.316             0             0
   0.00923077       110.578       107.316             0             0
      0.00925       110.578       107.316             0             0
   0.00926923       110.578       107.316             0             0
   0.00928846       110.578       107.316             0             0
   0.00930769       110.578       107.316             0             0
   0.00932692       110.578       107.316             0             0
   0.00934615       110.578       107.316             0             0
   0.00936538       110.578       107.316             0             0
   0.00938462       110.578       107.316             0             0
   0.00940385       110.578       107.316             0             0
   0.00942308       110.578       107.316             0             0
   0.00944231       110.578       107.316             0             0
   0.00946154       110.578       107.316             0             0
   0.00948077       110.578       107.316             0             0
       0.0095       110.578       107.316             0             0
   0.00951923       110.578       107.316             0             0
   0.00953846       110.578       107.316             0             0
   0.00955769       110.578       107.316             0             0
   0.00957692       110.578       107.316             0             0
   0.00959615       110.578       107.316             0             0
   0.00961538       110.578       107.316             0             0
   0.00963462       110.578       107.316             0             0
   0.00965385       110.578       107.316             0             0
   0.00967308       110.578       107.316             0             0
   0.00969231       110.578       107.316             0             0
   0.00971154       110.578       107.316             0             0
   0.00973077       110.578       107.316             0             0
      0.00975       110.578       107.316             0             0
   0.00976923       110.578       107.316             0             0
   0.00978846       110.578       107.316             0             0
   0.00980769       110.578       107.316             0             0
   0.00982692       110.578       107.316             0             0
   0.00984615       110.578       107.316             0             0
   0.00986538       110.578       107.316             0             0
   0.00988462       110.578       107.316             0             0
   0.00990385       110.578       107.316             0             0
   0.00992308       110.578       107.316             0             0
   0.00994231       110.578       107.316             0             0
   0.00996154       110.578       107.316             0             0
   0.00998077       110.578       107.316             0             0
         0.01       110.578       107.316             0             0
    0.0100192       110.578       107.316             0             0
    0.0100385       110.578       107.316             0             0
    0.0100577       110.578       107.316             0             0
    0.0100769       110.578       107.316             0             0
    0.0100962       110.578       107.316             0             0
    0.0101154       110.578       107.316             0             0
    0.0101346       110.578       107.316             0             0
    0.0101538       110.578       107.316             0             0
    0.0101731       110.578       107.316             0             0
    0.0101923       110.578       107.316             0             0
    0.0102115       110.578       107.316             0             0
    0.0102308       110.578       107.316             0             0
      0.01025       110.578       107.316             0             0
    0.0102692       110.578       107.316             0             0
    0.0102885       110.578       107.316             0             0
    0.0103077       110.578       107.316             0             0
    0.0103269       110.578       107.316             0             0
    0.0103462       110.578       107.316             0             0
    0.0103654       110.578       107.316             0             0
    0.0103846       110.578       107.316             0             0
    0.0104038       110.578       107.316             0             0
    0.0104231       110.578       107.316             0             0
    0.0104423       110.578       107.316             0             0
    0.0104615       110.578       107.316             0             0
    0.0104808       110.578       107.316             0             0
       0.0105       110.578       107.316             0             0
    0.0105192       110.578       107.316             0             0
    0.0105385       110.578       107.316             0             0
    0.0105577       110.578       107.316             0             0
    0.0105769       110.578       107.316             0             0
    0.0105962       110.578       107.316             0             0
    0.0106154       110.578       107.316             0             0
    0.0106346       110.578       107.316             0             0
    0.0106538       110.578       107.316             0             0
    0.0106731       110.578       107.316             0             0
    0.0106923       110.578       107.316             0             0
    0.0107115       110.578       107.316             0             0
    0.0107308       110.578       107.316             0             0
      0.01075       110.578       107.316             0             0
    0.0107692       110.578       107.316             0             0
    0.0107885       110.578       107.316             0             0
    0.0108077       110.578       107.316             0             0
    0.0108269       110.578       107.316             0             0
    0.0108462       110.578       107.316             0             0
    0.0108654       110.578       107.316             0             0
    0.0108846       110.578       107.316             0             0
    0.0109038       110.578       107.316             0             0
    0.0109231       110.578       107.316             0             0
    0.0109423       110.578       107.316             0             0
    0.0109615       110.578       107.316             0             0
    0.0109808       110.578       107.316             0             0
        0.011       110.578       107.316             0             0
    0.0110192       110.578       107.316             0             0
    0.0110385       110.578       107.316             0             0
    0.0110577       110.578       107.316             0             0
    0.0110769       110.578       107.316             0             0
    0.0110962       110.578       107.316             0             0
    0.0111154       110.578       107.316             0             0
    0.0111346       110.578       107.316             0             0
    0.0111538       110.578       107.316             0             0
    0.0111731       110.578       107.316             0             0
    0.0111923       110.578       107.316             0             0
    0.0112115       110.578       107.316             0             0
    0.0112308       110.578       107.316             0             0
      0.01125       110.578       107.316             0             0
    0.0112692       110.578       107.316             0             0
    0.0112885       110.578       107.316             0             0
    0.0113077       110.578       107.316             0             0
    0.0113269       110.578       107.316             0             0
    0.0113462       110.578       107.316             0             0
    0.0113654       110.578       107.316             0             0
    0.0113846       110.578       107.316             0             0
    0.0114038       110.578       107.316             0             0
    0.0114231       110.578       107.316             0             0
    0.0114423       110.578       107.316             0             0
    0.0114615       110.578       107.316             0             0
    0.0114808       110.578       107.316             0             0
       0.0115       110.578       107.316             0             0
    0.0115192       110.578       107.316             0             0
