# Probe 0 (0 0 0)
# Probe 1 (0 0 0.005)
# Probe 2 (0 0 0.4)
# Probe 3 (0 0 0.9)
#       Probe             0             1             2             3
#        Time
   0.00788462       5.54988        5.4033             0             0
   0.00790385       5.54988        5.4033             0             0
   0.00792308       5.54988        5.4033             0             0
   0.00794231       5.54988        5.4033             0             0
   0.00796154       5.54988        5.4033             0             0
   0.00798077       5.54988        5.4033             0             0
        0.008       5.54988        5.4033             0             0
   0.00801923       5.54988        5.4033             0             0
   0.00803846       5.54988        5.4033             0             0
   0.00805769       5.54988        5.4033             0             0
   0.00807692       5.54988        5.4033             0             0
   0.00809615       5.54988        5.4033             0             0
   0.00811538       5.54988        5.4033             0             0
   0.00813462       5.54988        5.4033             0             0
   0.00815385       5.54988        5.4033             0             0
   0.00817308       5.54988        5.4033             0             0
   0.00819231       5.54988        5.4033             0             0
   0.00821154       5.54988        5.4033             0             0
   0.00823077       5.54988        5.4033             0             0
      0.00825       5.54988        5.4033             0             0
   0.00826923       5.54988        5.4033             0             0
   0.00828846       5.54988        5.4033             0             0
   0.00830769       5.54988        5.4033             0             0
   0.00832692       5.54988        5.4033             0             0
   0.00834615       5.54988        5.4033             0             0
   0.00836538       5.54988        5.4033             0             0
   0.00838462       5.54988        5.4033             0             0
   0.00840385       5.54988        5.4033             0             0
   0.00842308       5.54988        5.4033             0             0
   0.00844231       5.54988        5.4033             0             0
   0.00846154       5.54988        5.4033             0             0
   0.00848077       5.54988        5.4033             0             0
       0.0085       5.54988        5.4033             0             0
   0.00851923       5.54988        5.4033             0             0
   0.00853846       5.54988        5.4033             0             0
   0.00855769       5.54988        5.4033             0             0
   0.00857692       5.54988        5.4033             0             0
   0.00859615       5.54988        5.4033             0             0
   0.00861538       5.54988        5.4033             0             0
   0.00863462       5.54988        5.4033             0             0
   0.00865385       5.54988        5.4033             0             0
   0.00867308       5.54988        5.4033             0             0
   0.00869231       5.54988        5.4033             0             0
   0.00871154       5.54988        5.4033             0             0
   0.00873077       5.54988        5.4033             0             0
      0.00875       5.54988        5.4033             0             0
   0.00876923       5.54988        5.4033             0             0
   0.00878846       5.54988        5.4033             0             0
   0.00880769       5.54988        5.4033             0             0
   0.00882692       5.54988        5.4033             0             0
   0.00884615       5.54988        5.4033             0             0
   0.00886538       5.54988        5.4033             0             0
   0.00888462       5.54988        5.4033             0             0
   0.00890385       5.54988        5.4033             0             0
   0.00892308       5.54988        5.4033             0             0
   0.00894231       5.54988        5.4033             0             0
   0.00896154       5.54988        5.4033             0             0
   0.00898077       5.54988        5.4033             0             0
        0.009       5.54988        5.4033             0             0
   0.00901923       5.54988        5.4033             0             0
   0.00903846       5.54988        5.4033             0             0
   0.00905769       5.54988        5.4033             0             0
   0.00907692       5.54988        5.4033             0             0
   0.00909615       5.54988        5.4033             0             0
   0.00911538       5.54988        5.4033             0             0
   0.00913462       5.54988        5.4033             0             0
   0.00915385       5.54988        5.4033             0             0
   0.00917308       5.54988        5.4033             0             0
   0.00919231       5.54988        5.4033             0             0
   0.00921154       5.54988        5.4033             0             0
   0.00923077       5.54988        5.4033             0             0
      0.00925       5.54988        5.4033             0             0
   0.00926923       5.54988        5.4033             0             0
   0.00928846       5.54988        5.4033             0             0
   0.00930769       5.54988        5.4033             0             0
   0.00932692       5.54988        5.4033             0             0
   0.00934615       5.54988        5.4033             0             0
   0.00936538       5.54988        5.4033             0             0
   0.00938462       5.54988        5.4033             0             0
   0.00940385       5.54988        5.4033             0             0
   0.00942308       5.54988        5.4033             0             0
   0.00944231       5.54988        5.4033             0             0
   0.00946154       5.54988        5.4033             0             0
   0.00948077       5.54988        5.4033             0             0
       0.0095       5.54988        5.4033             0             0
   0.00951923       5.54988        5.4033             0             0
   0.00953846       5.54988        5.4033             0             0
   0.00955769       5.54988        5.4033             0             0
   0.00957692       5.54988        5.4033             0             0
   0.00959615       5.54988        5.4033             0             0
   0.00961538       5.54988        5.4033             0             0
   0.00963462       5.54988        5.4033             0             0
   0.00965385       5.54988        5.4033             0             0
   0.00967308       5.54988        5.4033             0             0
   0.00969231       5.54988        5.4033             0             0
   0.00971154       5.54988        5.4033             0             0
   0.00973077       5.54988        5.4033             0             0
      0.00975       5.54988        5.4033             0             0
   0.00976923       5.54988        5.4033             0             0
   0.00978846       5.54988        5.4033             0             0
   0.00980769       5.54988        5.4033             0             0
   0.00982692       5.54988        5.4033             0             0
   0.00984615       5.54988        5.4033             0             0
   0.00986538       5.54988        5.4033             0             0
   0.00988462       5.54988        5.4033             0             0
   0.00990385       5.54988        5.4033             0             0
   0.00992308       5.54988        5.4033             0             0
   0.00994231       5.54988        5.4033             0             0
   0.00996154       5.54988        5.4033             0             0
   0.00998077       5.54988        5.4033             0             0
         0.01       5.54988        5.4033             0             0
    0.0100192       5.54988        5.4033             0             0
    0.0100385       5.54988        5.4033             0             0
    0.0100577       5.54988        5.4033             0             0
    0.0100769       5.54988        5.4033             0             0
    0.0100962       5.54988        5.4033             0             0
    0.0101154       5.54988        5.4033             0             0
    0.0101346       5.54988        5.4033             0             0
    0.0101538       5.54988        5.4033             0             0
    0.0101731       5.54988        5.4033             0             0
    0.0101923       5.54988        5.4033             0             0
    0.0102115       5.54988        5.4033             0             0
    0.0102308       5.54988        5.4033             0             0
      0.01025       5.54988        5.4033             0             0
    0.0102692       5.54988        5.4033             0             0
    0.0102885       5.54988        5.4033             0             0
    0.0103077       5.54988        5.4033             0             0
    0.0103269       5.54988        5.4033             0             0
    0.0103462       5.54988        5.4033             0             0
    0.0103654       5.54988        5.4033             0             0
    0.0103846       5.54988        5.4033             0             0
    0.0104038       5.54988        5.4033             0             0
    0.0104231       5.54988        5.4033             0             0
    0.0104423       5.54988        5.4033             0             0
    0.0104615       5.54988        5.4033             0             0
    0.0104808       5.54988        5.4033             0             0
       0.0105       5.54988        5.4033             0             0
    0.0105192       5.54988        5.4033             0             0
    0.0105385       5.54988        5.4033             0             0
    0.0105577       5.54988        5.4033             0             0
    0.0105769       5.54988        5.4033             0             0
    0.0105962       5.54988        5.4033             0             0
    0.0106154       5.54988        5.4033             0             0
    0.0106346       5.54988        5.4033             0             0
    0.0106538       5.54988        5.4033             0             0
    0.0106731       5.54988        5.4033             0             0
    0.0106923       5.54988        5.4033             0             0
    0.0107115       5.54988        5.4033             0             0
    0.0107308       5.54988        5.4033             0             0
      0.01075       5.54988        5.4033             0             0
    0.0107692       5.54988        5.4033             0             0
    0.0107885       5.54988        5.4033             0             0
    0.0108077       5.54988        5.4033             0             0
    0.0108269       5.54988        5.4033             0             0
    0.0108462       5.54988        5.4033             0             0
    0.0108654       5.54988        5.4033             0             0
    0.0108846       5.54988        5.4033             0             0
    0.0109038       5.54988        5.4033             0             0
    0.0109231       5.54988        5.4033             0             0
    0.0109423       5.54988        5.4033             0             0
    0.0109615       5.54988        5.4033             0             0
    0.0109808       5.54988        5.4033             0             0
        0.011       5.54988        5.4033             0             0
    0.0110192       5.54988        5.4033             0             0
    0.0110385       5.54988        5.4033             0             0
    0.0110577       5.54988        5.4033             0             0
    0.0110769       5.54988        5.4033             0             0
    0.0110962       5.54988        5.4033             0             0
    0.0111154       5.54988        5.4033             0             0
    0.0111346       5.54988        5.4033             0             0
    0.0111538       5.54988        5.4033             0             0
    0.0111731       5.54988        5.4033             0             0
    0.0111923       5.54988        5.4033             0             0
    0.0112115       5.54988        5.4033             0             0
    0.0112308       5.54988        5.4033             0             0
      0.01125       5.54988        5.4033             0             0
    0.0112692       5.54988        5.4033             0             0
    0.0112885       5.54988        5.4033             0             0
    0.0113077       5.54988        5.4033             0             0
    0.0113269       5.54988        5.4033             0             0
    0.0113462       5.54988        5.4033             0             0
    0.0113654       5.54988        5.4033             0             0
    0.0113846       5.54988        5.4033             0             0
    0.0114038       5.54988        5.4033             0             0
    0.0114231       5.54988        5.4033             0             0
    0.0114423       5.54988        5.4033             0             0
    0.0114615       5.54988        5.4033             0             0
    0.0114808       5.54988        5.4033             0             0
       0.0115       5.54988        5.4033             0             0
    0.0115192       5.54988        5.4033             0             0
