# Probe 0 (0.08 0.09 0)
#       Probe             0
#        Time
   0.00425532   2.26453e-05
   0.00851064   2.06063e-05
     0.012766   1.92335e-05
    0.0170213   1.84291e-05
    0.0212766   1.79874e-05
    0.0255319   1.77424e-05
    0.0297872   1.75938e-05
    0.0340426   1.74888e-05
    0.0382979   1.74021e-05
    0.0425532   1.73224e-05
    0.0468085   1.72453e-05
    0.0510638   1.71694e-05
    0.0553191   1.70948e-05
    0.0595745   1.70218e-05
    0.0638298   1.69509e-05
    0.0680851   1.68825e-05
    0.0723404   1.68168e-05
    0.0765957   1.67541e-05
    0.0808511   1.66945e-05
    0.0851064   1.66379e-05
    0.0893617   1.65845e-05
     0.093617   1.65341e-05
    0.0978723   1.64867e-05
     0.102128   1.64422e-05
     0.106383   1.64006e-05
     0.110638   1.63617e-05
     0.114894   1.63254e-05
     0.119149   1.62916e-05
     0.123404   1.62602e-05
      0.12766   1.62311e-05
     0.131915   1.62041e-05
      0.13617   1.61791e-05
     0.140426    1.6156e-05
     0.144681   1.61347e-05
     0.148936   1.61152e-05
     0.153191   1.60971e-05
     0.157447   1.60806e-05
     0.161702   1.60654e-05
     0.165957   1.60515e-05
     0.170213   1.60387e-05
     0.174468    1.6027e-05
     0.178723   1.60162e-05
     0.182979   1.60064e-05
     0.187234   1.59973e-05
     0.191489    1.5989e-05
     0.195745   1.59812e-05
          0.2   1.59741e-05
     0.204255   1.59674e-05
     0.208511   1.59611e-05
     0.212766   1.59552e-05
     0.217021   1.59496e-05
     0.221277   1.59443e-05
     0.225532   1.59391e-05
     0.229787   1.59341e-05
     0.234043   1.59292e-05
     0.238298   1.59243e-05
     0.242553   1.59195e-05
     0.246809   1.59147e-05
     0.251064   1.59099e-05
     0.255319    1.5905e-05
     0.259574      1.59e-05
      0.26383    1.5895e-05
     0.268085   1.58899e-05
      0.27234   1.58847e-05
     0.276596   1.58793e-05
     0.280851   1.58739e-05
     0.285106   1.58683e-05
     0.289362   1.58626e-05
