# Probe 0 (0.08 0.09 0)
#       Probe             0
#        Time
   0.00363901   6.04136e+06
   0.00727802    5.9427e+06
     0.010917   5.88472e+06
     0.014556   5.84409e+06
    0.0181951   5.81242e+06
    0.0218341   5.78632e+06
    0.0254731   5.76419e+06
    0.0291121   5.74513e+06
    0.0327511   5.72858e+06
    0.0363901   5.71414e+06
    0.0400291   5.70152e+06
    0.0436681    5.6905e+06
    0.0473071   5.68095e+06
    0.0509461   5.67275e+06
    0.0545852    5.6658e+06
    0.0582242   5.66004e+06
    0.0618632    5.6554e+06
    0.0655022   5.65179e+06
    0.0691412   5.64914e+06
    0.0727802   5.64737e+06
    0.0764192   5.64638e+06
    0.0800582   5.64609e+06
    0.0836972   5.64641e+06
    0.0873362   5.64726e+06
    0.0909753   5.64854e+06
    0.0946143   5.65019e+06
    0.0982533   5.65213e+06
     0.101892    5.6543e+06
     0.105531   5.65665e+06
      0.10917   5.65914e+06
     0.112809   5.66172e+06
     0.116448   5.66436e+06
     0.120087   5.66704e+06
     0.123726   5.66973e+06
     0.127365   5.67242e+06
     0.131004    5.6751e+06
     0.134643   5.67776e+06
     0.138282   5.68039e+06
     0.141921   5.68299e+06
      0.14556   5.68556e+06
     0.149199    5.6881e+06
     0.152838    5.6906e+06
     0.156477   5.69307e+06
     0.160116   5.69551e+06
     0.163755   5.69792e+06
     0.167394    5.7003e+06
     0.171033   5.70266e+06
     0.174672   5.70498e+06
     0.178311   5.70729e+06
     0.181951   5.70956e+06
      0.18559   5.71181e+06
     0.189229   5.71404e+06
     0.192868   5.71624e+06
     0.196507   5.71841e+06
     0.200146   5.72056e+06
     0.203785   5.72267e+06
     0.207424   5.72476e+06
     0.211063   5.72681e+06
     0.214702   5.72883e+06
     0.218341   5.73081e+06
      0.22198   5.73276e+06
     0.225619   5.73466e+06
     0.229258   5.73653e+06
     0.232897   5.73835e+06
     0.236536   5.74013e+06
     0.240175   5.74187e+06
     0.243814   5.74356e+06
     0.247453    5.7452e+06
     0.251092   5.74679e+06
     0.254731   5.74833e+06
      0.25837   5.74983e+06
     0.262009   5.75127e+06
     0.265648   5.75267e+06
     0.269287   5.75401e+06
     0.272926   5.75531e+06
     0.276565   5.75655e+06
     0.280204   5.75775e+06
     0.283843    5.7589e+06
     0.287482      5.76e+06
     0.291121   5.76105e+06
      0.29476   5.76205e+06
     0.298399   5.76301e+06
     0.302038   5.76393e+06
     0.305677    5.7648e+06
     0.309316   5.76563e+06
     0.312955   5.76642e+06
     0.316594   5.76717e+06
     0.320233   5.76788e+06
     0.323872   5.76856e+06
     0.327511    5.7692e+06
      0.33115   5.76981e+06
     0.334789   5.77039e+06
     0.338428   5.77094e+06
     0.342067   5.77145e+06
     0.345706   5.77194e+06
     0.349345   5.77241e+06
     0.352984   5.77285e+06
     0.356623   5.77327e+06
     0.360262   5.77367e+06
     0.363901   5.77404e+06
      0.36754    5.7744e+06
     0.371179   5.77474e+06
     0.374818   5.77506e+06
     0.378457   5.77537e+06
     0.382096   5.77566e+06
     0.385735   5.77594e+06
     0.389374   5.77621e+06
     0.393013   5.77647e+06
     0.396652   5.77671e+06
     0.400291   5.77695e+06
      0.40393   5.77718e+06
     0.407569    5.7774e+06
     0.411208   5.77761e+06
     0.414847   5.77782e+06
     0.418486   5.77802e+06
     0.422125   5.77821e+06
     0.425764    5.7784e+06
     0.429403   5.77859e+06
     0.433042   5.77877e+06
     0.436681   5.77894e+06
      0.44032   5.77912e+06
     0.443959   5.77928e+06
     0.447598   5.77945e+06
     0.451237   5.77961e+06
     0.454876   5.77977e+06
     0.458515   5.77993e+06
     0.462154   5.78009e+06
     0.465793   5.78024e+06
     0.469432   5.78039e+06
     0.473071   5.78054e+06
      0.47671   5.78069e+06
     0.480349   5.78083e+06
     0.483988   5.78097e+06
     0.487627   5.78111e+06
     0.491266   5.78125e+06
     0.494905   5.78138e+06
     0.498544   5.78152e+06
     0.502183   5.78165e+06
     0.505822   5.78177e+06
     0.509461    5.7819e+06
       0.5131   5.78202e+06
     0.516739   5.78214e+06
     0.520378   5.78226e+06
     0.524017   5.78237e+06
     0.527656   5.78248e+06
     0.531295   5.78259e+06
     0.534934   5.78269e+06
     0.538574   5.78279e+06
     0.542213   5.78289e+06
     0.545852   5.78299e+06
     0.549491   5.78308e+06
      0.55313   5.78316e+06
     0.556769   5.78325e+06
     0.560408   5.78333e+06
     0.564047    5.7834e+06
     0.567686   5.78347e+06
     0.571325   5.78354e+06
     0.574964    5.7836e+06
     0.578603   5.78366e+06
     0.582242   5.78372e+06
     0.585881   5.78377e+06
      0.58952   5.78382e+06
     0.593159   5.78386e+06
     0.596798   5.78391e+06
     0.600437   5.78394e+06
     0.604076   5.78397e+06
     0.607715     5.784e+06
     0.611354   5.78403e+06
     0.614993   5.78405e+06
     0.618632   5.78406e+06
     0.622271   5.78408e+06
      0.62591   5.78409e+06
     0.629549   5.78409e+06
     0.633188   5.78409e+06
     0.636827   5.78409e+06
     0.640466   5.78409e+06
     0.644105   5.78408e+06
     0.647744   5.78407e+06
     0.651383   5.78405e+06
     0.655022   5.78403e+06
     0.658661   5.78401e+06
       0.6623   5.78399e+06
     0.665939   5.78396e+06
     0.669578   5.78393e+06
     0.673217    5.7839e+06
     0.676856   5.78386e+06
     0.680495   5.78382e+06
     0.684134   5.78378e+06
     0.687773   5.78374e+06
     0.691412   5.78369e+06
     0.695051   5.78365e+06
      0.69869    5.7836e+06
     0.702329   5.78355e+06
     0.705968   5.78349e+06
     0.709607   5.78344e+06
     0.713246   5.78338e+06
     0.716885   5.78332e+06
     0.720524   5.78327e+06
     0.724163    5.7832e+06
     0.727802   5.78314e+06
     0.731441   5.78308e+06
      0.73508   5.78302e+06
     0.738719   5.78295e+06
     0.742358   5.78288e+06
     0.745997   5.78282e+06
     0.749636   5.78275e+06
     0.753275   5.78268e+06
     0.756914   5.78261e+06
     0.760553   5.78254e+06
     0.764192   5.78248e+06
     0.767831   5.78241e+06
      0.77147   5.78234e+06
     0.775109   5.78227e+06
     0.778748   5.78219e+06
     0.782387   5.78212e+06
     0.786026   5.78205e+06
     0.789665   5.78198e+06
     0.793304   5.78191e+06
     0.796943   5.78184e+06
     0.800582   5.78177e+06
     0.804221   5.78171e+06
      0.80786   5.78164e+06
     0.811499   5.78157e+06
     0.815138    5.7815e+06
     0.818777   5.78143e+06
     0.822416   5.78137e+06
     0.826055    5.7813e+06
     0.829694   5.78124e+06
     0.833333   5.78117e+06
     0.836972   5.78111e+06
     0.840611   5.78104e+06
      0.84425   5.78098e+06
     0.847889   5.78092e+06
     0.851528   5.78086e+06
     0.855167    5.7808e+06
     0.858806   5.78074e+06
     0.862445   5.78068e+06
     0.866084   5.78062e+06
     0.869723   5.78057e+06
     0.873362   5.78051e+06
     0.877001   5.78046e+06
      0.88064    5.7804e+06
     0.884279   5.78035e+06
     0.887918    5.7803e+06
     0.891557   5.78025e+06
     0.895197    5.7802e+06
     0.898836   5.78015e+06
     0.902475    5.7801e+06
     0.906114   5.78006e+06
     0.909753   5.78001e+06
     0.913392   5.77997e+06
     0.917031   5.77992e+06
      0.92067   5.77988e+06
     0.924309   5.77984e+06
     0.927948    5.7798e+06
     0.931587   5.77976e+06
     0.935226   5.77972e+06
     0.938865   5.77968e+06
     0.942504   5.77964e+06
     0.946143   5.77961e+06
     0.949782   5.77957e+06
     0.953421   5.77954e+06
      0.95706   5.77951e+06
     0.960699   5.77947e+06
     0.964338   5.77944e+06
     0.967977   5.77941e+06
     0.971616   5.77938e+06
     0.975255   5.77935e+06
     0.978894   5.77933e+06
     0.982533    5.7793e+06
     0.986172   5.77927e+06
     0.989811   5.77925e+06
      0.99345   5.77922e+06
     0.997089    5.7792e+06
      1.00073   5.77918e+06
      1.00437   5.77915e+06
      1.00801   5.77913e+06
      1.01164   5.77911e+06
      1.01528   5.77909e+06
      1.01892   5.77907e+06
      1.02256   5.77905e+06
       1.0262   5.77903e+06
      1.02984   5.77902e+06
      1.03348     5.779e+06
      1.03712   5.77898e+06
      1.04076   5.77896e+06
       1.0444   5.77895e+06
      1.04803   5.77893e+06
      1.05167   5.77892e+06
      1.05531    5.7789e+06
      1.05895   5.77889e+06
      1.06259   5.77888e+06
      1.06623   5.77886e+06
      1.06987   5.77885e+06
      1.07351   5.77884e+06
      1.07715   5.77883e+06
      1.08079   5.77882e+06
      1.08443    5.7788e+06
      1.08806   5.77879e+06
       1.0917   5.77878e+06
      1.09534   5.77877e+06
      1.09898   5.77876e+06
      1.10262   5.77875e+06
      1.10626   5.77874e+06
       1.1099   5.77873e+06
      1.11354   5.77872e+06
      1.11718   5.77872e+06
      1.12082   5.77871e+06
      1.12445    5.7787e+06
      1.12809   5.77869e+06
      1.13173   5.77868e+06
      1.13537   5.77867e+06
      1.13901   5.77867e+06
      1.14265   5.77866e+06
      1.14629   5.77865e+06
      1.14993   5.77864e+06
      1.15357   5.77863e+06
      1.15721   5.77863e+06
      1.16084   5.77862e+06
      1.16448   5.77861e+06
      1.16812    5.7786e+06
      1.17176    5.7786e+06
       1.1754   5.77859e+06
      1.17904   5.77858e+06
      1.18268   5.77857e+06
      1.18632   5.77857e+06
      1.18996   5.77856e+06
       1.1936   5.77855e+06
      1.19723   5.77854e+06
      1.20087   5.77853e+06
      1.20451   5.77853e+06
      1.20815   5.77852e+06
      1.21179   5.77851e+06
      1.21543    5.7785e+06
      1.21907   5.77849e+06
      1.22271   5.77849e+06
      1.22635   5.77848e+06
      1.22999   5.77847e+06
      1.23362   5.77846e+06
      1.23726   5.77845e+06
       1.2409   5.77844e+06
      1.24454   5.77843e+06
      1.24818   5.77843e+06
      1.25182   5.77842e+06
      1.25546   5.77841e+06
       1.2591    5.7784e+06
      1.26274   5.77839e+06
      1.26638   5.77838e+06
      1.27001   5.77837e+06
      1.27365   5.77836e+06
      1.27729   5.77835e+06
      1.28093   5.77834e+06
      1.28457   5.77833e+06
      1.28821   5.77832e+06
      1.29185   5.77831e+06
      1.29549    5.7783e+06
      1.29913   5.77829e+06
      1.30277   5.77828e+06
       1.3064   5.77826e+06
      1.31004   5.77825e+06
      1.31368   5.77824e+06
      1.31732   5.77823e+06
      1.32096   5.77822e+06
       1.3246   5.77821e+06
      1.32824   5.77819e+06
      1.33188   5.77818e+06
      1.33552   5.77817e+06
      1.33916   5.77816e+06
      1.34279   5.77814e+06
      1.34643   5.77813e+06
      1.35007   5.77812e+06
      1.35371    5.7781e+06
      1.35735   5.77809e+06
      1.36099   5.77808e+06
      1.36463   5.77806e+06
      1.36827   5.77805e+06
      1.37191   5.77804e+06
      1.37555   5.77802e+06
      1.37918   5.77801e+06
      1.38282   5.77799e+06
      1.38646   5.77798e+06
       1.3901   5.77797e+06
      1.39374   5.77795e+06
      1.39738   5.77794e+06
      1.40102   5.77792e+06
      1.40466   5.77791e+06
       1.4083   5.77789e+06
      1.41194   5.77788e+06
      1.41557   5.77786e+06
      1.41921   5.77784e+06
      1.42285   5.77783e+06
      1.42649   5.77781e+06
      1.43013    5.7778e+06
      1.43377   5.77778e+06
      1.43741   5.77777e+06
      1.44105   5.77775e+06
      1.44469   5.77773e+06
      1.44833   5.77772e+06
      1.45197    5.7777e+06
       1.4556   5.77768e+06
      1.45924   5.77767e+06
      1.46288   5.77765e+06
      1.46652   5.77763e+06
      1.47016   5.77762e+06
       1.4738    5.7776e+06
      1.47744   5.77758e+06
      1.48108   5.77756e+06
      1.48472   5.77755e+06
      1.48836   5.77753e+06
      1.49199   5.77751e+06
      1.49563   5.77749e+06
      1.49927   5.77748e+06
      1.50291   5.77746e+06
      1.50655   5.77744e+06
      1.51019   5.77742e+06
      1.51383    5.7774e+06
      1.51747   5.77739e+06
      1.52111   5.77737e+06
      1.52475   5.77735e+06
      1.52838   5.77733e+06
      1.53202   5.77731e+06
      1.53566   5.77729e+06
       1.5393   5.77728e+06
      1.54294   5.77726e+06
      1.54658   5.77724e+06
      1.55022   5.77722e+06
      1.55386    5.7772e+06
       1.5575   5.77718e+06
      1.56114   5.77716e+06
      1.56477   5.77714e+06
      1.56841   5.77713e+06
      1.57205   5.77711e+06
      1.57569   5.77709e+06
      1.57933   5.77707e+06
      1.58297   5.77705e+06
      1.58661   5.77703e+06
      1.59025   5.77701e+06
      1.59389   5.77699e+06
      1.59753   5.77697e+06
      1.60116   5.77695e+06
       1.6048   5.77693e+06
      1.60844   5.77691e+06
      1.61208    5.7769e+06
      1.61572   5.77688e+06
      1.61936   5.77686e+06
        1.623   5.77684e+06
      1.62664   5.77682e+06
      1.63028    5.7768e+06
      1.63392   5.77678e+06
      1.63755   5.77676e+06
      1.64119   5.77674e+06
      1.64483   5.77672e+06
      1.64847    5.7767e+06
      1.65211   5.77668e+06
      1.65575   5.77666e+06
      1.65939   5.77664e+06
      1.66303   5.77662e+06
      1.66667    5.7766e+06
      1.67031   5.77658e+06
      1.67394   5.77656e+06
      1.67758   5.77654e+06
      1.68122   5.77652e+06
      1.68486    5.7765e+06
       1.6885   5.77648e+06
      1.69214   5.77646e+06
      1.69578   5.77644e+06
      1.69942   5.77642e+06
      1.70306    5.7764e+06
       1.7067   5.77638e+06
      1.71033   5.77636e+06
      1.71397   5.77634e+06
      1.71761   5.77632e+06
      1.72125    5.7763e+06
      1.72489   5.77628e+06
      1.72853   5.77626e+06
      1.73217   5.77624e+06
      1.73581   5.77622e+06
      1.73945    5.7762e+06
      1.74309   5.77618e+06
      1.74672   5.77616e+06
      1.75036   5.77614e+06
        1.754   5.77612e+06
      1.75764    5.7761e+06
      1.76128   5.77608e+06
      1.76492   5.77606e+06
      1.76856   5.77604e+06
       1.7722   5.77602e+06
      1.77584     5.776e+06
      1.77948   5.77598e+06
      1.78311   5.77596e+06
      1.78675   5.77594e+06
      1.79039   5.77592e+06
      1.79403    5.7759e+06
      1.79767   5.77588e+06
      1.80131   5.77586e+06
      1.80495   5.77584e+06
      1.80859   5.77582e+06
      1.81223    5.7758e+06
      1.81587   5.77578e+06
      1.81951   5.77576e+06
      1.82314   5.77574e+06
      1.82678   5.77572e+06
      1.83042    5.7757e+06
      1.83406   5.77568e+06
       1.8377   5.77566e+06
      1.84134   5.77564e+06
      1.84498   5.77562e+06
      1.84862    5.7756e+06
      1.85226   5.77558e+06
       1.8559   5.77556e+06
      1.85953   5.77554e+06
      1.86317   5.77552e+06
      1.86681    5.7755e+06
      1.87045   5.77548e+06
      1.87409   5.77546e+06
      1.87773   5.77544e+06
      1.88137   5.77542e+06
      1.88501    5.7754e+06
      1.88865   5.77538e+06
      1.89229   5.77536e+06
      1.89592   5.77534e+06
      1.89956   5.77532e+06
       1.9032    5.7753e+06
      1.90684   5.77528e+06
      1.91048   5.77526e+06
      1.91412   5.77524e+06
      1.91776   5.77522e+06
       1.9214    5.7752e+06
      1.92504   5.77518e+06
      1.92868   5.77516e+06
      1.93231   5.77514e+06
      1.93595   5.77512e+06
      1.93959    5.7751e+06
      1.94323   5.77508e+06
      1.94687   5.77506e+06
      1.95051   5.77504e+06
      1.95415   5.77502e+06
      1.95779     5.775e+06
      1.96143   5.77498e+06
      1.96507   5.77496e+06
       1.9687   5.77494e+06
      1.97234   5.77492e+06
      1.97598    5.7749e+06
      1.97962   5.77488e+06
      1.98326   5.77486e+06
       1.9869   5.77484e+06
      1.99054   5.77482e+06
      1.99418    5.7748e+06
      1.99782   5.77478e+06
      2.00146   5.77476e+06
      2.00509   5.77474e+06
      2.00873   5.77472e+06
      2.01237    5.7747e+06
      2.01601   5.77468e+06
      2.01965   5.77466e+06
      2.02329   5.77465e+06
      2.02693   5.77463e+06
      2.03057   5.77461e+06
      2.03421   5.77459e+06
      2.03785   5.77457e+06
      2.04148   5.77455e+06
      2.04512   5.77453e+06
      2.04876   5.77451e+06
       2.0524   5.77449e+06
      2.05604   5.77447e+06
      2.05968   5.77445e+06
      2.06332   5.77443e+06
      2.06696   5.77441e+06
       2.0706   5.77439e+06
      2.07424   5.77437e+06
      2.07787   5.77435e+06
      2.08151   5.77433e+06
      2.08515   5.77431e+06
      2.08879   5.77429e+06
      2.09243   5.77427e+06
      2.09607   5.77425e+06
      2.09971   5.77424e+06
      2.10335   5.77422e+06
      2.10699    5.7742e+06
      2.11063   5.77418e+06
      2.11426   5.77416e+06
       2.1179   5.77414e+06
      2.12154   5.77412e+06
      2.12518    5.7741e+06
      2.12882   5.77408e+06
      2.13246   5.77406e+06
       2.1361   5.77404e+06
      2.13974   5.77402e+06
      2.14338     5.774e+06
      2.14702   5.77398e+06
      2.15066   5.77397e+06
      2.15429   5.77395e+06
      2.15793   5.77393e+06
      2.16157   5.77391e+06
      2.16521   5.77389e+06
      2.16885   5.77387e+06
      2.17249   5.77385e+06
      2.17613   5.77383e+06
      2.17977   5.77381e+06
      2.18341   5.77379e+06
      2.18705   5.77378e+06
      2.19068   5.77376e+06
      2.19432   5.77374e+06
      2.19796   5.77372e+06
       2.2016    5.7737e+06
      2.20524   5.77368e+06
      2.20888   5.77366e+06
      2.21252   5.77364e+06
      2.21616   5.77362e+06
       2.2198    5.7736e+06
      2.22344   5.77359e+06
      2.22707   5.77357e+06
      2.23071   5.77355e+06
      2.23435   5.77353e+06
      2.23799   5.77351e+06
      2.24163   5.77349e+06
      2.24527   5.77347e+06
      2.24891   5.77345e+06
      2.25255   5.77344e+06
      2.25619   5.77342e+06
      2.25983    5.7734e+06
      2.26346   5.77338e+06
       2.2671   5.77336e+06
      2.27074   5.77334e+06
      2.27438   5.77332e+06
      2.27802   5.77331e+06
      2.28166   5.77329e+06
       2.2853   5.77327e+06
      2.28894   5.77325e+06
      2.29258   5.77323e+06
      2.29622   5.77321e+06
      2.29985   5.77319e+06
      2.30349   5.77318e+06
      2.30713   5.77316e+06
      2.31077   5.77314e+06
      2.31441   5.77312e+06
      2.31805    5.7731e+06
      2.32169   5.77308e+06
      2.32533   5.77307e+06
      2.32897   5.77305e+06
      2.33261   5.77303e+06
      2.33624   5.77301e+06
      2.33988   5.77299e+06
      2.34352   5.77297e+06
      2.34716   5.77296e+06
       2.3508   5.77294e+06
      2.35444   5.77292e+06
      2.35808    5.7729e+06
      2.36172   5.77288e+06
      2.36536   5.77287e+06
        2.369   5.77285e+06
      2.37263   5.77283e+06
      2.37627   5.77281e+06
      2.37991   5.77279e+06
      2.38355   5.77278e+06
      2.38719   5.77276e+06
      2.39083   5.77274e+06
      2.39447   5.77272e+06
      2.39811    5.7727e+06
      2.40175   5.77269e+06
      2.40539   5.77267e+06
      2.40902   5.77265e+06
      2.41266   5.77263e+06
       2.4163   5.77261e+06
      2.41994    5.7726e+06
      2.42358   5.77258e+06
      2.42722   5.77256e+06
      2.43086   5.77254e+06
       2.4345   5.77252e+06
      2.43814   5.77251e+06
      2.44178   5.77249e+06
      2.44541   5.77247e+06
      2.44905   5.77245e+06
      2.45269   5.77244e+06
      2.45633   5.77242e+06
      2.45997    5.7724e+06
      2.46361   5.77238e+06
      2.46725   5.77237e+06
      2.47089   5.77235e+06
      2.47453   5.77233e+06
      2.47817   5.77231e+06
       2.4818    5.7723e+06
      2.48544   5.77228e+06
      2.48908   5.77226e+06
      2.49272   5.77224e+06
      2.49636   5.77223e+06
          2.5   5.77221e+06
      2.50364   5.77219e+06
      2.50728   5.77217e+06
      2.51092   5.77216e+06
      2.51456   5.77214e+06
       2.5182   5.77212e+06
      2.52183    5.7721e+06
      2.52547   5.77209e+06
      2.52911   5.77207e+06
      2.53275   5.77205e+06
      2.53639   5.77203e+06
      2.54003   5.77202e+06
      2.54367     5.772e+06
      2.54731   5.77198e+06
      2.55095   5.77197e+06
      2.55459   5.77195e+06
      2.55822   5.77193e+06
      2.56186   5.77191e+06
       2.5655    5.7719e+06
      2.56914   5.77188e+06
      2.57278   5.77186e+06
      2.57642   5.77185e+06
      2.58006   5.77183e+06
       2.5837   5.77181e+06
      2.58734   5.77179e+06
      2.59098   5.77178e+06
      2.59461   5.77176e+06
      2.59825   5.77174e+06
      2.60189   5.77173e+06
      2.60553   5.77171e+06
      2.60917   5.77169e+06
      2.61281   5.77168e+06
      2.61645   5.77166e+06
      2.62009   5.77164e+06
      2.62373   5.77162e+06
      2.62737   5.77161e+06
        2.631   5.77159e+06
      2.63464   5.77157e+06
      2.63828   5.77156e+06
      2.64192   5.77154e+06
      2.64556   5.77152e+06
       2.6492   5.77151e+06
      2.65284   5.77149e+06
      2.65648   5.77147e+06
      2.66012   5.77146e+06
      2.66376   5.77144e+06
      2.66739   5.77142e+06
      2.67103   5.77141e+06
      2.67467   5.77139e+06
      2.67831   5.77137e+06
      2.68195   5.77136e+06
      2.68559   5.77134e+06
      2.68923   5.77132e+06
      2.69287   5.77131e+06
      2.69651   5.77129e+06
      2.70015   5.77128e+06
      2.70378   5.77126e+06
      2.70742   5.77124e+06
      2.71106   5.77123e+06
       2.7147   5.77121e+06
      2.71834   5.77119e+06
      2.72198   5.77118e+06
      2.72562   5.77116e+06
      2.72926   5.77114e+06
       2.7329   5.77113e+06
      2.73654   5.77111e+06
      2.74017    5.7711e+06
      2.74381   5.77108e+06
      2.74745   5.77106e+06
      2.75109   5.77105e+06
      2.75473   5.77103e+06
      2.75837   5.77101e+06
      2.76201     5.771e+06
      2.76565   5.77098e+06
      2.76929   5.77097e+06
      2.77293   5.77095e+06
      2.77656   5.77093e+06
       2.7802   5.77092e+06
      2.78384    5.7709e+06
      2.78748   5.77089e+06
      2.79112   5.77087e+06
      2.79476   5.77085e+06
       2.7984   5.77084e+06
      2.80204   5.77082e+06
      2.80568   5.77081e+06
      2.80932   5.77079e+06
      2.81295   5.77077e+06
      2.81659   5.77076e+06
      2.82023   5.77074e+06
      2.82387   5.77073e+06
      2.82751   5.77071e+06
      2.83115   5.77069e+06
      2.83479   5.77068e+06
      2.83843   5.77066e+06
      2.84207   5.77065e+06
      2.84571   5.77063e+06
      2.84934   5.77062e+06
      2.85298    5.7706e+06
      2.85662   5.77058e+06
      2.86026   5.77057e+06
       2.8639   5.77055e+06
      2.86754   5.77054e+06
      2.87118   5.77052e+06
      2.87482   5.77051e+06
      2.87846   5.77049e+06
       2.8821   5.77048e+06
      2.88574   5.77046e+06
      2.88937   5.77044e+06
      2.89301   5.77043e+06
      2.89665   5.77041e+06
      2.90029    5.7704e+06
      2.90393   5.77038e+06
      2.90757   5.77037e+06
      2.91121   5.77035e+06
      2.91485   5.77034e+06
      2.91849   5.77032e+06
      2.92213   5.77031e+06
      2.92576   5.77029e+06
       2.9294   5.77027e+06
      2.93304   5.77026e+06
      2.93668   5.77024e+06
      2.94032   5.77023e+06
      2.94396   5.77021e+06
       2.9476    5.7702e+06
      2.95124   5.77018e+06
      2.95488   5.77017e+06
      2.95852   5.77015e+06
      2.96215   5.77014e+06
      2.96579   5.77012e+06
      2.96943   5.77011e+06
      2.97307   5.77009e+06
      2.97671   5.77008e+06
      2.98035   5.77006e+06
      2.98399   5.77005e+06
      2.98763   5.77003e+06
      2.99127   5.77002e+06
      2.99491      5.77e+06
      2.99854   5.76999e+06
      3.00218   5.76997e+06
      3.00582   5.76996e+06
      3.00946   5.76994e+06
       3.0131   5.76993e+06
      3.01674   5.76991e+06
      3.02038    5.7699e+06
      3.02402   5.76988e+06
      3.02766   5.76987e+06
       3.0313   5.76985e+06
      3.03493   5.76984e+06
      3.03857   5.76982e+06
      3.04221   5.76981e+06
      3.04585   5.76979e+06
      3.04949   5.76978e+06
      3.05313   5.76976e+06
      3.05677   5.76975e+06
      3.06041   5.76974e+06
      3.06405   5.76972e+06
      3.06769   5.76971e+06
      3.07132   5.76969e+06
      3.07496   5.76968e+06
       3.0786   5.76966e+06
      3.08224   5.76965e+06
      3.08588   5.76963e+06
      3.08952   5.76962e+06
      3.09316    5.7696e+06
       3.0968   5.76959e+06
      3.10044   5.76958e+06
      3.10408   5.76956e+06
      3.10771   5.76955e+06
      3.11135   5.76953e+06
      3.11499   5.76952e+06
      3.11863    5.7695e+06
      3.12227   5.76949e+06
      3.12591   5.76947e+06
      3.12955   5.76946e+06
      3.13319   5.76945e+06
      3.13683   5.76943e+06
      3.14047   5.76942e+06
       3.1441    5.7694e+06
      3.14774   5.76939e+06
      3.15138   5.76937e+06
      3.15502   5.76936e+06
      3.15866   5.76935e+06
       3.1623   5.76933e+06
      3.16594   5.76932e+06
      3.16958    5.7693e+06
      3.17322   5.76929e+06
      3.17686   5.76928e+06
      3.18049   5.76926e+06
      3.18413   5.76925e+06
      3.18777   5.76923e+06
      3.19141   5.76922e+06
      3.19505   5.76921e+06
      3.19869   5.76919e+06
      3.20233   5.76918e+06
      3.20597   5.76916e+06
      3.20961   5.76915e+06
      3.21325   5.76914e+06
      3.21689   5.76912e+06
      3.22052   5.76911e+06
      3.22416   5.76909e+06
       3.2278   5.76908e+06
      3.23144   5.76907e+06
      3.23508   5.76905e+06
      3.23872   5.76904e+06
      3.24236   5.76902e+06
        3.246   5.76901e+06
      3.24964     5.769e+06
      3.25328   5.76898e+06
      3.25691   5.76897e+06
      3.26055   5.76896e+06
      3.26419   5.76894e+06
      3.26783   5.76893e+06
      3.27147   5.76891e+06
      3.27511    5.7689e+06
      3.27875   5.76889e+06
      3.28239   5.76887e+06
      3.28603   5.76886e+06
      3.28967   5.76885e+06
       3.2933   5.76883e+06
      3.29694   5.76882e+06
      3.30058   5.76881e+06
      3.30422   5.76879e+06
      3.30786   5.76878e+06
       3.3115   5.76877e+06
      3.31514   5.76875e+06
      3.31878   5.76874e+06
      3.32242   5.76872e+06
      3.32606   5.76871e+06
      3.32969    5.7687e+06
      3.33333   5.76868e+06
      3.33697   5.76867e+06
      3.34061   5.76866e+06
      3.34425   5.76864e+06
      3.34789   5.76863e+06
      3.35153   5.76862e+06
      3.35517    5.7686e+06
      3.35881   5.76859e+06
      3.36245   5.76858e+06
      3.36608   5.76856e+06
      3.36972   5.76855e+06
      3.37336   5.76854e+06
        3.377   5.76853e+06
      3.38064   5.76851e+06
      3.38428    5.7685e+06
      3.38792   5.76849e+06
      3.39156   5.76847e+06
       3.3952   5.76846e+06
      3.39884   5.76845e+06
      3.40247   5.76843e+06
      3.40611   5.76842e+06
      3.40975   5.76841e+06
      3.41339   5.76839e+06
      3.41703   5.76838e+06
      3.42067   5.76837e+06
      3.42431   5.76835e+06
      3.42795   5.76834e+06
      3.43159   5.76833e+06
      3.43523   5.76832e+06
      3.43886    5.7683e+06
       3.4425   5.76829e+06
      3.44614   5.76828e+06
      3.44978   5.76826e+06
      3.45342   5.76825e+06
      3.45706   5.76824e+06
       3.4607   5.76823e+06
      3.46434   5.76821e+06
      3.46798    5.7682e+06
      3.47162   5.76819e+06
      3.47525   5.76817e+06
      3.47889   5.76816e+06
      3.48253   5.76815e+06
      3.48617   5.76814e+06
      3.48981   5.76812e+06
      3.49345   5.76811e+06
      3.49709    5.7681e+06
      3.50073   5.76809e+06
      3.50437   5.76807e+06
      3.50801   5.76806e+06
      3.51164   5.76805e+06
      3.51528   5.76804e+06
      3.51892   5.76802e+06
      3.52256   5.76801e+06
       3.5262     5.768e+06
      3.52984   5.76798e+06
      3.53348   5.76797e+06
      3.53712   5.76796e+06
      3.54076   5.76795e+06
       3.5444   5.76793e+06
      3.54803   5.76792e+06
      3.55167   5.76791e+06
      3.55531    5.7679e+06
      3.55895   5.76788e+06
      3.56259   5.76787e+06
      3.56623   5.76786e+06
      3.56987   5.76785e+06
      3.57351   5.76784e+06
      3.57715   5.76782e+06
      3.58079   5.76781e+06
      3.58443    5.7678e+06
      3.58806   5.76779e+06
       3.5917   5.76777e+06
      3.59534   5.76776e+06
      3.59898   5.76775e+06
      3.60262   5.76774e+06
      3.60626   5.76772e+06
       3.6099   5.76771e+06
      3.61354    5.7677e+06
      3.61718   5.76769e+06
      3.62082   5.76768e+06
      3.62445   5.76766e+06
      3.62809   5.76765e+06
      3.63173   5.76764e+06
      3.63537   5.76763e+06
      3.63901   5.76762e+06
      3.64265    5.7676e+06
      3.64629   5.76759e+06
      3.64993   5.76758e+06
      3.65357   5.76757e+06
      3.65721   5.76755e+06
      3.66084   5.76754e+06
      3.66448   5.76753e+06
      3.66812   5.76752e+06
      3.67176   5.76751e+06
       3.6754   5.76749e+06
      3.67904   5.76748e+06
      3.68268   5.76747e+06
      3.68632   5.76746e+06
      3.68996   5.76745e+06
       3.6936   5.76744e+06
      3.69723   5.76742e+06
      3.70087   5.76741e+06
      3.70451    5.7674e+06
      3.70815   5.76739e+06
      3.71179   5.76738e+06
      3.71543   5.76736e+06
      3.71907   5.76735e+06
      3.72271   5.76734e+06
      3.72635   5.76733e+06
      3.72999   5.76732e+06
      3.73362   5.76731e+06
      3.73726   5.76729e+06
       3.7409   5.76728e+06
      3.74454   5.76727e+06
      3.74818   5.76726e+06
      3.75182   5.76725e+06
      3.75546   5.76724e+06
       3.7591   5.76722e+06
      3.76274   5.76721e+06
      3.76638    5.7672e+06
      3.77001   5.76719e+06
      3.77365   5.76718e+06
      3.77729   5.76717e+06
      3.78093   5.76715e+06
      3.78457   5.76714e+06
      3.78821   5.76713e+06
      3.79185   5.76712e+06
      3.79549   5.76711e+06
      3.79913    5.7671e+06
      3.80277   5.76709e+06
       3.8064   5.76707e+06
      3.81004   5.76706e+06
      3.81368   5.76705e+06
      3.81732   5.76704e+06
      3.82096   5.76703e+06
       3.8246   5.76702e+06
      3.82824   5.76701e+06
      3.83188   5.76699e+06
      3.83552   5.76698e+06
      3.83916   5.76697e+06
      3.84279   5.76696e+06
      3.84643   5.76695e+06
      3.85007   5.76694e+06
      3.85371   5.76693e+06
      3.85735   5.76691e+06
      3.86099    5.7669e+06
      3.86463   5.76689e+06
      3.86827   5.76688e+06
      3.87191   5.76687e+06
      3.87555   5.76686e+06
      3.87918   5.76685e+06
      3.88282   5.76684e+06
      3.88646   5.76682e+06
       3.8901   5.76681e+06