# Probe 0 (0.08 0.09 0)
#       Probe             0
#        Time
   0.00363901       12.0827
   0.00727802       11.8854
     0.010917       11.7694
     0.014556       11.6882
    0.0181951       11.6248
    0.0218341       11.5726
    0.0254731       11.5284
    0.0291121       11.4903
    0.0327511       11.4572
    0.0363901       11.4283
    0.0400291        11.403
    0.0436681        11.381
    0.0473071       11.3619
    0.0509461       11.3455
    0.0545852       11.3316
    0.0582242       11.3201
    0.0618632       11.3108
    0.0655022       11.3036
    0.0691412       11.2983
    0.0727802       11.2947
    0.0764192       11.2928
    0.0800582       11.2922
    0.0836972       11.2928
    0.0873362       11.2945
    0.0909753       11.2971
    0.0946143       11.3004
    0.0982533       11.3043
     0.101892       11.3086
     0.105531       11.3133
      0.10917       11.3183
     0.112809       11.3234
     0.116448       11.3287
     0.120087       11.3341
     0.123726       11.3395
     0.127365       11.3449
     0.131004       11.3502
     0.134643       11.3555
     0.138282       11.3608
     0.141921        11.366
      0.14556       11.3711
     0.149199       11.3762
     0.152838       11.3812
     0.156477       11.3862
     0.160116        11.391
     0.163755       11.3959
     0.167394       11.4006
     0.171033       11.4053
     0.174672         11.41
     0.178311       11.4146
     0.181951       11.4191
      0.18559       11.4236
     0.189229       11.4281
     0.192868       11.4325
     0.196507       11.4368
     0.200146       11.4411
     0.203785       11.4454
     0.207424       11.4495
     0.211063       11.4536
     0.214702       11.4577
     0.218341       11.4616
      0.22198       11.4655
     0.225619       11.4693
     0.229258       11.4731
     0.232897       11.4767
     0.236536       11.4803
     0.240175       11.4838
     0.243814       11.4871
     0.247453       11.4904
     0.251092       11.4936
     0.254731       11.4967
      0.25837       11.4997
     0.262009       11.5026
     0.265648       11.5054
     0.269287       11.5081
     0.272926       11.5106
     0.276565       11.5131
     0.280204       11.5155
     0.283843       11.5178
     0.287482         11.52
     0.291121       11.5221
      0.29476       11.5241
     0.298399       11.5261
     0.302038       11.5279
     0.305677       11.5296
     0.309316       11.5313
     0.312955       11.5329
     0.316594       11.5344
     0.320233       11.5358
     0.323872       11.5372
     0.327511       11.5384
      0.33115       11.5397
     0.334789       11.5408
     0.338428       11.5419
     0.342067       11.5429
     0.345706       11.5439
     0.349345       11.5449
     0.352984       11.5457
     0.356623       11.5466
     0.360262       11.5474
     0.363901       11.5481
      0.36754       11.5488
     0.371179       11.5495
     0.374818       11.5502
     0.378457       11.5508
     0.382096       11.5514
     0.385735       11.5519
     0.389374       11.5525
     0.393013        11.553
     0.396652       11.5535
     0.400291       11.5539
      0.40393       11.5544
     0.407569       11.5548
     0.411208       11.5553
     0.414847       11.5557
     0.418486       11.5561
     0.422125       11.5565
     0.425764       11.5568
     0.429403       11.5572
     0.433042       11.5576
     0.436681       11.5579
      0.44032       11.5583
     0.443959       11.5586
     0.447598       11.5589
     0.451237       11.5593
     0.454876       11.5596
     0.458515       11.5599
     0.462154       11.5602
     0.465793       11.5605
     0.469432       11.5608
     0.473071       11.5611
      0.47671       11.5614
     0.480349       11.5617
     0.483988        11.562
     0.487627       11.5623
     0.491266       11.5625
     0.494905       11.5628
     0.498544       11.5631
     0.502183       11.5633
     0.505822       11.5636
     0.509461       11.5638
       0.5131       11.5641
     0.516739       11.5643
     0.520378       11.5646
     0.524017       11.5648
     0.527656        11.565
     0.531295       11.5652
     0.534934       11.5654
     0.538574       11.5656
     0.542213       11.5658
     0.545852        11.566
     0.549491       11.5662
      0.55313       11.5664
     0.556769       11.5665
     0.560408       11.5667
     0.564047       11.5669
     0.567686        11.567
     0.571325       11.5671
     0.574964       11.5673
     0.578603       11.5674
     0.582242       11.5675
     0.585881       11.5676
      0.58952       11.5677
     0.593159       11.5678
     0.596798       11.5679
     0.600437       11.5679
     0.604076        11.568
     0.607715       11.5681
     0.611354       11.5681
     0.614993       11.5682
     0.618632       11.5682
     0.622271       11.5682
      0.62591       11.5682
     0.629549       11.5682
     0.633188       11.5682
     0.636827       11.5682
     0.640466       11.5682
     0.644105       11.5682
     0.647744       11.5682
     0.651383       11.5682
     0.655022       11.5681
     0.658661       11.5681
       0.6623        11.568
     0.665939        11.568
     0.669578       11.5679
     0.673217       11.5679
     0.676856       11.5678
     0.680495       11.5677
     0.684134       11.5676
     0.687773       11.5675
     0.691412       11.5675
     0.695051       11.5674
      0.69869       11.5673
     0.702329       11.5672
     0.705968       11.5671
     0.709607       11.5669
     0.713246       11.5668
     0.716885       11.5667
     0.720524       11.5666
     0.724163       11.5665
     0.727802       11.5664
     0.731441       11.5662
      0.73508       11.5661
     0.738719        11.566
     0.742358       11.5658
     0.745997       11.5657
     0.749636       11.5656
     0.753275       11.5654
     0.756914       11.5653
     0.760553       11.5652
     0.764192        11.565
     0.767831       11.5649
      0.77147       11.5647
     0.775109       11.5646
     0.778748       11.5645
     0.782387       11.5643
     0.786026       11.5642
     0.789665        11.564
     0.793304       11.5639
     0.796943       11.5638
     0.800582       11.5636
     0.804221       11.5635
      0.80786       11.5634
     0.811499       11.5632
     0.815138       11.5631
     0.818777       11.5629
     0.822416       11.5628
     0.826055       11.5627
     0.829694       11.5625
     0.833333       11.5624
     0.836972       11.5623
     0.840611       11.5622
      0.84425        11.562
     0.847889       11.5619
     0.851528       11.5618
     0.855167       11.5617
     0.858806       11.5616
     0.862445       11.5614
     0.866084       11.5613
     0.869723       11.5612
     0.873362       11.5611
     0.877001        11.561
      0.88064       11.5609
     0.884279       11.5608
     0.887918       11.5607
     0.891557       11.5606
     0.895197       11.5605
     0.898836       11.5604
     0.902475       11.5603
     0.906114       11.5602
     0.909753       11.5601
     0.913392         11.56
     0.917031       11.5599
      0.92067       11.5598
     0.924309       11.5598
     0.927948       11.5597
     0.931587       11.5596
     0.935226       11.5595
     0.938865       11.5595
     0.942504       11.5594
     0.946143       11.5593
     0.949782       11.5592
     0.953421       11.5592
      0.95706       11.5591
     0.960699        11.559
     0.964338        11.559
     0.967977       11.5589
     0.971616       11.5589
     0.975255       11.5588
     0.978894       11.5587
     0.982533       11.5587
     0.986172       11.5586
     0.989811       11.5586
      0.99345       11.5585
     0.997089       11.5585
      1.00073       11.5584
      1.00437       11.5584
      1.00801       11.5584
      1.01164       11.5583
      1.01528       11.5583
      1.01892       11.5582
      1.02256       11.5582
       1.0262       11.5582
      1.02984       11.5581
      1.03348       11.5581
      1.03712       11.5581
      1.04076        11.558
       1.0444        11.558
      1.04803        11.558
      1.05167       11.5579
      1.05531       11.5579
      1.05895       11.5579
      1.06259       11.5579
      1.06623       11.5578
      1.06987       11.5578
      1.07351       11.5578
      1.07715       11.5578
      1.08079       11.5577
      1.08443       11.5577
      1.08806       11.5577
       1.0917       11.5577
      1.09534       11.5577
      1.09898       11.5576
      1.10262       11.5576
      1.10626       11.5576
       1.1099       11.5576
      1.11354       11.5576
      1.11718       11.5575
      1.12082       11.5575
      1.12445       11.5575
      1.12809       11.5575
      1.13173       11.5575
      1.13537       11.5575
      1.13901       11.5574
      1.14265       11.5574
      1.14629       11.5574
      1.14993       11.5574
      1.15357       11.5574
      1.15721       11.5574
      1.16084       11.5573
      1.16448       11.5573
      1.16812       11.5573
      1.17176       11.5573
       1.1754       11.5573
      1.17904       11.5573
      1.18268       11.5573
      1.18632       11.5572
      1.18996       11.5572
       1.1936       11.5572
      1.19723       11.5572
      1.20087       11.5572
      1.20451       11.5572
      1.20815       11.5572
      1.21179       11.5571
      1.21543       11.5571
      1.21907       11.5571
      1.22271       11.5571
      1.22635       11.5571
      1.22999       11.5571
      1.23362        11.557
      1.23726        11.557
       1.2409        11.557
      1.24454        11.557
      1.24818        11.557
      1.25182        11.557
      1.25546       11.5569
       1.2591       11.5569
      1.26274       11.5569
      1.26638       11.5569
      1.27001       11.5569
      1.27365       11.5568
      1.27729       11.5568
      1.28093       11.5568
      1.28457       11.5568
      1.28821       11.5568
      1.29185       11.5567
      1.29549       11.5567
      1.29913       11.5567
      1.30277       11.5567
       1.3064       11.5567
      1.31004       11.5566
      1.31368       11.5566
      1.31732       11.5566
      1.32096       11.5566
       1.3246       11.5565
      1.32824       11.5565
      1.33188       11.5565
      1.33552       11.5565
      1.33916       11.5564
      1.34279       11.5564
      1.34643       11.5564
      1.35007       11.5564
      1.35371       11.5563
      1.35735       11.5563
      1.36099       11.5563
      1.36463       11.5563
      1.36827       11.5562
      1.37191       11.5562
      1.37555       11.5562
      1.37918       11.5561
      1.38282       11.5561
      1.38646       11.5561
       1.3901       11.5561
      1.39374        11.556
      1.39738        11.556
      1.40102        11.556
      1.40466       11.5559
       1.4083       11.5559
      1.41194       11.5559
      1.41557       11.5559
      1.41921       11.5558
      1.42285       11.5558
      1.42649       11.5558
      1.43013       11.5557
      1.43377       11.5557
      1.43741       11.5557
      1.44105       11.5556
      1.44469       11.5556
      1.44833       11.5556
      1.45197       11.5555
       1.4556       11.5555
      1.45924       11.5555
      1.46288       11.5554
      1.46652       11.5554
      1.47016       11.5554
       1.4738       11.5553
      1.47744       11.5553
      1.48108       11.5553
      1.48472       11.5552
      1.48836       11.5552
      1.49199       11.5552
      1.49563       11.5551
      1.49927       11.5551
      1.50291       11.5551
      1.50655        11.555
      1.51019        11.555
      1.51383        11.555
      1.51747       11.5549
      1.52111       11.5549
      1.52475       11.5548
      1.52838       11.5548
      1.53202       11.5548
      1.53566       11.5547
       1.5393       11.5547
      1.54294       11.5547
      1.54658       11.5546
      1.55022       11.5546
      1.55386       11.5546
       1.5575       11.5545
      1.56114       11.5545
      1.56477       11.5544
      1.56841       11.5544
      1.57205       11.5544
      1.57569       11.5543
      1.57933       11.5543
      1.58297       11.5542
      1.58661       11.5542
      1.59025       11.5542
      1.59389       11.5541
      1.59753       11.5541
      1.60116       11.5541
       1.6048        11.554
      1.60844        11.554
      1.61208       11.5539
      1.61572       11.5539
      1.61936       11.5539
        1.623       11.5538
      1.62664       11.5538
      1.63028       11.5538
      1.63392       11.5537
      1.63755       11.5537
      1.64119       11.5536
      1.64483       11.5536
      1.64847       11.5536
      1.65211       11.5535
      1.65575       11.5535
      1.65939       11.5534
      1.66303       11.5534
      1.66667       11.5534
      1.67031       11.5533
      1.67394       11.5533
      1.67758       11.5532
      1.68122       11.5532
      1.68486       11.5532
       1.6885       11.5531
      1.69214       11.5531
      1.69578        11.553
      1.69942        11.553
      1.70306        11.553
       1.7067       11.5529
      1.71033       11.5529
      1.71397       11.5528
      1.71761       11.5528
      1.72125       11.5528
      1.72489       11.5527
      1.72853       11.5527
      1.73217       11.5526
      1.73581       11.5526
      1.73945       11.5526
      1.74309       11.5525
      1.74672       11.5525
      1.75036       11.5525
        1.754       11.5524
      1.75764       11.5524
      1.76128       11.5523
      1.76492       11.5523
      1.76856       11.5523
       1.7722       11.5522
      1.77584       11.5522
      1.77948       11.5521
      1.78311       11.5521
      1.78675       11.5521
      1.79039        11.552
      1.79403        11.552
      1.79767       11.5519
      1.80131       11.5519
      1.80495       11.5519
      1.80859       11.5518
      1.81223       11.5518
      1.81587       11.5517
      1.81951       11.5517
      1.82314       11.5517
      1.82678       11.5516
      1.83042       11.5516
      1.83406       11.5515
       1.8377       11.5515
      1.84134       11.5515
      1.84498       11.5514
      1.84862       11.5514
      1.85226       11.5513
       1.8559       11.5513
      1.85953       11.5513
      1.86317       11.5512
      1.86681       11.5512
      1.87045       11.5511
      1.87409       11.5511
      1.87773       11.5511
      1.88137        11.551
      1.88501        11.551
      1.88865       11.5509
      1.89229       11.5509
      1.89592       11.5509
      1.89956       11.5508
       1.9032       11.5508
      1.90684       11.5507
      1.91048       11.5507
      1.91412       11.5507
      1.91776       11.5506
       1.9214       11.5506
      1.92504       11.5505
      1.92868       11.5505
      1.93231       11.5505
      1.93595       11.5504
      1.93959       11.5504
      1.94323       11.5503
      1.94687       11.5503
      1.95051       11.5503
      1.95415       11.5502
      1.95779       11.5502
      1.96143       11.5501
      1.96507       11.5501
       1.9687       11.5501
      1.97234         11.55
      1.97598         11.55
      1.97962         11.55
      1.98326       11.5499
       1.9869       11.5499
      1.99054       11.5498
      1.99418       11.5498
      1.99782       11.5498
      2.00146       11.5497
      2.00509       11.5497
      2.00873       11.5496
      2.01237       11.5496
      2.01601       11.5496
      2.01965       11.5495
      2.02329       11.5495
      2.02693       11.5494
      2.03057       11.5494
      2.03421       11.5494
      2.03785       11.5493
      2.04148       11.5493
      2.04512       11.5492
      2.04876       11.5492
       2.0524       11.5492
      2.05604       11.5491
      2.05968       11.5491
      2.06332       11.5491
      2.06696        11.549
       2.0706        11.549
      2.07424       11.5489
      2.07787       11.5489
      2.08151       11.5489
      2.08515       11.5488
      2.08879       11.5488
      2.09243       11.5487
      2.09607       11.5487
      2.09971       11.5487
      2.10335       11.5486
      2.10699       11.5486
      2.11063       11.5486
      2.11426       11.5485
       2.1179       11.5485
      2.12154       11.5484
      2.12518       11.5484
      2.12882       11.5484
      2.13246       11.5483
       2.1361       11.5483
      2.13974       11.5482
      2.14338       11.5482
      2.14702       11.5482
      2.15066       11.5481
      2.15429       11.5481
      2.15793       11.5481
      2.16157        11.548
      2.16521        11.548
      2.16885       11.5479
      2.17249       11.5479
      2.17613       11.5479
      2.17977       11.5478
      2.18341       11.5478
      2.18705       11.5478
      2.19068       11.5477
      2.19432       11.5477
      2.19796       11.5476
       2.2016       11.5476
      2.20524       11.5476
      2.20888       11.5475
      2.21252       11.5475
      2.21616       11.5475
       2.2198       11.5474
      2.22344       11.5474
      2.22707       11.5473
      2.23071       11.5473
      2.23435       11.5473
      2.23799       11.5472
      2.24163       11.5472
      2.24527       11.5472
      2.24891       11.5471
      2.25255       11.5471
      2.25619        11.547
      2.25983        11.547
      2.26346        11.547
       2.2671       11.5469
      2.27074       11.5469
      2.27438       11.5469
      2.27802       11.5468
      2.28166       11.5468
       2.2853       11.5468
      2.28894       11.5467
      2.29258       11.5467
      2.29622       11.5466
      2.29985       11.5466
      2.30349       11.5466
      2.30713       11.5465
      2.31077       11.5465
      2.31441       11.5465
      2.31805       11.5464
      2.32169       11.5464
      2.32533       11.5464
      2.32897       11.5463
      2.33261       11.5463
      2.33624       11.5462
      2.33988       11.5462
      2.34352       11.5462
      2.34716       11.5461
       2.3508       11.5461
      2.35444       11.5461
      2.35808        11.546
      2.36172        11.546
      2.36536        11.546
        2.369       11.5459
      2.37263       11.5459
      2.37627       11.5458
      2.37991       11.5458
      2.38355       11.5458
      2.38719       11.5457
      2.39083       11.5457
      2.39447       11.5457
      2.39811       11.5456
      2.40175       11.5456
      2.40539       11.5456
      2.40902       11.5455
      2.41266       11.5455
       2.4163       11.5455
      2.41994       11.5454
      2.42358       11.5454
      2.42722       11.5454
      2.43086       11.5453
       2.4345       11.5453
      2.43814       11.5452
      2.44178       11.5452
      2.44541       11.5452
      2.44905       11.5451
      2.45269       11.5451
      2.45633       11.5451
      2.45997        11.545
      2.46361        11.545
      2.46725        11.545
      2.47089       11.5449
      2.47453       11.5449
      2.47817       11.5449
       2.4818       11.5448
      2.48544       11.5448
      2.48908       11.5448
      2.49272       11.5447
      2.49636       11.5447
          2.5       11.5447
      2.50364       11.5446
      2.50728       11.5446
      2.51092       11.5445
      2.51456       11.5445
       2.5182       11.5445
      2.52183       11.5444
      2.52547       11.5444
      2.52911       11.5444
      2.53275       11.5443
      2.53639       11.5443
      2.54003       11.5443
      2.54367       11.5442
      2.54731       11.5442
      2.55095       11.5442
      2.55459       11.5441
      2.55822       11.5441
      2.56186       11.5441
       2.5655        11.544
      2.56914        11.544
      2.57278        11.544
      2.57642       11.5439
      2.58006       11.5439
       2.5837       11.5439
      2.58734       11.5438
      2.59098       11.5438
      2.59461       11.5438
      2.59825       11.5437
      2.60189       11.5437
      2.60553       11.5437
      2.60917       11.5436
      2.61281       11.5436
      2.61645       11.5436
      2.62009       11.5435
      2.62373       11.5435
      2.62737       11.5435
        2.631       11.5434
      2.63464       11.5434
      2.63828       11.5434
      2.64192       11.5433
      2.64556       11.5433
       2.6492       11.5433
      2.65284       11.5432
      2.65648       11.5432
      2.66012       11.5432
      2.66376       11.5431
      2.66739       11.5431
      2.67103       11.5431
      2.67467        11.543
      2.67831        11.543
      2.68195        11.543
      2.68559       11.5429
      2.68923       11.5429
      2.69287       11.5429
      2.69651       11.5428
      2.70015       11.5428
      2.70378       11.5428
      2.70742       11.5427
      2.71106       11.5427
       2.7147       11.5427
      2.71834       11.5426
      2.72198       11.5426
      2.72562       11.5426
      2.72926       11.5425
       2.7329       11.5425
      2.73654       11.5425
      2.74017       11.5425
      2.74381       11.5424
      2.74745       11.5424
      2.75109       11.5424
      2.75473       11.5423
      2.75837       11.5423
      2.76201       11.5423
      2.76565       11.5422
      2.76929       11.5422
      2.77293       11.5422
      2.77656       11.5421
       2.7802       11.5421
      2.78384       11.5421
      2.78748        11.542
      2.79112        11.542
      2.79476        11.542
       2.7984       11.5419
      2.80204       11.5419
      2.80568       11.5419
      2.80932       11.5418
      2.81295       11.5418
      2.81659       11.5418
      2.82023       11.5418
      2.82387       11.5417
      2.82751       11.5417
      2.83115       11.5417
      2.83479       11.5416
      2.83843       11.5416
      2.84207       11.5416
      2.84571       11.5415
      2.84934       11.5415
      2.85298       11.5415
      2.85662       11.5414
      2.86026       11.5414
       2.8639       11.5414
      2.86754       11.5413
      2.87118       11.5413
      2.87482       11.5413
      2.87846       11.5413
       2.8821       11.5412
      2.88574       11.5412
      2.88937       11.5412
      2.89301       11.5411
      2.89665       11.5411
      2.90029       11.5411
      2.90393        11.541
      2.90757        11.541
      2.91121        11.541
      2.91485       11.5409
      2.91849       11.5409
      2.92213       11.5409
      2.92576       11.5409
       2.9294       11.5408
      2.93304       11.5408
      2.93668       11.5408
      2.94032       11.5407
      2.94396       11.5407
       2.9476       11.5407
      2.95124       11.5406
      2.95488       11.5406
      2.95852       11.5406
      2.96215       11.5406
      2.96579       11.5405
      2.96943       11.5405
      2.97307       11.5405
      2.97671       11.5404
      2.98035       11.5404
      2.98399       11.5404
      2.98763       11.5403
      2.99127       11.5403
      2.99491       11.5403
      2.99854       11.5403
      3.00218       11.5402
      3.00582       11.5402
      3.00946       11.5402
       3.0131       11.5401
      3.01674       11.5401
      3.02038       11.5401
      3.02402       11.5401
      3.02766         11.54
       3.0313         11.54
      3.03493         11.54
      3.03857       11.5399
      3.04221       11.5399
      3.04585       11.5399
      3.04949       11.5398
      3.05313       11.5398
      3.05677       11.5398
      3.06041       11.5398
      3.06405       11.5397
      3.06769       11.5397
      3.07132       11.5397
      3.07496       11.5396
       3.0786       11.5396
      3.08224       11.5396
      3.08588       11.5396
      3.08952       11.5395
      3.09316       11.5395
       3.0968       11.5395
      3.10044       11.5394
      3.10408       11.5394
      3.10771       11.5394
      3.11135       11.5394
      3.11499       11.5393
      3.11863       11.5393
      3.12227       11.5393
      3.12591       11.5392
      3.12955       11.5392
      3.13319       11.5392
      3.13683       11.5392
      3.14047       11.5391
       3.1441       11.5391
      3.14774       11.5391
      3.15138        11.539
      3.15502        11.539
      3.15866        11.539
       3.1623        11.539
      3.16594       11.5389
      3.16958       11.5389
      3.17322       11.5389
      3.17686       11.5389
      3.18049       11.5388
      3.18413       11.5388
      3.18777       11.5388
      3.19141       11.5387
      3.19505       11.5387
      3.19869       11.5387
      3.20233       11.5387
      3.20597       11.5386
      3.20961       11.5386
      3.21325       11.5386
      3.21689       11.5385
      3.22052       11.5385
      3.22416       11.5385
       3.2278       11.5385
      3.23144       11.5384
      3.23508       11.5384
      3.23872       11.5384
      3.24236       11.5384
        3.246       11.5383
      3.24964       11.5383
      3.25328       11.5383
      3.25691       11.5382
      3.26055       11.5382
      3.26419       11.5382
      3.26783       11.5382
      3.27147       11.5381
      3.27511       11.5381
      3.27875       11.5381
      3.28239       11.5381
      3.28603        11.538
      3.28967        11.538
       3.2933        11.538
      3.29694        11.538
      3.30058       11.5379
      3.30422       11.5379
      3.30786       11.5379
       3.3115       11.5378
      3.31514       11.5378
      3.31878       11.5378
      3.32242       11.5378
      3.32606       11.5377
      3.32969       11.5377
      3.33333       11.5377
      3.33697       11.5377
      3.34061       11.5376
      3.34425       11.5376
      3.34789       11.5376
      3.35153       11.5376
      3.35517       11.5375
      3.35881       11.5375
      3.36245       11.5375
      3.36608       11.5374
      3.36972       11.5374
      3.37336       11.5374
        3.377       11.5374
      3.38064       11.5373
      3.38428       11.5373
      3.38792       11.5373
      3.39156       11.5373
       3.3952       11.5372
      3.39884       11.5372
      3.40247       11.5372
      3.40611       11.5372
      3.40975       11.5371
      3.41339       11.5371
      3.41703       11.5371
      3.42067       11.5371
      3.42431        11.537
      3.42795        11.537
      3.43159        11.537
      3.43523        11.537
      3.43886       11.5369
       3.4425       11.5369
      3.44614       11.5369
      3.44978       11.5369
      3.45342       11.5368
      3.45706       11.5368
       3.4607       11.5368
      3.46434       11.5368
      3.46798       11.5367
      3.47162       11.5367
      3.47525       11.5367
      3.47889       11.5367
      3.48253       11.5366
      3.48617       11.5366
      3.48981       11.5366
      3.49345       11.5366
      3.49709       11.5365
      3.50073       11.5365
      3.50437       11.5365
      3.50801       11.5365
      3.51164       11.5364
      3.51528       11.5364
      3.51892       11.5364
      3.52256       11.5364
       3.5262       11.5363
      3.52984       11.5363
      3.53348       11.5363
      3.53712       11.5363
      3.54076       11.5362
       3.5444       11.5362
      3.54803       11.5362
      3.55167       11.5362
      3.55531       11.5361
      3.55895       11.5361
      3.56259       11.5361
      3.56623       11.5361
      3.56987        11.536
      3.57351        11.536
      3.57715        11.536
      3.58079        11.536
      3.58443       11.5359
      3.58806       11.5359
       3.5917       11.5359
      3.59534       11.5359
      3.59898       11.5358
      3.60262       11.5358
      3.60626       11.5358
       3.6099       11.5358
      3.61354       11.5357
      3.61718       11.5357
      3.62082       11.5357
      3.62445       11.5357
      3.62809       11.5356
      3.63173       11.5356
      3.63537       11.5356
      3.63901       11.5356
      3.64265       11.5356
      3.64629       11.5355
      3.64993       11.5355
      3.65357       11.5355
      3.65721       11.5355
      3.66084       11.5354
      3.66448       11.5354
      3.66812       11.5354
      3.67176       11.5354
       3.6754       11.5353
      3.67904       11.5353
      3.68268       11.5353
      3.68632       11.5353
      3.68996       11.5352
       3.6936       11.5352
      3.69723       11.5352
      3.70087       11.5352
      3.70451       11.5352
      3.70815       11.5351
      3.71179       11.5351
      3.71543       11.5351
      3.71907       11.5351
      3.72271        11.535
      3.72635        11.535
      3.72999        11.535
      3.73362        11.535
      3.73726       11.5349
       3.7409       11.5349
      3.74454       11.5349
      3.74818       11.5349
      3.75182       11.5348
      3.75546       11.5348
       3.7591       11.5348
      3.76274       11.5348
      3.76638       11.5348
      3.77001       11.5347
      3.77365       11.5347
      3.77729       11.5347
      3.78093       11.5347
      3.78457       11.5346
      3.78821       11.5346
      3.79185       11.5346
      3.79549       11.5346
      3.79913       11.5346
      3.80277       11.5345
       3.8064       11.5345
      3.81004       11.5345
      3.81368       11.5345
      3.81732       11.5344
      3.82096       11.5344
       3.8246       11.5344
      3.82824       11.5344
      3.83188       11.5344
      3.83552       11.5343
      3.83916       11.5343
      3.84279       11.5343
      3.84643       11.5343
      3.85007       11.5342
      3.85371       11.5342
      3.85735       11.5342
      3.86099       11.5342
      3.86463       11.5342
      3.86827       11.5341
      3.87191       11.5341
      3.87555       11.5341
      3.87918       11.5341
      3.88282        11.534
      3.88646        11.534
       3.8901        11.534