# Probe 0 (0.08 0.09 0)
#       Probe             0
#        Time
   0.00425532   1.99999e-06
   0.00851064   1.99997e-06
     0.012766   1.99994e-06
    0.0170213   1.99992e-06
    0.0212766    1.9999e-06
    0.0255319   1.99989e-06
    0.0297872   1.99989e-06
    0.0340426   1.99989e-06
    0.0382979   1.99989e-06
    0.0425532    1.9999e-06
    0.0468085    1.9999e-06
    0.0510638    1.9999e-06
    0.0553191   1.99991e-06
    0.0595745   1.99991e-06
    0.0638298   1.99991e-06
    0.0680851   1.99992e-06
    0.0723404   1.99992e-06
    0.0765957   1.99992e-06
    0.0808511   1.99992e-06
    0.0851064   1.99993e-06
    0.0893617   1.99993e-06
     0.093617   1.99993e-06
    0.0978723   1.99994e-06
     0.102128   1.99994e-06
     0.106383   1.99994e-06
     0.110638   1.99995e-06
     0.114894   1.99995e-06
     0.119149   1.99996e-06
     0.123404   1.99996e-06
      0.12766   1.99997e-06
     0.131915   1.99997e-06
      0.13617   1.99998e-06
     0.140426   1.99999e-06
     0.144681   1.99999e-06
     0.148936         2e-06
     0.153191   2.00001e-06
     0.157447   2.00002e-06
     0.161702   2.00002e-06
     0.165957   2.00003e-06
     0.170213   2.00004e-06
     0.174468   2.00005e-06
     0.178723   2.00006e-06
     0.182979   2.00007e-06
     0.187234   2.00008e-06
     0.191489   2.00009e-06
     0.195745    2.0001e-06
          0.2   2.00011e-06
     0.204255   2.00012e-06
     0.208511   2.00013e-06
     0.212766   2.00014e-06
     0.217021   2.00015e-06
     0.221277   2.00016e-06
     0.225532   2.00017e-06
     0.229787   2.00019e-06
     0.234043    2.0002e-06
     0.238298   2.00021e-06
     0.242553   2.00022e-06
     0.246809   2.00023e-06
     0.251064   2.00024e-06
     0.255319   2.00025e-06
     0.259574   2.00026e-06
      0.26383   2.00027e-06
     0.268085   2.00028e-06
      0.27234   2.00029e-06
     0.276596    2.0003e-06
     0.280851   2.00031e-06
     0.285106   2.00032e-06
     0.289362   2.00033e-06
