# Probe 0 (0.08 0.09 0)
#       Probe             0
#        Time
   0.00363901             0
   0.00727802             0
     0.010917             0
     0.014556             0
    0.0181951             0
    0.0218341             0
    0.0254731             0
    0.0291121             0
    0.0327511             0
    0.0363901             0
    0.0400291             0
    0.0436681             0
    0.0473071             0
    0.0509461             0
    0.0545852             0
    0.0582242             0
    0.0618632             0
    0.0655022             0
    0.0691412             0
    0.0727802             0
    0.0764192             0
    0.0800582             0
    0.0836972             0
    0.0873362             0
    0.0909753             0
    0.0946143             0
    0.0982533             0
     0.101892             0
     0.105531             0
      0.10917             0
     0.112809             0
     0.116448             0
     0.120087             0
     0.123726             0
     0.127365             0
     0.131004             0
     0.134643             0
     0.138282             0
     0.141921             0
      0.14556             0
     0.149199             0
     0.152838             0
     0.156477             0
     0.160116             0
     0.163755             0
     0.167394             0
     0.171033             0
     0.174672             0
     0.178311             0
     0.181951             0
      0.18559             0
     0.189229             0
     0.192868             0
     0.196507             0
     0.200146             0
     0.203785             0
     0.207424             0
     0.211063             0
     0.214702             0
     0.218341             0
      0.22198             0
     0.225619             0
     0.229258             0
     0.232897             0
     0.236536             0
     0.240175             0
     0.243814             0
     0.247453             0
     0.251092             0
     0.254731             0
      0.25837             0
     0.262009             0
     0.265648             0
     0.269287             0
     0.272926             0
     0.276565             0
     0.280204             0
     0.283843             0
     0.287482             0
     0.291121             0
      0.29476             0
     0.298399             0
     0.302038             0
     0.305677             0
     0.309316             0
     0.312955             0
     0.316594             0
     0.320233             0
     0.323872             0
     0.327511             0
      0.33115             0
     0.334789             0
     0.338428             0
     0.342067             0
     0.345706             0
     0.349345             0
     0.352984             0
     0.356623             0
     0.360262             0
     0.363901             0
      0.36754             0
     0.371179             0
     0.374818             0
     0.378457             0
     0.382096             0
     0.385735             0
     0.389374             0
     0.393013             0
     0.396652             0
     0.400291             0
      0.40393             0
     0.407569             0
     0.411208             0
     0.414847             0
     0.418486             0
     0.422125             0
     0.425764             0
     0.429403             0
     0.433042             0
     0.436681             0
      0.44032             0
     0.443959             0
     0.447598             0
     0.451237             0
     0.454876             0
     0.458515             0
     0.462154             0
     0.465793             0
     0.469432             0
     0.473071             0
      0.47671             0
     0.480349             0
     0.483988             0
     0.487627             0
     0.491266             0
     0.494905             0
     0.498544             0
     0.502183             0
     0.505822             0
     0.509461             0
       0.5131             0
     0.516739             0
     0.520378             0
     0.524017             0
     0.527656             0
     0.531295             0
     0.534934             0
     0.538574             0
     0.542213             0
     0.545852             0
     0.549491             0
      0.55313             0
     0.556769             0
     0.560408             0
     0.564047             0
     0.567686             0
     0.571325             0
     0.574964             0
     0.578603             0
     0.582242             0
     0.585881             0
      0.58952             0
     0.593159             0
     0.596798             0
     0.600437             0
     0.604076             0
     0.607715             0
     0.611354             0
     0.614993             0
     0.618632             0
     0.622271             0
      0.62591             0
     0.629549             0
     0.633188             0
     0.636827             0
     0.640466             0
     0.644105             0
     0.647744             0
     0.651383             0
     0.655022             0
     0.658661             0
       0.6623             0
     0.665939             0
     0.669578             0
     0.673217             0
     0.676856             0
     0.680495             0
     0.684134             0
     0.687773             0
     0.691412             0
     0.695051             0
      0.69869             0
     0.702329             0
     0.705968             0
     0.709607             0
     0.713246             0
     0.716885             0
     0.720524             0
     0.724163             0
     0.727802             0
     0.731441             0
      0.73508             0
     0.738719             0
     0.742358             0
     0.745997             0
     0.749636             0
     0.753275             0
     0.756914             0
     0.760553             0
     0.764192             0
     0.767831             0
      0.77147             0
     0.775109             0
     0.778748             0
     0.782387             0
     0.786026             0
     0.789665             0
     0.793304             0
     0.796943             0
     0.800582             0
     0.804221             0
      0.80786             0
     0.811499             0
     0.815138             0
     0.818777             0
     0.822416             0
     0.826055             0
     0.829694             0
     0.833333             0
     0.836972             0
     0.840611             0
      0.84425             0
     0.847889             0
     0.851528             0
     0.855167             0
     0.858806             0
     0.862445             0
     0.866084             0
     0.869723             0
     0.873362             0
     0.877001             0
      0.88064             0
     0.884279             0
     0.887918             0
     0.891557             0
     0.895197             0
     0.898836             0
     0.902475             0
     0.906114             0
     0.909753             0
     0.913392             0
     0.917031             0
      0.92067             0
     0.924309             0
     0.927948             0
     0.931587             0
     0.935226             0
     0.938865             0
     0.942504             0
     0.946143             0
     0.949782             0
     0.953421             0
      0.95706             0
     0.960699             0
     0.964338             0
     0.967977             0
     0.971616             0
     0.975255             0
     0.978894             0
     0.982533             0
     0.986172             0
     0.989811             0
      0.99345             0
     0.997089             0
      1.00073             0
      1.00437             0
      1.00801             0
      1.01164             0
      1.01528             0
      1.01892             0
      1.02256             0
       1.0262             0
      1.02984             0
      1.03348             0
      1.03712             0
      1.04076             0
       1.0444             0
      1.04803             0
      1.05167             0
      1.05531             0
      1.05895             0
      1.06259             0
      1.06623             0
      1.06987             0
      1.07351             0
      1.07715             0
      1.08079             0
      1.08443             0
      1.08806             0
       1.0917             0
      1.09534             0
      1.09898             0
      1.10262             0
      1.10626             0
       1.1099             0
      1.11354             0
      1.11718             0
      1.12082             0
      1.12445             0
      1.12809             0
      1.13173             0
      1.13537             0
      1.13901             0
      1.14265             0
      1.14629             0
      1.14993             0
      1.15357             0
      1.15721             0
      1.16084             0
      1.16448             0
      1.16812             0
      1.17176             0
       1.1754             0
      1.17904             0
      1.18268             0
      1.18632             0
      1.18996             0
       1.1936             0
      1.19723             0
      1.20087             0
      1.20451             0
      1.20815             0
      1.21179             0
      1.21543             0
      1.21907             0
      1.22271             0
      1.22635             0
      1.22999             0
      1.23362             0
      1.23726             0
       1.2409             0
      1.24454             0
      1.24818             0
      1.25182             0
      1.25546             0
       1.2591             0
      1.26274             0
      1.26638             0
      1.27001             0
      1.27365             0
      1.27729             0
      1.28093             0
      1.28457             0
      1.28821             0
      1.29185             0
      1.29549             0
      1.29913             0
      1.30277             0
       1.3064             0
      1.31004             0
      1.31368             0
      1.31732             0
      1.32096             0
       1.3246             0
      1.32824             0
      1.33188             0
      1.33552             0
      1.33916             0
      1.34279             0
      1.34643             0
      1.35007             0
      1.35371             0
      1.35735             0
      1.36099             0
      1.36463             0
      1.36827             0
      1.37191             0
      1.37555             0
      1.37918             0
      1.38282             0
      1.38646             0
       1.3901             0
      1.39374             0
      1.39738             0
      1.40102             0
      1.40466             0
       1.4083             0
      1.41194             0
      1.41557             0
      1.41921             0
      1.42285             0
      1.42649             0
      1.43013             0
      1.43377             0
      1.43741             0
      1.44105             0
      1.44469             0
      1.44833             0
      1.45197             0
       1.4556             0
      1.45924             0
      1.46288             0
      1.46652             0
      1.47016             0
       1.4738             0
      1.47744             0
      1.48108             0
      1.48472             0
      1.48836             0
      1.49199             0
      1.49563             0
      1.49927             0
      1.50291             0
      1.50655             0
      1.51019             0
      1.51383             0
      1.51747             0
      1.52111             0
      1.52475             0
      1.52838             0
      1.53202             0
      1.53566             0
       1.5393             0
      1.54294             0
      1.54658             0
      1.55022             0
      1.55386             0
       1.5575             0
      1.56114             0
      1.56477             0
      1.56841             0
      1.57205             0
      1.57569             0
      1.57933             0
      1.58297             0
      1.58661             0
      1.59025             0
      1.59389             0
      1.59753             0
      1.60116             0
       1.6048             0
      1.60844             0
      1.61208             0
      1.61572             0
      1.61936             0
        1.623             0
      1.62664             0
      1.63028             0
      1.63392             0
      1.63755             0
      1.64119             0
      1.64483             0
      1.64847             0
      1.65211             0
      1.65575             0
      1.65939             0
      1.66303             0
      1.66667             0
      1.67031             0
      1.67394             0
      1.67758             0
      1.68122             0
      1.68486             0
       1.6885             0
      1.69214             0
      1.69578             0
      1.69942             0
      1.70306             0
       1.7067             0
      1.71033             0
      1.71397             0
      1.71761             0
      1.72125             0
      1.72489             0
      1.72853             0
      1.73217             0
      1.73581             0
      1.73945             0
      1.74309             0
      1.74672             0
      1.75036             0
        1.754             0
      1.75764             0
      1.76128             0
      1.76492             0
      1.76856             0
       1.7722             0
      1.77584             0
      1.77948             0
      1.78311             0
      1.78675             0
      1.79039             0
      1.79403             0
      1.79767             0
      1.80131             0
      1.80495             0
      1.80859             0
      1.81223             0
      1.81587             0
      1.81951             0
      1.82314             0
      1.82678             0
      1.83042             0
      1.83406             0
       1.8377             0
      1.84134             0
      1.84498             0
      1.84862             0
      1.85226             0
       1.8559             0
      1.85953             0
      1.86317             0
      1.86681             0
      1.87045             0
      1.87409             0
      1.87773             0
      1.88137             0
      1.88501             0
      1.88865             0
      1.89229             0
      1.89592             0
      1.89956             0
       1.9032             0
      1.90684             0
      1.91048             0
      1.91412             0
      1.91776             0
       1.9214             0
      1.92504             0
      1.92868             0
      1.93231             0
      1.93595             0
      1.93959             0
      1.94323             0
      1.94687             0
      1.95051             0
      1.95415             0
      1.95779             0
      1.96143             0
      1.96507             0
       1.9687             0
      1.97234             0
      1.97598             0
      1.97962             0
      1.98326             0
       1.9869             0
      1.99054             0
      1.99418             0
      1.99782             0
      2.00146             0
      2.00509             0
      2.00873             0
      2.01237             0
      2.01601             0
      2.01965             0
      2.02329             0
      2.02693             0
      2.03057             0
      2.03421             0
      2.03785             0
      2.04148             0
      2.04512             0
      2.04876             0
       2.0524             0
      2.05604             0
      2.05968             0
      2.06332             0
      2.06696             0
       2.0706             0
      2.07424             0
      2.07787             0
      2.08151             0
      2.08515             0
      2.08879             0
      2.09243             0
      2.09607             0
      2.09971             0
      2.10335             0
      2.10699             0
      2.11063             0
      2.11426             0
       2.1179             0
      2.12154             0
      2.12518             0
      2.12882             0
      2.13246             0
       2.1361             0
      2.13974             0
      2.14338             0
      2.14702             0
      2.15066             0
      2.15429             0
      2.15793             0
      2.16157             0
      2.16521             0
      2.16885             0
      2.17249             0
      2.17613             0
      2.17977             0
      2.18341             0
      2.18705             0
      2.19068             0
      2.19432             0
      2.19796             0
       2.2016             0
      2.20524             0
      2.20888             0
      2.21252             0
      2.21616             0
       2.2198             0
      2.22344             0
      2.22707             0
      2.23071             0
      2.23435             0
      2.23799             0
      2.24163             0
      2.24527             0
      2.24891             0
      2.25255             0
      2.25619             0
      2.25983             0
      2.26346             0
       2.2671             0
      2.27074             0
      2.27438             0
      2.27802             0
      2.28166             0
       2.2853             0
      2.28894             0
      2.29258             0
      2.29622             0
      2.29985             0
      2.30349             0
      2.30713             0
      2.31077             0
      2.31441             0
      2.31805             0
      2.32169             0
      2.32533             0
      2.32897             0
      2.33261             0
      2.33624             0
      2.33988             0
      2.34352             0
      2.34716             0
       2.3508             0
      2.35444             0
      2.35808             0
      2.36172             0
      2.36536             0
        2.369             0
      2.37263             0
      2.37627             0
      2.37991             0
      2.38355             0
      2.38719             0
      2.39083             0
      2.39447             0
      2.39811             0
      2.40175             0
      2.40539             0
      2.40902             0
      2.41266             0
       2.4163             0
      2.41994             0
      2.42358             0
      2.42722             0
      2.43086             0
       2.4345             0
      2.43814             0
      2.44178             0
      2.44541             0
      2.44905             0
      2.45269             0
      2.45633             0
      2.45997             0
      2.46361             0
      2.46725             0
      2.47089             0
      2.47453             0
      2.47817             0
       2.4818             0
      2.48544             0
      2.48908             0
      2.49272             0
      2.49636             0
          2.5             0
      2.50364             0
      2.50728             0
      2.51092             0
      2.51456             0
       2.5182             0
      2.52183             0
      2.52547             0
      2.52911             0
      2.53275             0
      2.53639             0
      2.54003             0
      2.54367             0
      2.54731             0
      2.55095             0
      2.55459             0
      2.55822             0
      2.56186             0
       2.5655             0
      2.56914             0
      2.57278             0
      2.57642             0
      2.58006             0
       2.5837             0
      2.58734             0
      2.59098             0
      2.59461             0
      2.59825             0
      2.60189             0
      2.60553             0
      2.60917             0
      2.61281             0
      2.61645             0
      2.62009             0
      2.62373             0
      2.62737             0
        2.631             0
      2.63464             0
      2.63828             0
      2.64192             0
      2.64556             0
       2.6492             0
      2.65284             0
      2.65648             0
      2.66012             0
      2.66376             0
      2.66739             0
      2.67103             0
      2.67467             0
      2.67831             0
      2.68195             0
      2.68559             0
      2.68923             0
      2.69287             0
      2.69651             0
      2.70015             0
      2.70378             0
      2.70742             0
      2.71106             0
       2.7147             0
      2.71834             0
      2.72198             0
      2.72562             0
      2.72926             0
       2.7329             0
      2.73654             0
      2.74017             0
      2.74381             0
      2.74745             0
      2.75109             0
      2.75473             0
      2.75837             0
      2.76201             0
      2.76565             0
      2.76929             0
      2.77293             0
      2.77656             0
       2.7802             0
      2.78384             0
      2.78748             0
      2.79112             0
      2.79476             0
       2.7984             0
      2.80204             0
      2.80568             0
      2.80932             0
      2.81295             0
      2.81659             0
      2.82023             0
      2.82387             0
      2.82751             0
      2.83115             0
      2.83479             0
      2.83843             0
      2.84207             0
      2.84571             0
      2.84934             0
      2.85298             0
      2.85662             0
      2.86026             0
       2.8639             0
      2.86754             0
      2.87118             0
      2.87482             0
      2.87846             0
       2.8821             0
      2.88574             0
      2.88937             0
      2.89301             0
      2.89665             0
      2.90029             0
      2.90393             0
      2.90757             0
      2.91121             0
      2.91485             0
      2.91849             0
      2.92213             0
      2.92576             0
       2.9294             0
      2.93304             0
      2.93668             0
      2.94032             0
      2.94396             0
       2.9476             0
      2.95124             0
      2.95488             0
      2.95852             0
      2.96215             0
      2.96579             0
      2.96943             0
      2.97307             0
      2.97671             0
      2.98035             0
      2.98399             0
      2.98763             0
      2.99127             0
      2.99491             0
      2.99854             0
      3.00218             0
      3.00582             0
      3.00946             0
       3.0131             0
      3.01674             0
      3.02038             0
      3.02402             0
      3.02766             0
       3.0313             0
      3.03493             0
      3.03857             0
      3.04221             0
      3.04585             0
      3.04949             0
      3.05313             0
      3.05677             0
      3.06041             0
      3.06405             0
      3.06769             0
      3.07132             0
      3.07496             0
       3.0786             0
      3.08224             0
      3.08588             0
      3.08952             0
      3.09316             0
       3.0968             0
      3.10044             0
      3.10408             0
      3.10771             0
      3.11135             0
      3.11499             0
      3.11863             0
      3.12227             0
      3.12591             0
      3.12955             0
      3.13319             0
      3.13683             0
      3.14047             0
       3.1441             0
      3.14774             0
      3.15138             0
      3.15502             0
      3.15866             0
       3.1623             0
      3.16594             0
      3.16958             0
      3.17322             0
      3.17686             0
      3.18049             0
      3.18413             0
      3.18777             0
      3.19141             0
      3.19505             0
      3.19869             0
      3.20233             0
      3.20597             0
      3.20961             0
      3.21325             0
      3.21689             0
      3.22052             0
      3.22416             0
       3.2278             0
      3.23144             0
      3.23508             0
      3.23872             0
      3.24236             0
        3.246             0
      3.24964             0
      3.25328             0
      3.25691             0
      3.26055             0
      3.26419             0
      3.26783             0
      3.27147             0
      3.27511             0
      3.27875             0
      3.28239             0
      3.28603             0
      3.28967             0
       3.2933             0
      3.29694             0
      3.30058             0
      3.30422             0
      3.30786             0
       3.3115             0
      3.31514             0
      3.31878             0
      3.32242             0
      3.32606             0
      3.32969             0
      3.33333             0
      3.33697             0
      3.34061             0
      3.34425             0
      3.34789             0
      3.35153             0
      3.35517             0
      3.35881             0
      3.36245             0
      3.36608             0
      3.36972             0
      3.37336             0
        3.377             0
      3.38064             0
      3.38428             0
      3.38792             0
      3.39156             0
       3.3952             0
      3.39884             0
      3.40247             0
      3.40611             0
      3.40975             0
      3.41339             0
      3.41703             0
      3.42067             0
      3.42431             0
      3.42795             0
      3.43159             0
      3.43523             0
      3.43886             0
       3.4425             0
      3.44614             0
      3.44978             0
      3.45342             0
      3.45706             0
       3.4607             0
      3.46434             0
      3.46798             0
      3.47162             0
      3.47525             0
      3.47889             0
      3.48253             0
      3.48617             0
      3.48981             0
      3.49345             0
      3.49709             0
      3.50073             0
      3.50437             0
      3.50801             0
      3.51164             0
      3.51528             0
      3.51892             0
      3.52256             0
       3.5262             0
      3.52984             0
      3.53348             0
      3.53712             0
      3.54076             0
       3.5444             0
      3.54803             0
      3.55167             0
      3.55531             0
      3.55895             0
      3.56259             0
      3.56623             0
      3.56987             0
      3.57351             0
      3.57715             0
      3.58079             0
      3.58443             0
      3.58806             0
       3.5917             0
      3.59534             0
      3.59898             0
      3.60262             0
      3.60626             0
       3.6099             0
      3.61354             0
      3.61718             0
      3.62082             0
      3.62445             0
      3.62809             0
      3.63173             0
      3.63537             0
      3.63901             0
      3.64265             0
      3.64629             0
      3.64993             0
      3.65357             0
      3.65721             0
      3.66084             0
      3.66448             0
      3.66812             0
      3.67176             0
       3.6754             0
      3.67904             0
      3.68268             0
      3.68632             0
      3.68996             0
       3.6936             0
      3.69723             0
      3.70087             0
      3.70451             0
      3.70815             0
      3.71179             0
      3.71543             0
      3.71907             0
      3.72271             0
      3.72635             0
      3.72999             0
      3.73362             0
      3.73726             0
       3.7409             0
      3.74454             0
      3.74818             0
      3.75182             0
      3.75546             0
       3.7591             0
      3.76274             0
      3.76638             0
      3.77001             0
      3.77365             0
      3.77729             0
      3.78093             0
      3.78457             0
      3.78821             0
      3.79185             0
      3.79549             0
      3.79913             0
      3.80277             0
       3.8064             0
      3.81004             0
      3.81368             0
      3.81732             0
      3.82096             0
       3.8246             0
      3.82824             0
      3.83188             0
      3.83552             0
      3.83916             0
      3.84279             0
      3.84643             0
      3.85007             0
      3.85371             0
      3.85735             0
      3.86099             0
      3.86463             0
      3.86827             0
      3.87191             0
      3.87555             0
      3.87918             0
      3.88282             0
      3.88646             0
       3.8901             0