# Probe 0 (0.08 0.09 0)
#       Probe             0
#        Time
   0.00425532   4.61661e+07
   0.00851064   6.78737e+07
     0.012766   7.56425e+07
    0.0170213   8.35432e+07
    0.0212766   9.67028e+07
    0.0255319   1.15323e+08
    0.0297872   1.37944e+08
    0.0340426   1.62929e+08
    0.0382979   1.88989e+08
    0.0425532   2.15237e+08
    0.0468085   2.41092e+08
    0.0510638   2.66261e+08
    0.0553191   2.90621e+08
    0.0595745   3.14165e+08
    0.0638298   3.36855e+08
    0.0680851   3.58784e+08
    0.0723404    3.8021e+08
    0.0765957   4.00669e+08
    0.0808511   4.20826e+08
    0.0851064   4.40511e+08
    0.0893617    4.5982e+08
     0.093617   4.78832e+08
    0.0978723   4.97614e+08
     0.102128   5.16235e+08
     0.106383   5.34752e+08
     0.110638   5.53224e+08
     0.114894   5.71706e+08
     0.119149    5.9024e+08
     0.123404   6.08869e+08
      0.12766   6.27636e+08
     0.131915   6.46595e+08
      0.13617   6.65753e+08
     0.140426   6.85133e+08
     0.144681   7.04791e+08
     0.148936   7.24717e+08
     0.153191   7.44957e+08
     0.157447   7.65495e+08
     0.161702   7.86365e+08
     0.165957   8.07575e+08
     0.170213   8.29112e+08
     0.174468   8.50969e+08
     0.178723   8.73179e+08
     0.182979   8.95709e+08
     0.187234   9.18549e+08
     0.191489   9.41708e+08
     0.195745   9.65156e+08
          0.2    9.8888e+08
     0.204255   1.01287e+09
     0.208511   1.03709e+09
     0.212766   1.06156e+09
     0.217021   1.08621e+09
     0.221277   1.11105e+09
     0.225532   1.13601e+09
     0.229787   1.16112e+09
     0.234043   1.18634e+09
     0.238298   1.21164e+09
     0.242553   1.23699e+09
     0.246809   1.26238e+09
     0.251064    1.2878e+09
     0.255319   1.31321e+09
     0.259574   1.33861e+09
      0.26383   1.36396e+09
     0.268085   1.38927e+09
      0.27234   1.41451e+09
     0.276596   1.43966e+09
     0.280851   1.46473e+09
     0.285106   1.48969e+09
     0.289362   1.51453e+09
