# Probe 0 (0.08 0.09 0)
#       Probe             0
#        Time
   0.00363901   3.02068e+12
   0.00727802   2.97135e+12
     0.010917   2.94236e+12
     0.014556   2.92205e+12
    0.0181951   2.90621e+12
    0.0218341   2.89316e+12
    0.0254731   2.88209e+12
    0.0291121   2.87256e+12
    0.0327511   2.86429e+12
    0.0363901   2.85707e+12
    0.0400291   2.85076e+12
    0.0436681   2.84525e+12
    0.0473071   2.84047e+12
    0.0509461   2.83637e+12
    0.0545852    2.8329e+12
    0.0582242   2.83002e+12
    0.0618632   2.82769e+12
    0.0655022   2.82589e+12
    0.0691412   2.82456e+12
    0.0727802   2.82368e+12
    0.0764192   2.82318e+12
    0.0800582   2.82304e+12
    0.0836972    2.8232e+12
    0.0873362   2.82362e+12
    0.0909753   2.82426e+12
    0.0946143   2.82508e+12
    0.0982533   2.82605e+12
     0.101892   2.82714e+12
     0.105531   2.82832e+12
      0.10917   2.82956e+12
     0.112809   2.83085e+12
     0.116448   2.83217e+12
     0.120087   2.83351e+12
     0.123726   2.83485e+12
     0.127365    2.8362e+12
     0.131004   2.83754e+12
     0.134643   2.83887e+12
     0.138282   2.84018e+12
     0.141921   2.84148e+12
      0.14556   2.84277e+12
     0.149199   2.84404e+12
     0.152838   2.84529e+12
     0.156477   2.84652e+12
     0.160116   2.84774e+12
     0.163755   2.84895e+12
     0.167394   2.85014e+12
     0.171033   2.85131e+12
     0.174672   2.85248e+12
     0.178311   2.85363e+12
     0.181951   2.85476e+12
      0.18559   2.85589e+12
     0.189229     2.857e+12
     0.192868    2.8581e+12
     0.196507   2.85919e+12
     0.200146   2.86026e+12
     0.203785   2.86132e+12
     0.207424   2.86236e+12
     0.211063   2.86339e+12
     0.214702   2.86439e+12
     0.218341   2.86539e+12
      0.22198   2.86636e+12
     0.225619   2.86731e+12
     0.229258   2.86824e+12
     0.232897   2.86915e+12
     0.236536   2.87004e+12
     0.240175   2.87091e+12
     0.243814   2.87176e+12
     0.247453   2.87258e+12
     0.251092   2.87337e+12
     0.254731   2.87414e+12
      0.25837   2.87489e+12
     0.262009   2.87561e+12
     0.265648   2.87631e+12
     0.269287   2.87698e+12
     0.272926   2.87763e+12
     0.276565   2.87825e+12
     0.280204   2.87885e+12
     0.283843   2.87942e+12
     0.287482   2.87997e+12
     0.291121    2.8805e+12
      0.29476     2.881e+12
     0.298399   2.88148e+12
     0.302038   2.88194e+12
     0.305677   2.88237e+12
     0.309316   2.88279e+12
     0.312955   2.88318e+12
     0.316594   2.88356e+12
     0.320233   2.88391e+12
     0.323872   2.88425e+12
     0.327511   2.88457e+12
      0.33115   2.88487e+12
     0.334789   2.88516e+12
     0.338428   2.88544e+12
     0.342067    2.8857e+12
     0.345706   2.88594e+12
     0.349345   2.88617e+12
     0.352984   2.88639e+12
     0.356623    2.8866e+12
     0.360262    2.8868e+12
     0.363901   2.88699e+12
      0.36754   2.88717e+12
     0.371179   2.88733e+12
     0.374818    2.8875e+12
     0.378457   2.88765e+12
     0.382096    2.8878e+12
     0.385735   2.88794e+12
     0.389374   2.88807e+12
     0.393013    2.8882e+12
     0.396652   2.88832e+12
     0.400291   2.88844e+12
      0.40393   2.88855e+12
     0.407569   2.88866e+12
     0.411208   2.88877e+12
     0.414847   2.88887e+12
     0.418486   2.88897e+12
     0.422125   2.88907e+12
     0.425764   2.88916e+12
     0.429403   2.88925e+12
     0.433042   2.88934e+12
     0.436681   2.88943e+12
      0.44032   2.88952e+12
     0.443959    2.8896e+12
     0.447598   2.88968e+12
     0.451237   2.88977e+12
     0.454876   2.88985e+12
     0.458515   2.88992e+12
     0.462154      2.89e+12
     0.465793   2.89008e+12
     0.469432   2.89015e+12
     0.473071   2.89023e+12
      0.47671    2.8903e+12
     0.480349   2.89037e+12
     0.483988   2.89044e+12
     0.487627   2.89051e+12
     0.491266   2.89058e+12
     0.494905   2.89065e+12
     0.498544   2.89071e+12
     0.502183   2.89078e+12
     0.505822   2.89084e+12
     0.509461    2.8909e+12
       0.5131   2.89096e+12
     0.516739   2.89102e+12
     0.520378   2.89108e+12
     0.524017   2.89114e+12
     0.527656   2.89119e+12
     0.531295   2.89125e+12
     0.534934    2.8913e+12
     0.538574   2.89135e+12
     0.542213    2.8914e+12
     0.545852   2.89144e+12
     0.549491   2.89149e+12
      0.55313   2.89153e+12
     0.556769   2.89157e+12
     0.560408   2.89161e+12
     0.564047   2.89165e+12
     0.567686   2.89168e+12
     0.571325   2.89172e+12
     0.574964   2.89175e+12
     0.578603   2.89178e+12
     0.582242   2.89181e+12
     0.585881   2.89183e+12
      0.58952   2.89186e+12
     0.593159   2.89188e+12
     0.596798    2.8919e+12
     0.600437   2.89192e+12
     0.604076   2.89193e+12
     0.607715   2.89194e+12
     0.611354   2.89196e+12
     0.614993   2.89197e+12
     0.618632   2.89197e+12
     0.622271   2.89198e+12
      0.62591   2.89199e+12
     0.629549   2.89199e+12
     0.633188   2.89199e+12
     0.636827   2.89199e+12
     0.640466   2.89198e+12
     0.644105   2.89198e+12
     0.647744   2.89197e+12
     0.651383   2.89197e+12
     0.655022   2.89196e+12
     0.658661   2.89194e+12
       0.6623   2.89193e+12
     0.665939   2.89192e+12
     0.669578    2.8919e+12
     0.673217   2.89189e+12
     0.676856   2.89187e+12
     0.680495   2.89185e+12
     0.684134   2.89183e+12
     0.687773   2.89181e+12
     0.691412   2.89178e+12
     0.695051   2.89176e+12
      0.69869   2.89173e+12
     0.702329   2.89171e+12
     0.705968   2.89168e+12
     0.709607   2.89165e+12
     0.713246   2.89163e+12
     0.716885    2.8916e+12
     0.720524   2.89157e+12
     0.724163   2.89154e+12
     0.727802    2.8915e+12
     0.731441   2.89147e+12
      0.73508   2.89144e+12
     0.738719   2.89141e+12
     0.742358   2.89137e+12
     0.745997   2.89134e+12
     0.749636   2.89131e+12
     0.753275   2.89127e+12
     0.756914   2.89124e+12
     0.760553    2.8912e+12
     0.764192   2.89117e+12
     0.767831   2.89113e+12
      0.77147    2.8911e+12
     0.775109   2.89106e+12
     0.778748   2.89103e+12
     0.782387   2.89099e+12
     0.786026   2.89095e+12
     0.789665   2.89092e+12
     0.793304   2.89088e+12
     0.796943   2.89085e+12
     0.800582   2.89081e+12
     0.804221   2.89078e+12
      0.80786   2.89074e+12
     0.811499   2.89071e+12
     0.815138   2.89068e+12
     0.818777   2.89064e+12
     0.822416   2.89061e+12
     0.826055   2.89057e+12
     0.829694   2.89054e+12
     0.833333   2.89051e+12
     0.836972   2.89048e+12
     0.840611   2.89044e+12
      0.84425   2.89041e+12
     0.847889   2.89038e+12
     0.851528   2.89035e+12
     0.855167   2.89032e+12
     0.858806   2.89029e+12
     0.862445   2.89026e+12
     0.866084   2.89023e+12
     0.869723    2.8902e+12
     0.873362   2.89018e+12
     0.877001   2.89015e+12
      0.88064   2.89012e+12
     0.884279   2.89009e+12
     0.887918   2.89007e+12
     0.891557   2.89004e+12
     0.895197   2.89002e+12
     0.898836   2.88999e+12
     0.902475   2.88997e+12
     0.906114   2.88994e+12
     0.909753   2.88992e+12
     0.913392    2.8899e+12
     0.917031   2.88988e+12
      0.92067   2.88986e+12
     0.924309   2.88983e+12
     0.927948   2.88981e+12
     0.931587   2.88979e+12
     0.935226   2.88977e+12
     0.938865   2.88975e+12
     0.942504   2.88974e+12
     0.946143   2.88972e+12
     0.949782    2.8897e+12
     0.953421   2.88968e+12
      0.95706   2.88967e+12
     0.960699   2.88965e+12
     0.964338   2.88963e+12
     0.967977   2.88962e+12
     0.971616    2.8896e+12
     0.975255   2.88959e+12
     0.978894   2.88957e+12
     0.982533   2.88956e+12
     0.986172   2.88955e+12
     0.989811   2.88953e+12
      0.99345   2.88952e+12
     0.997089   2.88951e+12
      1.00073    2.8895e+12
      1.00437   2.88948e+12
      1.00801   2.88947e+12
      1.01164   2.88946e+12
      1.01528   2.88945e+12
      1.01892   2.88944e+12
      1.02256   2.88943e+12
       1.0262   2.88942e+12
      1.02984   2.88941e+12
      1.03348    2.8894e+12
      1.03712    2.8894e+12
      1.04076   2.88939e+12
       1.0444   2.88938e+12
      1.04803   2.88937e+12
      1.05167   2.88936e+12
      1.05531   2.88936e+12
      1.05895   2.88935e+12
      1.06259   2.88934e+12
      1.06623   2.88933e+12
      1.06987   2.88933e+12
      1.07351   2.88932e+12
      1.07715   2.88932e+12
      1.08079   2.88931e+12
      1.08443    2.8893e+12
      1.08806    2.8893e+12
       1.0917   2.88929e+12
      1.09534   2.88929e+12
      1.09898   2.88928e+12
      1.10262   2.88928e+12
      1.10626   2.88927e+12
       1.1099   2.88927e+12
      1.11354   2.88926e+12
      1.11718   2.88926e+12
      1.12082   2.88925e+12
      1.12445   2.88925e+12
      1.12809   2.88924e+12
      1.13173   2.88924e+12
      1.13537   2.88923e+12
      1.13901   2.88923e+12
      1.14265   2.88922e+12
      1.14629   2.88922e+12
      1.14993   2.88922e+12
      1.15357   2.88921e+12
      1.15721   2.88921e+12
      1.16084    2.8892e+12
      1.16448    2.8892e+12
      1.16812   2.88919e+12
      1.17176   2.88919e+12
       1.1754   2.88919e+12
      1.17904   2.88918e+12
      1.18268   2.88918e+12
      1.18632   2.88917e+12
      1.18996   2.88917e+12
       1.1936   2.88917e+12
      1.19723   2.88916e+12
      1.20087   2.88916e+12
      1.20451   2.88915e+12
      1.20815   2.88915e+12
      1.21179   2.88914e+12
      1.21543   2.88914e+12
      1.21907   2.88914e+12
      1.22271   2.88913e+12
      1.22635   2.88913e+12
      1.22999   2.88912e+12
      1.23362   2.88912e+12
      1.23726   2.88911e+12
       1.2409   2.88911e+12
      1.24454    2.8891e+12
      1.24818    2.8891e+12
      1.25182   2.88909e+12
      1.25546   2.88909e+12
       1.2591   2.88908e+12
      1.26274   2.88908e+12
      1.26638   2.88907e+12
      1.27001   2.88907e+12
      1.27365   2.88906e+12
      1.27729   2.88906e+12
      1.28093   2.88905e+12
      1.28457   2.88905e+12
      1.28821   2.88904e+12
      1.29185   2.88904e+12
      1.29549   2.88903e+12
      1.29913   2.88902e+12
      1.30277   2.88902e+12
       1.3064   2.88901e+12
      1.31004   2.88901e+12
      1.31368     2.889e+12
      1.31732   2.88899e+12
      1.32096   2.88899e+12
       1.3246   2.88898e+12
      1.32824   2.88898e+12
      1.33188   2.88897e+12
      1.33552   2.88896e+12
      1.33916   2.88896e+12
      1.34279   2.88895e+12
      1.34643   2.88894e+12
      1.35007   2.88894e+12
      1.35371   2.88893e+12
      1.35735   2.88892e+12
      1.36099   2.88891e+12
      1.36463   2.88891e+12
      1.36827    2.8889e+12
      1.37191   2.88889e+12
      1.37555   2.88889e+12
      1.37918   2.88888e+12
      1.38282   2.88887e+12
      1.38646   2.88886e+12
       1.3901   2.88886e+12
      1.39374   2.88885e+12
      1.39738   2.88884e+12
      1.40102   2.88883e+12
      1.40466   2.88882e+12
       1.4083   2.88882e+12
      1.41194   2.88881e+12
      1.41557    2.8888e+12
      1.41921   2.88879e+12
      1.42285   2.88878e+12
      1.42649   2.88878e+12
      1.43013   2.88877e+12
      1.43377   2.88876e+12
      1.43741   2.88875e+12
      1.44105   2.88874e+12
      1.44469   2.88873e+12
      1.44833   2.88873e+12
      1.45197   2.88872e+12
       1.4556   2.88871e+12
      1.45924    2.8887e+12
      1.46288   2.88869e+12
      1.46652   2.88868e+12
      1.47016   2.88867e+12
       1.4738   2.88866e+12
      1.47744   2.88866e+12
      1.48108   2.88865e+12
      1.48472   2.88864e+12
      1.48836   2.88863e+12
      1.49199   2.88862e+12
      1.49563   2.88861e+12
      1.49927    2.8886e+12
      1.50291   2.88859e+12
      1.50655   2.88858e+12
      1.51019   2.88857e+12
      1.51383   2.88856e+12
      1.51747   2.88855e+12
      1.52111   2.88854e+12
      1.52475   2.88854e+12
      1.52838   2.88853e+12
      1.53202   2.88852e+12
      1.53566   2.88851e+12
       1.5393    2.8885e+12
      1.54294   2.88849e+12
      1.54658   2.88848e+12
      1.55022   2.88847e+12
      1.55386   2.88846e+12
       1.5575   2.88845e+12
      1.56114   2.88844e+12
      1.56477   2.88843e+12
      1.56841   2.88842e+12
      1.57205   2.88841e+12
      1.57569    2.8884e+12
      1.57933   2.88839e+12
      1.58297   2.88838e+12
      1.58661   2.88837e+12
      1.59025   2.88836e+12
      1.59389   2.88835e+12
      1.59753   2.88834e+12
      1.60116   2.88833e+12
       1.6048   2.88832e+12
      1.60844   2.88831e+12
      1.61208    2.8883e+12
      1.61572   2.88829e+12
      1.61936   2.88828e+12
        1.623   2.88827e+12
      1.62664   2.88826e+12
      1.63028   2.88825e+12
      1.63392   2.88824e+12
      1.63755   2.88823e+12
      1.64119   2.88822e+12
      1.64483   2.88821e+12
      1.64847    2.8882e+12
      1.65211   2.88819e+12
      1.65575   2.88818e+12
      1.65939   2.88817e+12
      1.66303   2.88816e+12
      1.66667   2.88815e+12
      1.67031   2.88814e+12
      1.67394   2.88813e+12
      1.67758   2.88812e+12
      1.68122   2.88811e+12
      1.68486    2.8881e+12
       1.6885   2.88809e+12
      1.69214   2.88808e+12
      1.69578   2.88807e+12
      1.69942   2.88806e+12
      1.70306   2.88805e+12
       1.7067   2.88804e+12
      1.71033   2.88802e+12
      1.71397   2.88801e+12
      1.71761     2.888e+12
      1.72125   2.88799e+12
      1.72489   2.88798e+12
      1.72853   2.88797e+12
      1.73217   2.88796e+12
      1.73581   2.88795e+12
      1.73945   2.88794e+12
      1.74309   2.88793e+12
      1.74672   2.88792e+12
      1.75036   2.88791e+12
        1.754    2.8879e+12
      1.75764   2.88789e+12
      1.76128   2.88788e+12
      1.76492   2.88787e+12
      1.76856   2.88786e+12
       1.7722   2.88785e+12
      1.77584   2.88784e+12
      1.77948   2.88783e+12
      1.78311   2.88782e+12
      1.78675   2.88781e+12
      1.79039    2.8878e+12
      1.79403   2.88779e+12
      1.79767   2.88778e+12
      1.80131   2.88777e+12
      1.80495   2.88776e+12
      1.80859   2.88775e+12
      1.81223   2.88773e+12
      1.81587   2.88772e+12
      1.81951   2.88771e+12
      1.82314    2.8877e+12
      1.82678   2.88769e+12
      1.83042   2.88768e+12
      1.83406   2.88767e+12
       1.8377   2.88766e+12
      1.84134   2.88765e+12
      1.84498   2.88764e+12
      1.84862   2.88763e+12
      1.85226   2.88762e+12
       1.8559   2.88761e+12
      1.85953    2.8876e+12
      1.86317   2.88759e+12
      1.86681   2.88758e+12
      1.87045   2.88757e+12
      1.87409   2.88756e+12
      1.87773   2.88755e+12
      1.88137   2.88754e+12
      1.88501   2.88753e+12
      1.88865   2.88752e+12
      1.89229   2.88751e+12
      1.89592    2.8875e+12
      1.89956   2.88749e+12
       1.9032   2.88748e+12
      1.90684   2.88747e+12
      1.91048   2.88746e+12
      1.91412   2.88744e+12
      1.91776   2.88743e+12
       1.9214   2.88742e+12
      1.92504   2.88741e+12
      1.92868    2.8874e+12
      1.93231   2.88739e+12
      1.93595   2.88738e+12
      1.93959   2.88737e+12
      1.94323   2.88736e+12
      1.94687   2.88735e+12
      1.95051   2.88734e+12
      1.95415   2.88733e+12
      1.95779   2.88732e+12
      1.96143   2.88731e+12
      1.96507    2.8873e+12
       1.9687   2.88729e+12
      1.97234   2.88728e+12
      1.97598   2.88727e+12
      1.97962   2.88726e+12
      1.98326   2.88725e+12
       1.9869   2.88724e+12
      1.99054   2.88723e+12
      1.99418   2.88722e+12
      1.99782   2.88721e+12
      2.00146    2.8872e+12
      2.00509   2.88719e+12
      2.00873   2.88718e+12
      2.01237   2.88717e+12
      2.01601   2.88716e+12
      2.01965   2.88715e+12
      2.02329   2.88714e+12
      2.02693   2.88713e+12
      2.03057   2.88712e+12
      2.03421   2.88711e+12
      2.03785    2.8871e+12
      2.04148   2.88709e+12
      2.04512   2.88708e+12
      2.04876   2.88707e+12
       2.0524   2.88706e+12
      2.05604   2.88705e+12
      2.05968   2.88704e+12
      2.06332   2.88703e+12
      2.06696   2.88702e+12
       2.0706   2.88701e+12
      2.07424     2.887e+12
      2.07787   2.88699e+12
      2.08151   2.88698e+12
      2.08515   2.88697e+12
      2.08879   2.88696e+12
      2.09243   2.88695e+12
      2.09607   2.88694e+12
      2.09971   2.88693e+12
      2.10335   2.88692e+12
      2.10699   2.88691e+12
      2.11063    2.8869e+12
      2.11426   2.88689e+12
       2.1179   2.88688e+12
      2.12154   2.88687e+12
      2.12518   2.88686e+12
      2.12882   2.88685e+12
      2.13246   2.88684e+12
       2.1361   2.88683e+12
      2.13974   2.88682e+12
      2.14338   2.88681e+12
      2.14702    2.8868e+12
      2.15066   2.88679e+12
      2.15429   2.88678e+12
      2.15793   2.88677e+12
      2.16157   2.88676e+12
      2.16521   2.88675e+12
      2.16885   2.88674e+12
      2.17249   2.88673e+12
      2.17613   2.88672e+12
      2.17977   2.88671e+12
      2.18341    2.8867e+12
      2.18705   2.88669e+12
      2.19068   2.88668e+12
      2.19432   2.88667e+12
      2.19796   2.88666e+12
       2.2016   2.88665e+12
      2.20524   2.88664e+12
      2.20888   2.88663e+12
      2.21252   2.88662e+12
      2.21616   2.88661e+12
       2.2198    2.8866e+12
      2.22344   2.88659e+12
      2.22707   2.88658e+12
      2.23071   2.88657e+12
      2.23435   2.88656e+12
      2.23799   2.88655e+12
      2.24163   2.88654e+12
      2.24527   2.88653e+12
      2.24891   2.88652e+12
      2.25255   2.88651e+12
      2.25619    2.8865e+12
      2.25983   2.88649e+12
      2.26346   2.88648e+12
       2.2671   2.88647e+12
      2.27074   2.88646e+12
      2.27438   2.88645e+12
      2.27802   2.88644e+12
      2.28166   2.88644e+12
       2.2853   2.88643e+12
      2.28894   2.88642e+12
      2.29258   2.88641e+12
      2.29622    2.8864e+12
      2.29985   2.88639e+12
      2.30349   2.88638e+12
      2.30713   2.88637e+12
      2.31077   2.88636e+12
      2.31441   2.88635e+12
      2.31805   2.88634e+12
      2.32169   2.88633e+12
      2.32533   2.88632e+12
      2.32897   2.88631e+12
      2.33261    2.8863e+12
      2.33624   2.88629e+12
      2.33988   2.88628e+12
      2.34352   2.88627e+12
      2.34716   2.88626e+12
       2.3508   2.88625e+12
      2.35444   2.88625e+12
      2.35808   2.88624e+12
      2.36172   2.88623e+12
      2.36536   2.88622e+12
        2.369   2.88621e+12
      2.37263    2.8862e+12
      2.37627   2.88619e+12
      2.37991   2.88618e+12
      2.38355   2.88617e+12
      2.38719   2.88616e+12
      2.39083   2.88615e+12
      2.39447   2.88614e+12
      2.39811   2.88613e+12
      2.40175   2.88612e+12
      2.40539   2.88611e+12
      2.40902    2.8861e+12
      2.41266    2.8861e+12
       2.4163   2.88609e+12
      2.41994   2.88608e+12
      2.42358   2.88607e+12
      2.42722   2.88606e+12
      2.43086   2.88605e+12
       2.4345   2.88604e+12
      2.43814   2.88603e+12
      2.44178   2.88602e+12
      2.44541   2.88601e+12
      2.44905     2.886e+12
      2.45269   2.88599e+12
      2.45633   2.88598e+12
      2.45997   2.88598e+12
      2.46361   2.88597e+12
      2.46725   2.88596e+12
      2.47089   2.88595e+12
      2.47453   2.88594e+12
      2.47817   2.88593e+12
       2.4818   2.88592e+12
      2.48544   2.88591e+12
      2.48908    2.8859e+12
      2.49272   2.88589e+12
      2.49636   2.88588e+12
          2.5   2.88588e+12
      2.50364   2.88587e+12
      2.50728   2.88586e+12
      2.51092   2.88585e+12
      2.51456   2.88584e+12
       2.5182   2.88583e+12
      2.52183   2.88582e+12
      2.52547   2.88581e+12
      2.52911    2.8858e+12
      2.53275   2.88579e+12
      2.53639   2.88579e+12
      2.54003   2.88578e+12
      2.54367   2.88577e+12
      2.54731   2.88576e+12
      2.55095   2.88575e+12
      2.55459   2.88574e+12
      2.55822   2.88573e+12
      2.56186   2.88572e+12
       2.5655   2.88571e+12
      2.56914   2.88571e+12
      2.57278    2.8857e+12
      2.57642   2.88569e+12
      2.58006   2.88568e+12
       2.5837   2.88567e+12
      2.58734   2.88566e+12
      2.59098   2.88565e+12
      2.59461   2.88564e+12
      2.59825   2.88563e+12
      2.60189   2.88563e+12
      2.60553   2.88562e+12
      2.60917   2.88561e+12
      2.61281    2.8856e+12
      2.61645   2.88559e+12
      2.62009   2.88558e+12
      2.62373   2.88557e+12
      2.62737   2.88556e+12
        2.631   2.88556e+12
      2.63464   2.88555e+12
      2.63828   2.88554e+12
      2.64192   2.88553e+12
      2.64556   2.88552e+12
       2.6492   2.88551e+12
      2.65284    2.8855e+12
      2.65648   2.88549e+12
      2.66012   2.88549e+12
      2.66376   2.88548e+12
      2.66739   2.88547e+12
      2.67103   2.88546e+12
      2.67467   2.88545e+12
      2.67831   2.88544e+12
      2.68195   2.88543e+12
      2.68559   2.88543e+12
      2.68923   2.88542e+12
      2.69287   2.88541e+12
      2.69651    2.8854e+12
      2.70015   2.88539e+12
      2.70378   2.88538e+12
      2.70742   2.88537e+12
      2.71106   2.88537e+12
       2.7147   2.88536e+12
      2.71834   2.88535e+12
      2.72198   2.88534e+12
      2.72562   2.88533e+12
      2.72926   2.88532e+12
       2.7329   2.88531e+12
      2.73654   2.88531e+12
      2.74017    2.8853e+12
      2.74381   2.88529e+12
      2.74745   2.88528e+12
      2.75109   2.88527e+12
      2.75473   2.88526e+12
      2.75837   2.88526e+12
      2.76201   2.88525e+12
      2.76565   2.88524e+12
      2.76929   2.88523e+12
      2.77293   2.88522e+12
      2.77656   2.88521e+12
       2.7802   2.88521e+12
      2.78384    2.8852e+12
      2.78748   2.88519e+12
      2.79112   2.88518e+12
      2.79476   2.88517e+12
       2.7984   2.88516e+12
      2.80204   2.88516e+12
      2.80568   2.88515e+12
      2.80932   2.88514e+12
      2.81295   2.88513e+12
      2.81659   2.88512e+12
      2.82023   2.88511e+12
      2.82387   2.88511e+12
      2.82751    2.8851e+12
      2.83115   2.88509e+12
      2.83479   2.88508e+12
      2.83843   2.88507e+12
      2.84207   2.88506e+12
      2.84571   2.88506e+12
      2.84934   2.88505e+12
      2.85298   2.88504e+12
      2.85662   2.88503e+12
      2.86026   2.88502e+12
       2.8639   2.88502e+12
      2.86754   2.88501e+12
      2.87118     2.885e+12
      2.87482   2.88499e+12
      2.87846   2.88498e+12
       2.8821   2.88497e+12
      2.88574   2.88497e+12
      2.88937   2.88496e+12
      2.89301   2.88495e+12
      2.89665   2.88494e+12
      2.90029   2.88493e+12
      2.90393   2.88493e+12
      2.90757   2.88492e+12
      2.91121   2.88491e+12
      2.91485    2.8849e+12
      2.91849   2.88489e+12
      2.92213   2.88489e+12
      2.92576   2.88488e+12
       2.9294   2.88487e+12
      2.93304   2.88486e+12
      2.93668   2.88485e+12
      2.94032   2.88485e+12
      2.94396   2.88484e+12
       2.9476   2.88483e+12
      2.95124   2.88482e+12
      2.95488   2.88481e+12
      2.95852   2.88481e+12
      2.96215    2.8848e+12
      2.96579   2.88479e+12
      2.96943   2.88478e+12
      2.97307   2.88478e+12
      2.97671   2.88477e+12
      2.98035   2.88476e+12
      2.98399   2.88475e+12
      2.98763   2.88474e+12
      2.99127   2.88474e+12
      2.99491   2.88473e+12
      2.99854   2.88472e+12
      3.00218   2.88471e+12
      3.00582    2.8847e+12
      3.00946    2.8847e+12
       3.0131   2.88469e+12
      3.01674   2.88468e+12
      3.02038   2.88467e+12
      3.02402   2.88467e+12
      3.02766   2.88466e+12
       3.0313   2.88465e+12
      3.03493   2.88464e+12
      3.03857   2.88463e+12
      3.04221   2.88463e+12
      3.04585   2.88462e+12
      3.04949   2.88461e+12
      3.05313    2.8846e+12
      3.05677    2.8846e+12
      3.06041   2.88459e+12
      3.06405   2.88458e+12
      3.06769   2.88457e+12
      3.07132   2.88457e+12
      3.07496   2.88456e+12
       3.0786   2.88455e+12
      3.08224   2.88454e+12
      3.08588   2.88454e+12
      3.08952   2.88453e+12
      3.09316   2.88452e+12
       3.0968   2.88451e+12
      3.10044    2.8845e+12
      3.10408    2.8845e+12
      3.10771   2.88449e+12
      3.11135   2.88448e+12
      3.11499   2.88447e+12
      3.11863   2.88447e+12
      3.12227   2.88446e+12
      3.12591   2.88445e+12
      3.12955   2.88444e+12
      3.13319   2.88444e+12
      3.13683   2.88443e+12
      3.14047   2.88442e+12
       3.1441   2.88441e+12
      3.14774   2.88441e+12
      3.15138    2.8844e+12
      3.15502   2.88439e+12
      3.15866   2.88439e+12
       3.1623   2.88438e+12
      3.16594   2.88437e+12
      3.16958   2.88436e+12
      3.17322   2.88436e+12
      3.17686   2.88435e+12
      3.18049   2.88434e+12
      3.18413   2.88433e+12
      3.18777   2.88433e+12
      3.19141   2.88432e+12
      3.19505   2.88431e+12
      3.19869    2.8843e+12
      3.20233    2.8843e+12
      3.20597   2.88429e+12
      3.20961   2.88428e+12
      3.21325   2.88427e+12
      3.21689   2.88427e+12
      3.22052   2.88426e+12
      3.22416   2.88425e+12
       3.2278   2.88425e+12
      3.23144   2.88424e+12
      3.23508   2.88423e+12
      3.23872   2.88422e+12
      3.24236   2.88422e+12
        3.246   2.88421e+12
      3.24964    2.8842e+12
      3.25328   2.88419e+12
      3.25691   2.88419e+12
      3.26055   2.88418e+12
      3.26419   2.88417e+12
      3.26783   2.88417e+12
      3.27147   2.88416e+12
      3.27511   2.88415e+12
      3.27875   2.88414e+12
      3.28239   2.88414e+12
      3.28603   2.88413e+12
      3.28967   2.88412e+12
       3.2933   2.88412e+12
      3.29694   2.88411e+12
      3.30058    2.8841e+12
      3.30422   2.88409e+12
      3.30786   2.88409e+12
       3.3115   2.88408e+12
      3.31514   2.88407e+12
      3.31878   2.88407e+12
      3.32242   2.88406e+12
      3.32606   2.88405e+12
      3.32969   2.88405e+12
      3.33333   2.88404e+12
      3.33697   2.88403e+12
      3.34061   2.88402e+12
      3.34425   2.88402e+12
      3.34789   2.88401e+12
      3.35153     2.884e+12
      3.35517     2.884e+12
      3.35881   2.88399e+12
      3.36245   2.88398e+12
      3.36608   2.88398e+12
      3.36972   2.88397e+12
      3.37336   2.88396e+12
        3.377   2.88395e+12
      3.38064   2.88395e+12
      3.38428   2.88394e+12
      3.38792   2.88393e+12
      3.39156   2.88393e+12
       3.3952   2.88392e+12
      3.39884   2.88391e+12
      3.40247   2.88391e+12
      3.40611    2.8839e+12
      3.40975   2.88389e+12
      3.41339   2.88389e+12
      3.41703   2.88388e+12
      3.42067   2.88387e+12
      3.42431   2.88387e+12
      3.42795   2.88386e+12
      3.43159   2.88385e+12
      3.43523   2.88384e+12
      3.43886   2.88384e+12
       3.4425   2.88383e+12
      3.44614   2.88382e+12
      3.44978   2.88382e+12
      3.45342   2.88381e+12
      3.45706    2.8838e+12
       3.4607    2.8838e+12
      3.46434   2.88379e+12
      3.46798   2.88378e+12
      3.47162   2.88378e+12
      3.47525   2.88377e+12
      3.47889   2.88376e+12
      3.48253   2.88376e+12
      3.48617   2.88375e+12
      3.48981   2.88374e+12
      3.49345   2.88374e+12
      3.49709   2.88373e+12
      3.50073   2.88372e+12
      3.50437   2.88372e+12
      3.50801   2.88371e+12
      3.51164    2.8837e+12
      3.51528    2.8837e+12
      3.51892   2.88369e+12
      3.52256   2.88368e+12
       3.5262   2.88368e+12
      3.52984   2.88367e+12
      3.53348   2.88366e+12
      3.53712   2.88366e+12
      3.54076   2.88365e+12
       3.5444   2.88364e+12
      3.54803   2.88364e+12
      3.55167   2.88363e+12
      3.55531   2.88362e+12
      3.55895   2.88362e+12
      3.56259   2.88361e+12
      3.56623   2.88361e+12
      3.56987    2.8836e+12
      3.57351   2.88359e+12
      3.57715   2.88359e+12
      3.58079   2.88358e+12
      3.58443   2.88357e+12
      3.58806   2.88357e+12
       3.5917   2.88356e+12
      3.59534   2.88355e+12
      3.59898   2.88355e+12
      3.60262   2.88354e+12
      3.60626   2.88353e+12
       3.6099   2.88353e+12
      3.61354   2.88352e+12
      3.61718   2.88351e+12
      3.62082   2.88351e+12
      3.62445    2.8835e+12
      3.62809    2.8835e+12
      3.63173   2.88349e+12
      3.63537   2.88348e+12
      3.63901   2.88348e+12
      3.64265   2.88347e+12
      3.64629   2.88346e+12
      3.64993   2.88346e+12
      3.65357   2.88345e+12
      3.65721   2.88344e+12
      3.66084   2.88344e+12
      3.66448   2.88343e+12
      3.66812   2.88343e+12
      3.67176   2.88342e+12
       3.6754   2.88341e+12
      3.67904   2.88341e+12
      3.68268    2.8834e+12
      3.68632   2.88339e+12
      3.68996   2.88339e+12
       3.6936   2.88338e+12
      3.69723   2.88337e+12
      3.70087   2.88337e+12
      3.70451   2.88336e+12
      3.70815   2.88336e+12
      3.71179   2.88335e+12
      3.71543   2.88334e+12
      3.71907   2.88334e+12
      3.72271   2.88333e+12
      3.72635   2.88332e+12
      3.72999   2.88332e+12
      3.73362   2.88331e+12
      3.73726   2.88331e+12
       3.7409    2.8833e+12
      3.74454   2.88329e+12
      3.74818   2.88329e+12
      3.75182   2.88328e+12
      3.75546   2.88328e+12
       3.7591   2.88327e+12
      3.76274   2.88326e+12
      3.76638   2.88326e+12
      3.77001   2.88325e+12
      3.77365   2.88324e+12
      3.77729   2.88324e+12
      3.78093   2.88323e+12
      3.78457   2.88323e+12
      3.78821   2.88322e+12
      3.79185   2.88321e+12
      3.79549   2.88321e+12
      3.79913    2.8832e+12
      3.80277    2.8832e+12
       3.8064   2.88319e+12
      3.81004   2.88318e+12
      3.81368   2.88318e+12
      3.81732   2.88317e+12
      3.82096   2.88317e+12
       3.8246   2.88316e+12
      3.82824   2.88315e+12
      3.83188   2.88315e+12
      3.83552   2.88314e+12
      3.83916   2.88314e+12
      3.84279   2.88313e+12
      3.84643   2.88312e+12
      3.85007   2.88312e+12
      3.85371   2.88311e+12
      3.85735   2.88311e+12
      3.86099    2.8831e+12
      3.86463   2.88309e+12
      3.86827   2.88309e+12
      3.87191   2.88308e+12
      3.87555   2.88308e+12
      3.87918   2.88307e+12
      3.88282   2.88306e+12
      3.88646   2.88306e+12
       3.8901   2.88305e+12