/*--------------------------------*- C++ -*----------------------------------*\
| =========                 |                                                 |
| \\      /  F ield         | OpenFOAM: The Open Source CFD Toolbox           |
|  \\    /   O peration     | Version:  dev                                   |
|   \\  /    A nd           | Web:      www.OpenFOAM.org                      |
|    \\/     M anipulation  |                                                 |
\*---------------------------------------------------------------------------*/
FoamFile
{
    version     2.0;
    format      ascii;
    class       volScalarField;
    location    "0.015";
    object      A2C2H2;
}
// * * * * * * * * * * * * * * * * * * * * * * * * * * * * * * * * * * * * * //

dimensions      [0 0 0 0 0 0 0];

internalField   nonuniform List<scalar> 
250
(
3.39291e-12
7.97391e-13
6.05078e-13
4.04927e-13
2.15891e-13
8.07325e-14
2.06855e-14
6.23654e-15
3.26829e-15
2.57693e-15
3.17136e-12
7.32207e-13
5.54793e-13
3.70936e-13
2.0243e-13
7.79062e-14
2.05967e-14
6.18436e-15
3.21845e-15
2.54335e-15
2.54111e-15
3.20963e-15
6.15555e-15
2.04903e-14
7.77362e-14
2.02974e-13
3.72792e-13
5.57987e-13
7.3765e-13
3.20137e-12
2.90123e-12
6.77216e-13
5.02677e-13
3.34856e-13
1.87242e-13
7.42423e-14
2.03495e-14
6.17769e-15
3.24042e-15
2.58479e-15
2.58244e-15
3.23196e-15
6.15161e-15
2.02631e-14
7.41809e-14
1.87955e-13
3.36711e-13
5.05693e-13
6.8176e-13
2.92449e-12
2.59898e-12
6.33177e-13
4.48904e-13
2.96669e-13
1.7188e-13
7.0337e-14
2.00528e-14
6.23725e-15
3.34142e-15
2.70639e-15
2.70388e-15
3.3332e-15
6.21389e-15
1.99851e-14
7.03598e-14
1.72693e-13
2.98495e-13
4.51313e-13
6.36621e-13
2.6158e-12
2.29221e-12
6.01083e-13
4.01885e-13
2.62834e-13
1.56858e-13
6.67434e-14
1.98543e-14
6.40063e-15
3.53969e-15
2.92323e-15
2.92047e-15
3.53148e-15
6.37993e-15
1.98028e-14
6.68356e-14
1.57726e-13
2.64615e-13
4.03883e-13
6.03324e-13
2.30348e-12
2.0108e-12
5.83045e-13
3.61962e-13
2.33434e-13
1.44548e-13
6.40286e-14
1.99347e-14
6.72949e-15
3.87322e-15
3.27349e-15
3.27034e-15
3.86469e-15
6.7098e-15
1.98966e-14
6.41714e-14
1.45446e-13
2.34825e-13
3.6348e-13
5.83897e-13
2.01749e-12
1.7816e-12
5.85802e-13
3.33414e-13
2.09595e-13
1.34966e-13
6.26123e-14
2.05267e-14
7.33542e-15
4.42367e-15
3.82057e-15
3.81677e-15
4.41427e-15
7.31475e-15
2.04998e-14
6.28028e-14
1.35899e-13
2.10919e-13
3.34255e-13
5.84933e-13
1.78458e-12
1.62713e-12
6.25759e-13
3.25575e-13
1.93874e-13
1.28663e-13
6.30355e-14
2.20006e-14
8.428e-15
5.343e-15
4.72696e-15
4.72202e-15
5.33177e-15
8.40574e-15
2.19831e-14
6.32741e-14
1.29629e-13
1.94926e-13
3.25299e-13
6.2269e-13
1.62713e-12
1.56728e-12
7.31959e-13
3.63487e-13
1.96785e-13
1.28754e-13
6.69426e-14
2.52087e-14
1.05226e-14
7.03821e-15
6.38169e-15
6.37454e-15
7.02309e-15
1.04947e-14
2.51976e-14
6.72184e-14
1.29676e-13
1.97199e-13
3.61331e-13
7.26374e-13
1.56516e-12
1.61364e-12
9.43158e-13
4.97462e-13
2.48549e-13
1.49984e-13
8.11901e-14
3.29096e-14
1.51273e-14
1.06888e-14
9.93092e-15
9.91868e-15
1.06642e-14
1.50841e-14
3.28973e-14
8.14815e-14
1.50708e-13
2.47944e-13
4.92963e-13
9.35647e-13
1.61115e-12
1.82777e-12
1.31202e-12
8.15105e-13
4.2574e-13
2.41309e-13
1.30171e-13
5.53643e-14
2.76933e-14
2.07129e-14
1.96757e-14
1.96487e-14
2.0659e-14
2.76033e-14
5.53418e-14
1.30571e-13
2.41981e-13
4.24477e-13
8.09957e-13
1.30559e-12
1.82664e-12
3.24148e-12
2.51476e-12
1.81006e-12
1.0907e-12
6.35133e-13
3.38649e-13
1.49083e-13
7.9893e-14
6.36325e-14
6.16255e-14
6.15328e-14
6.34399e-14
7.95896e-14
1.49029e-13
3.39819e-13
6.37359e-13
1.09029e-12
1.80529e-12
2.5085e-12
3.24111e-12
7.08507e-12
6.48811e-12
5.20208e-12
3.45318e-12
2.45703e-12
1.34236e-12
7.03983e-13
4.0862e-13
3.66436e-13
3.57957e-13
3.57454e-13
3.65272e-13
4.07296e-13
7.05412e-13
1.35574e-12
2.49067e-12
3.49466e-12
5.24221e-12
6.51478e-12
7.111e-12
)
;

boundaryField
{
    fuel
    {
        type            fixedValue;
        value           nonuniform 0();
    }
    wall
    {
        type            zeroGradient;
    }
    outlet
    {
        type            zeroGradient;
    }
    frontAndBack
    {
        type            empty;
    }
    procBoundary1to0
    {
        type            processor;
        value           nonuniform List<scalar> 
21
(
3.55903e-12
8.70364e-13
6.49863e-13
4.34162e-13
2.26093e-13
8.21884e-14
2.05566e-14
6.32687e-15
3.38819e-15
2.68482e-15
2.57484e-15
2.57484e-15
3.25911e-15
6.20499e-15
2.05585e-14
8.04231e-14
2.16157e-13
4.06565e-13
6.08212e-13
8.02669e-13
3.42552e-12
)
;
    }
}


// ************************************************************************* //
