/*--------------------------------*- C++ -*----------------------------------*\
| =========                 |                                                 |
| \\      /  F ield         | OpenFOAM: The Open Source CFD Toolbox           |
|  \\    /   O peration     | Version:  dev                                   |
|   \\  /    A nd           | Web:      www.OpenFOAM.org                      |
|    \\/     M anipulation  |                                                 |
\*---------------------------------------------------------------------------*/
FoamFile
{
    version     2.0;
    format      ascii;
    class       volScalarField;
    location    "0.015";
    object      A3C2H;
}
// * * * * * * * * * * * * * * * * * * * * * * * * * * * * * * * * * * * * * //

dimensions      [0 0 0 0 0 0 0];

internalField   nonuniform List<scalar> 
250
(
5.73152e-10
7.64334e-10
8.60338e-10
6.25826e-10
3.64474e-10
1.39622e-10
3.75316e-11
9.72988e-12
4.07486e-12
2.86628e-12
5.36705e-10
7.01031e-10
7.68595e-10
5.5649e-10
3.30292e-10
1.27212e-10
3.50408e-11
9.18143e-12
3.89297e-12
2.75591e-12
2.75219e-12
3.87653e-12
9.12464e-12
3.48756e-11
1.27223e-10
3.3177e-10
5.60314e-10
7.73284e-10
7.03201e-10
5.3763e-10
4.99612e-10
6.4058e-10
6.81889e-10
4.885e-10
2.94267e-10
1.13318e-10
3.191e-11
8.4956e-12
3.68786e-12
2.64097e-12
2.63744e-12
3.67326e-12
8.45e-12
3.17929e-11
1.13463e-10
2.9585e-10
4.92061e-10
6.86119e-10
6.42445e-10
5.0041e-10
4.63101e-10
5.82355e-10
5.98179e-10
4.21845e-10
2.58706e-10
9.89901e-11
2.83275e-11
7.68107e-12
3.44273e-12
2.50286e-12
2.49957e-12
3.43002e-12
7.64593e-12
2.82511e-11
9.92104e-11
2.60284e-10
4.25132e-10
6.01629e-10
5.83937e-10
4.63776e-10
4.27762e-10
5.26292e-10
5.24667e-10
3.63868e-10
2.24246e-10
8.51558e-11
2.45516e-11
6.76816e-12
3.14531e-12
2.32486e-12
2.32186e-12
3.13449e-12
6.74145e-12
2.45064e-11
8.54297e-11
2.25745e-10
3.66904e-10
5.27637e-10
5.27627e-10
4.28324e-10
3.93715e-10
4.72365e-10
4.57571e-10
3.12553e-10
1.94053e-10
7.26983e-11
2.08765e-11
5.81493e-12
2.79617e-12
2.09461e-12
2.09195e-12
2.78714e-12
5.79287e-12
2.08528e-11
7.29773e-11
1.95447e-10
3.14878e-10
4.60122e-10
4.73481e-10
3.94175e-10
3.60758e-10
4.20627e-10
3.96669e-10
2.67399e-10
1.67335e-10
6.19635e-11
1.75746e-11
4.89503e-12
2.4103e-12
1.83197e-12
1.82964e-12
2.40288e-12
4.88122e-12
1.75652e-11
6.22423e-11
1.68629e-10
2.69538e-10
3.98828e-10
4.21543e-10
3.61121e-10
3.28543e-10
3.71142e-10
3.41295e-10
2.27567e-10
1.4382e-10
5.2991e-11
1.4833e-11
4.11332e-12
2.04876e-12
1.56937e-12
1.56728e-12
2.04256e-12
4.10243e-12
1.48332e-11
5.32704e-11
1.45028e-10
2.29466e-10
3.431e-10
3.71868e-10
3.28805e-10
2.96776e-10
3.24123e-10
2.90928e-10
1.92281e-10
1.22968e-10
4.55354e-11
1.27097e-11
3.52992e-12
1.76541e-12
1.36073e-12
1.35873e-12
1.76e-12
3.52108e-12
1.27178e-11
4.58194e-11
1.24102e-10
1.93952e-10
2.92416e-10
3.24657e-10
2.9693e-10
2.65475e-10
2.80211e-10
2.45641e-10
1.61204e-10
1.04345e-10
3.92544e-11
1.11416e-11
3.17111e-12
1.60896e-12
1.25469e-12
1.2526e-12
1.60387e-12
3.16354e-12
1.1157e-11
3.95437e-11
1.05403e-10
1.62658e-10
2.46839e-10
2.80567e-10
2.65516e-10
2.35237e-10
2.40417e-10
2.06225e-10
1.34623e-10
8.79867e-11
3.39339e-11
1.00069e-11
3.01288e-12
1.59173e-12
1.26875e-12
1.26639e-12
1.58653e-12
3.00598e-12
1.00289e-11
3.42243e-11
8.89599e-11
1.3587e-10
2.07162e-10
2.40624e-10
2.35174e-10
2.07953e-10
2.06656e-10
1.74257e-10
1.13461e-10
7.45532e-11
2.96087e-11
9.19034e-12
2.9855e-12
1.67426e-12
1.37036e-12
1.36765e-12
1.66867e-12
2.97883e-12
9.21728e-12
2.9894e-11
7.54363e-11
1.14524e-10
1.74976e-10
2.06748e-10
2.07802e-10
1.88521e-10
1.83699e-10
1.53374e-10
9.9854e-11
6.56341e-11
2.66973e-11
8.65323e-12
2.99753e-12
1.76838e-12
1.47631e-12
1.4733e-12
1.76237e-12
2.99077e-12
8.68266e-12
2.69739e-11
6.64423e-11
1.00784e-10
1.5394e-10
1.83711e-10
1.88307e-10
)
;

boundaryField
{
    fuel
    {
        type            fixedValue;
        value           nonuniform 0();
    }
    wall
    {
        type            zeroGradient;
    }
    outlet
    {
        type            zeroGradient;
    }
    frontAndBack
    {
        type            empty;
    }
    procBoundary1to0
    {
        type            processor;
        value           nonuniform List<scalar> 
21
(
6.07013e-10
8.31712e-10
9.53707e-10
6.92848e-10
3.94394e-10
1.49631e-10
3.92754e-11
1.01476e-11
4.25058e-12
2.989e-12
2.86248e-12
2.86248e-12
4.05676e-12
9.66195e-12
3.7314e-11
1.39447e-10
3.65714e-10
6.29773e-10
8.65423e-10
7.6686e-10
5.74202e-10
)
;
    }
}


// ************************************************************************* //
