/*--------------------------------*- C++ -*----------------------------------*\
| =========                 |                                                 |
| \\      /  F ield         | OpenFOAM: The Open Source CFD Toolbox           |
|  \\    /   O peration     | Version:  dev                                   |
|   \\  /    A nd           | Web:      www.OpenFOAM.org                      |
|    \\/     M anipulation  |                                                 |
\*---------------------------------------------------------------------------*/
FoamFile
{
    version     2.0;
    format      ascii;
    class       volScalarField;
    location    "0.015";
    object      A4-;
}
// * * * * * * * * * * * * * * * * * * * * * * * * * * * * * * * * * * * * * //

dimensions      [0 0 0 0 0 0 0];

internalField   nonuniform List<scalar> 
250
(
1.48327e-11
6.96306e-11
1.59811e-10
1.84965e-10
2.18852e-10
1.99889e-10
1.64404e-10
9.89888e-11
7.29648e-11
6.07373e-11
1.1117e-11
4.90703e-11
1.12444e-10
1.29924e-10
1.57871e-10
1.4691e-10
1.25098e-10
7.59346e-11
5.61025e-11
4.64522e-11
4.6433e-11
5.60099e-11
7.59656e-11
1.2584e-10
1.49162e-10
1.6123e-10
1.32518e-10
1.14157e-10
4.96282e-11
1.12406e-11
8.64544e-12
3.46778e-11
7.67749e-11
8.79822e-11
1.10112e-10
1.04691e-10
9.27025e-11
5.7055e-11
4.2493e-11
3.51201e-11
3.51048e-11
4.24261e-11
5.71043e-11
9.33037e-11
1.06388e-10
1.12589e-10
8.98482e-11
7.80474e-11
3.50862e-11
8.74611e-12
6.91195e-12
2.44965e-11
4.96276e-11
5.59725e-11
7.3977e-11
7.20774e-11
6.67218e-11
4.18998e-11
3.16763e-11
2.62403e-11
2.62286e-11
3.16296e-11
4.19556e-11
6.71895e-11
7.32922e-11
7.5727e-11
5.72683e-11
5.04495e-11
2.47873e-11
6.99623e-12
5.61038e-12
1.71966e-11
3.11763e-11
3.43335e-11
4.68184e-11
4.7549e-11
4.63895e-11
2.99178e-11
2.31497e-11
1.93098e-11
1.93011e-11
2.31181e-11
2.99659e-11
4.67378e-11
4.84085e-11
4.79808e-11
3.52165e-11
3.17158e-11
1.73956e-11
5.68105e-12
4.53582e-12
1.18644e-11
1.85523e-11
1.98245e-11
2.83285e-11
2.98409e-11
3.08619e-11
2.0585e-11
1.64546e-11
1.37802e-11
1.3774e-11
1.64338e-11
2.06052e-11
3.11079e-11
3.03959e-11
2.90645e-11
2.02847e-11
1.88848e-11
1.19911e-11
4.59284e-12
3.5645e-12
7.93981e-12
1.03768e-11
1.05942e-11
1.58977e-11
1.74788e-11
1.93466e-11
1.3403e-11
1.11357e-11
9.51922e-12
9.515e-12
1.1123e-11
1.34368e-11
1.95099e-11
1.78163e-11
1.63303e-11
1.08652e-11
1.05605e-11
8.01157e-12
3.60722e-12
2.63869e-12
5.07941e-12
5.43973e-12
5.13974e-12
8.03687e-12
9.29631e-12
1.11599e-11
8.143e-12
7.12002e-12
6.20064e-12
6.19794e-12
7.11257e-12
8.16356e-12
1.1259e-11
9.48237e-12
8.26526e-12
5.27447e-12
5.52579e-12
5.11345e-12
2.66726e-12
1.76219e-12
3.01618e-12
2.70744e-12
2.26061e-12
3.54391e-12
4.33257e-12
5.72416e-12
4.45778e-12
4.14597e-12
3.68994e-12
3.68838e-12
4.14191e-12
4.46941e-12
5.77668e-12
4.42069e-12
3.6458e-12
2.31567e-12
2.74006e-12
3.02991e-12
1.77864e-12
9.94835e-13
1.54382e-12
1.25637e-12
9.19671e-13
1.35531e-12
1.7227e-12
2.50224e-12
2.09576e-12
2.08682e-12
1.89954e-12
1.89877e-12
2.08482e-12
2.1013e-12
2.5252e-12
1.75666e-12
1.39201e-12
9.38673e-13
1.2678e-12
1.54974e-12
1.00271e-12
4.54398e-13
6.12989e-13
4.80682e-13
3.29405e-13
4.46251e-13
5.6383e-13
8.69965e-13
7.69565e-13
8.16845e-13
7.56792e-13
7.56494e-13
8.15986e-13
7.71482e-13
8.77633e-13
5.74156e-13
4.57097e-13
3.35424e-13
4.85049e-13
6.1546e-13
4.56982e-13
2.31022e-13
2.41774e-13
1.73203e-13
1.09289e-13
1.29276e-13
1.54608e-13
2.32498e-13
2.07875e-13
2.24416e-13
2.09566e-13
2.09457e-13
2.24092e-13
2.08205e-13
2.34178e-13
1.56934e-13
1.31809e-13
1.10669e-13
1.73875e-13
2.41683e-13
2.3117e-13
2.33883e-13
2.11634e-13
1.41741e-13
7.30031e-14
6.39412e-14
6.77493e-14
9.14567e-14
7.96703e-14
8.12831e-14
7.5656e-14
7.55889e-14
8.11123e-14
7.96687e-14
9.18632e-14
6.84299e-14
6.47091e-14
7.32368e-14
1.41256e-13
2.1061e-13
2.33223e-13
)
;

boundaryField
{
    fuel
    {
        type            fixedValue;
        value           nonuniform 0();
    }
    wall
    {
        type            zeroGradient;
    }
    outlet
    {
        type            zeroGradient;
    }
    frontAndBack
    {
        type            empty;
    }
    procBoundary1to0
    {
        type            processor;
        value           nonuniform List<scalar> 
21
(
2.05755e-11
9.88675e-11
2.20688e-10
2.54859e-10
2.94293e-10
2.64289e-10
2.10655e-10
1.26446e-10
9.34127e-11
7.83966e-11
6.07128e-11
6.07128e-11
7.28404e-11
9.89882e-11
1.65288e-10
2.02742e-10
2.232e-10
1.88343e-10
1.61968e-10
7.02648e-11
1.49624e-11
)
;
    }
}


// ************************************************************************* //
