/*--------------------------------*- C++ -*----------------------------------*\
| =========                 |                                                 |
| \\      /  F ield         | OpenFOAM: The Open Source CFD Toolbox           |
|  \\    /   O peration     | Version:  dev                                   |
|   \\  /    A nd           | Web:      www.OpenFOAM.org                      |
|    \\/     M anipulation  |                                                 |
\*---------------------------------------------------------------------------*/
FoamFile
{
    version     2.0;
    format      ascii;
    class       volScalarField;
    location    "0.015";
    object      c-C6H4;
}
// * * * * * * * * * * * * * * * * * * * * * * * * * * * * * * * * * * * * * //

dimensions      [0 0 0 0 0 0 0];

internalField   nonuniform List<scalar> 
250
(
1.07728e-06
8.13185e-07
5.02739e-07
4.32592e-07
4.48531e-07
3.41845e-07
2.01704e-07
9.76058e-08
6.53701e-08
5.28946e-08
1.05977e-06
8.26092e-07
5.0016e-07
3.85877e-07
3.66492e-07
2.68209e-07
1.55977e-07
7.4684e-08
5.07401e-08
4.13482e-08
4.13331e-08
5.06427e-08
7.45794e-08
1.56219e-07
2.70541e-07
3.71521e-07
3.8872e-07
5.00432e-07
8.2737e-07
1.06376e-06
1.04016e-06
8.31634e-07
5.04874e-07
3.56109e-07
3.06226e-07
2.11939e-07
1.18538e-07
5.55362e-08
3.79657e-08
3.10836e-08
3.10731e-08
3.7897e-08
5.54755e-08
1.18737e-07
2.1367e-07
3.09961e-07
3.57853e-07
5.04607e-07
8.32717e-07
1.04387e-06
1.01857e-06
8.29607e-07
5.11711e-07
3.3673e-07
2.64073e-07
1.71949e-07
9.05226e-08
4.09246e-08
2.76429e-08
2.26028e-08
2.25952e-08
2.75939e-08
4.08838e-08
9.06541e-08
1.73181e-07
2.66833e-07
3.37726e-07
5.11114e-07
8.30416e-07
1.02195e-06
9.9378e-07
8.19643e-07
5.15807e-07
3.23936e-07
2.34468e-07
1.45257e-07
7.15848e-08
3.09728e-08
2.01323e-08
1.6294e-08
1.62874e-08
2.00958e-08
3.09371e-08
7.16583e-08
1.46188e-07
2.3655e-07
3.24514e-07
5.15013e-07
8.20137e-07
9.96756e-07
9.63871e-07
8.01257e-07
5.14542e-07
3.13162e-07
2.14613e-07
1.2846e-07
6.02562e-08
2.52068e-08
1.54429e-08
1.21918e-08
1.2185e-08
1.54137e-08
2.51655e-08
6.03015e-08
1.29201e-07
2.16293e-07
3.13445e-07
5.13653e-07
8.01416e-07
9.66369e-07
9.26733e-07
7.73917e-07
5.06165e-07
3.01831e-07
1.99967e-07
1.17974e-07
5.44729e-08
2.26879e-08
1.31758e-08
1.02289e-08
1.02211e-08
1.31507e-08
2.26594e-08
5.45237e-08
1.18652e-07
2.01428e-07
3.02067e-07
5.05259e-07
7.73741e-07
9.28679e-07
8.80422e-07
7.37081e-07
4.89843e-07
2.88388e-07
1.87935e-07
1.11074e-07
5.21231e-08
2.2316e-08
1.27428e-08
9.82532e-09
9.81587e-09
1.27199e-08
2.2296e-08
5.22036e-08
1.11758e-07
1.89289e-07
2.88652e-07
4.88966e-07
7.36582e-07
8.81755e-07
8.23593e-07
6.90241e-07
4.65267e-07
2.71871e-07
1.76646e-07
1.05839e-07
5.15144e-08
2.302e-08
1.33383e-08
1.03422e-08
1.0331e-08
1.33161e-08
2.30102e-08
5.16349e-08
1.06559e-07
1.77956e-07
2.72211e-07
4.64451e-07
6.89443e-07
8.24273e-07
7.56452e-07
6.3356e-07
4.3253e-07
2.51761e-07
1.64544e-07
1.00722e-07
5.14677e-08
2.4094e-08
1.43662e-08
1.1265e-08
1.12517e-08
1.43435e-08
2.40925e-08
5.16282e-08
1.01486e-07
1.65835e-07
2.52189e-07
4.31793e-07
6.32512e-07
7.56466e-07
6.82595e-07
5.69965e-07
3.93322e-07
2.28603e-07
1.50634e-07
9.42781e-08
5.07864e-08
2.49568e-08
1.54575e-08
1.23119e-08
1.22965e-08
1.54331e-08
2.49605e-08
5.0979e-08
9.50646e-08
1.5188e-07
2.29082e-07
3.92636e-07
5.68691e-07
6.81968e-07
6.11233e-07
5.08591e-07
3.54263e-07
2.05908e-07
1.36295e-07
8.67116e-08
4.86274e-08
2.50475e-08
1.61985e-08
1.31891e-08
1.31715e-08
1.61719e-08
2.50509e-08
4.88291e-08
8.74715e-08
1.37443e-07
2.06371e-07
3.53551e-07
5.07098e-07
6.10056e-07
5.59026e-07
4.64483e-07
3.26293e-07
1.89945e-07
1.25962e-07
8.09743e-08
4.65098e-08
2.48321e-08
1.65999e-08
1.37801e-08
1.37609e-08
1.65713e-08
2.48321e-08
4.67059e-08
8.1693e-08
1.27014e-07
1.90366e-07
3.25526e-07
4.62828e-07
5.5748e-07
)
;

boundaryField
{
    fuel
    {
        type            fixedValue;
        value           nonuniform 0();
    }
    wall
    {
        type            zeroGradient;
    }
    outlet
    {
        type            zeroGradient;
    }
    frontAndBack
    {
        type            empty;
    }
    procBoundary1to0
    {
        type            processor;
        value           nonuniform List<scalar> 
21
(
1.09066e-06
7.93584e-07
5.18809e-07
5.0165e-07
5.54051e-07
4.31432e-07
2.53134e-07
1.23048e-07
8.12063e-08
6.52848e-08
5.28649e-08
5.28649e-08
6.5227e-08
9.74251e-08
2.01955e-07
3.44848e-07
4.55133e-07
4.36801e-07
5.03741e-07
8.14936e-07
1.08149e-06
)
;
    }
}


// ************************************************************************* //
