/*--------------------------------*- C++ -*----------------------------------*\
| =========                 |                                                 |
| \\      /  F ield         | OpenFOAM: The Open Source CFD Toolbox           |
|  \\    /   O peration     | Version:  dev                                   |
|   \\  /    A nd           | Web:      www.OpenFOAM.org                      |
|    \\/     M anipulation  |                                                 |
\*---------------------------------------------------------------------------*/
FoamFile
{
    version     2.0;
    format      ascii;
    class       volScalarField;
    location    "0.015";
    object      c-C6H7;
}
// * * * * * * * * * * * * * * * * * * * * * * * * * * * * * * * * * * * * * //

dimensions      [0 0 0 0 0 0 0];

internalField   nonuniform List<scalar> 
25
(
9.06895e-12
1.17052e-11
1.46479e-11
1.78607e-11
2.13221e-11
2.50337e-11
2.90227e-11
3.33401e-11
3.80549e-11
4.32447e-11
4.89845e-11
5.53347e-11
6.23295e-11
6.99664e-11
7.82002e-11
8.69425e-11
9.60671e-11
1.05423e-10
1.14848e-10
1.24209e-10
1.33278e-10
1.41897e-10
1.49825e-10
1.56714e-10
1.62064e-10
)
;

boundaryField
{
    wall
    {
        type            zeroGradient;
    }
    fuel
    {
        type            fixedValue;
        value           nonuniform 0();
    }
    outlet
    {
        type            inletOutlet;
        inletValue      nonuniform 0();
        value           nonuniform 0();
    }
    procBoundary1to0
    {
        type            processor;
        value           uniform 6.77786e-12;
    }
    procBoundary1to2
    {
        type            processor;
        value           uniform 1.65206e-10;
    }
}


// ************************************************************************* //
