/*--------------------------------*- C++ -*----------------------------------*\
| =========                 |                                                 |
| \\      /  F ield         | OpenFOAM: The Open Source CFD Toolbox           |
|  \\    /   O peration     | Version:  dev                                   |
|   \\  /    A nd           | Web:      www.OpenFOAM.org                      |
|    \\/     M anipulation  |                                                 |
\*---------------------------------------------------------------------------*/
FoamFile
{
    version     2.0;
    format      ascii;
    class       volScalarField;
    location    "0.015";
    object      C4H;
}
// * * * * * * * * * * * * * * * * * * * * * * * * * * * * * * * * * * * * * //

dimensions      [0 0 0 0 0 0 0];

internalField   nonuniform List<scalar> 
250
(
1.21063e-15
7.01655e-17
3.07044e-15
6.77233e-13
5.80833e-11
1.77846e-10
2.18966e-10
2.87707e-10
3.00921e-10
2.954e-10
2.02606e-15
1.24643e-16
3.06714e-15
5.85901e-13
3.58381e-11
1.07671e-10
1.30583e-10
1.75354e-10
1.86715e-10
1.84156e-10
1.84601e-10
1.91287e-10
1.8343e-10
1.41382e-10
1.15774e-10
4.10988e-11
7.62774e-13
4.02358e-15
1.25435e-16
1.51218e-15
3.15334e-15
2.51635e-16
3.27715e-15
5.04347e-13
2.07375e-11
6.06359e-11
7.30334e-11
1.00783e-10
1.09514e-10
1.08627e-10
1.08898e-10
1.12384e-10
1.05919e-10
7.96084e-11
6.55998e-11
2.40377e-11
6.3987e-13
4.19576e-15
2.36105e-16
2.45761e-15
4.63414e-15
5.26354e-16
3.81333e-15
4.24592e-13
1.11195e-11
3.12891e-11
3.78287e-11
5.39965e-11
6.00315e-11
5.99519e-11
6.0109e-11
6.17144e-11
5.70144e-11
4.1561e-11
3.41391e-11
1.2773e-11
5.24456e-13
4.75218e-15
4.95759e-16
3.74543e-15
6.51612e-15
1.08563e-15
4.94825e-15
3.42804e-13
5.45542e-12
1.45101e-11
1.7838e-11
2.6481e-11
3.02471e-11
3.04494e-11
3.05382e-11
3.11552e-11
2.80709e-11
1.97781e-11
1.60503e-11
6.27824e-12
4.13967e-13
5.95091e-15
1.03477e-15
5.6818e-15
8.46445e-15
2.0921e-15
6.82043e-15
2.58944e-13
2.42127e-12
5.92739e-12
7.47615e-12
1.16198e-11
1.34466e-11
1.36489e-11
1.36977e-11
1.38714e-11
1.2379e-11
8.3764e-12
6.49499e-12
2.76922e-12
3.05919e-13
8.02561e-15
2.09586e-15
7.65906e-15
9.92074e-15
3.94049e-15
9.28988e-15
1.7706e-13
9.62295e-13
2.07745e-12
2.69147e-12
4.40058e-12
5.22237e-12
5.27484e-12
5.29849e-12
5.39799e-12
4.71904e-12
3.051e-12
2.29604e-12
1.08812e-12
2.04369e-13
1.08203e-14
3.85281e-15
9.26103e-15
9.80591e-15
5.81777e-15
1.13053e-14
1.04941e-13
3.36727e-13
6.08406e-13
7.94184e-13
1.37114e-12
1.66807e-12
1.68852e-12
1.69713e-12
1.72696e-12
1.4809e-12
9.11083e-13
6.72548e-13
3.7559e-13
1.1804e-13
1.30229e-14
5.88243e-15
9.43172e-15
7.5089e-15
6.40209e-15
1.0721e-14
5.08282e-14
9.90296e-14
1.46613e-13
1.82133e-13
3.31134e-13
4.12309e-13
4.16312e-13
4.18423e-13
4.27178e-13
3.60053e-13
2.10776e-13
1.59272e-13
1.09076e-13
5.55953e-14
1.21555e-14
6.62221e-15
7.4118e-15
3.90098e-15
4.51197e-15
6.71051e-15
1.82858e-14
2.243e-14
2.80609e-14
3.0771e-14
5.75327e-14
7.30912e-14
7.33492e-14
7.36678e-14
7.57075e-14
6.28957e-14
3.56238e-14
2.95846e-14
2.41828e-14
1.94744e-14
7.48678e-15
4.74181e-15
3.93763e-15
1.13275e-15
1.66078e-15
2.24298e-15
4.03386e-15
3.40796e-15
3.55457e-15
3.32916e-15
6.09916e-15
7.87851e-15
7.91862e-15
7.94751e-15
8.1625e-15
6.69417e-15
3.81999e-15
3.65789e-15
3.52059e-15
4.20814e-15
2.47854e-15
1.77296e-15
1.17078e-15
1.63323e-16
2.69022e-16
3.38319e-16
4.6843e-16
3.14508e-16
2.39711e-16
1.73887e-16
2.89268e-16
3.7499e-16
3.82005e-16
3.83293e-16
3.88885e-16
3.17354e-16
1.94614e-16
2.35604e-16
3.06368e-16
4.8486e-16
3.7675e-16
2.95083e-16
1.74911e-16
1.1363e-17
1.84351e-17
2.23094e-17
2.77788e-17
1.94612e-17
1.2049e-17
4.74816e-18
5.44221e-18
6.78583e-18
6.92361e-18
6.94247e-18
7.03468e-18
5.9003e-18
4.82117e-18
1.09831e-17
1.84615e-17
2.92646e-17
2.54737e-17
2.10149e-17
1.27643e-17
)
;

boundaryField
{
    fuel
    {
        type            fixedValue;
        value           nonuniform 0();
    }
    wall
    {
        type            zeroGradient;
    }
    outlet
    {
        type            zeroGradient;
    }
    frontAndBack
    {
        type            empty;
    }
    procBoundary1to0
    {
        type            processor;
        value           nonuniform List<scalar> 
21
(
6.48284e-16
4.6412e-17
3.28439e-15
7.97949e-13
8.94954e-11
2.76764e-10
3.47758e-10
4.48734e-10
4.61947e-10
4.51709e-10
2.96048e-10
2.96048e-10
3.07731e-10
2.99661e-10
2.35769e-10
1.90405e-10
6.58175e-11
9.06806e-13
4.14637e-15
7.66965e-17
8.65351e-16
)
;
    }
}


// ************************************************************************* //
