/*--------------------------------*- C++ -*----------------------------------*\
| =========                 |                                                 |
| \\      /  F ield         | OpenFOAM: The Open Source CFD Toolbox           |
|  \\    /   O peration     | Version:  dev                                   |
|   \\  /    A nd           | Web:      www.OpenFOAM.org                      |
|    \\/     M anipulation  |                                                 |
\*---------------------------------------------------------------------------*/
FoamFile
{
    version     2.0;
    format      ascii;
    class       volScalarField;
    location    "0.015";
    object      CH;
}
// * * * * * * * * * * * * * * * * * * * * * * * * * * * * * * * * * * * * * //

dimensions      [0 0 0 0 0 0 0];

internalField   nonuniform List<scalar> 
250
(
2.0286e-15
5.78948e-17
7.73218e-15
1.97109e-12
8.25889e-11
2.33937e-11
2.06405e-11
5.19224e-11
1.13719e-10
1.73676e-10
4.06971e-15
8.39627e-17
9.69887e-15
2.35845e-12
5.73066e-11
1.42942e-11
1.07849e-11
2.66038e-11
6.07316e-11
9.52872e-11
9.7054e-11
6.54257e-11
2.99443e-11
1.20332e-11
1.37679e-11
5.35333e-11
4.29358e-12
1.74671e-14
1.42329e-16
2.58049e-15
7.51826e-15
1.39563e-16
1.21651e-14
2.79984e-12
3.80763e-11
8.22234e-12
5.34106e-12
1.29015e-11
3.07211e-11
4.96071e-11
5.05632e-11
3.32251e-11
1.45904e-11
5.93172e-12
7.75706e-12
3.47643e-11
4.74797e-12
2.04767e-14
2.00074e-16
5.13303e-15
1.31508e-14
2.79631e-16
1.47961e-14
3.1665e-12
2.41177e-11
4.40523e-12
2.49146e-12
5.90649e-12
1.46767e-11
2.4445e-11
2.49393e-11
1.59355e-11
6.70432e-12
2.75624e-12
4.07073e-12
2.10725e-11
5.00812e-12
2.32575e-14
3.39527e-16
9.54278e-15
2.23976e-14
6.78097e-16
1.73911e-14
3.29578e-12
1.45546e-11
2.17955e-12
1.08716e-12
2.53854e-12
6.58863e-12
1.13491e-11
1.15915e-11
7.18191e-12
2.88442e-12
1.19966e-12
1.97751e-12
1.2227e-11
4.89594e-12
2.56229e-14
7.3899e-16
1.84696e-14
3.53823e-14
1.78854e-15
2.02113e-14
3.05014e-12
8.41863e-12
9.98604e-13
4.40891e-13
1.02005e-12
2.69829e-12
4.81827e-12
4.92887e-12
2.95081e-12
1.15926e-12
4.85764e-13
8.66525e-13
6.74683e-12
4.28111e-12
2.82739e-14
1.99923e-15
3.10581e-14
5.03872e-14
5.39901e-15
2.47857e-14
2.41224e-12
4.71976e-12
4.32218e-13
1.6576e-13
3.79715e-13
1.02006e-12
1.86171e-12
1.9081e-12
1.11915e-12
4.3121e-13
1.82003e-13
3.62506e-13
3.62011e-12
3.21704e-12
3.37256e-14
5.62522e-15
4.66555e-14
5.85695e-14
1.22814e-14
3.2563e-14
1.55229e-12
2.55919e-12
1.87917e-13
5.88191e-14
1.30425e-13
3.43564e-13
6.42405e-13
6.59451e-13
3.77501e-13
1.47484e-13
6.36617e-14
1.49803e-13
1.92498e-12
1.98217e-12
4.38516e-14
1.3446e-14
5.72611e-14
4.93912e-14
1.94615e-14
3.77039e-14
7.60754e-13
1.25146e-12
9.22168e-14
2.15602e-14
4.24153e-14
1.0237e-13
1.90719e-13
1.95828e-13
1.12068e-13
4.74259e-14
2.23808e-14
6.86685e-14
9.71627e-13
9.41056e-13
5.01166e-14
2.21139e-14
5.08339e-14
2.51112e-14
1.70755e-14
2.76628e-14
2.53144e-13
4.5688e-13
5.27593e-14
9.57746e-15
1.45189e-14
2.90347e-14
5.00214e-14
5.12034e-14
3.12979e-14
1.58724e-14
9.34979e-15
3.76553e-14
3.86114e-13
3.08531e-13
3.62624e-14
2.00143e-14
2.7138e-14
5.85157e-15
6.21327e-15
8.97746e-15
4.36119e-14
8.61643e-14
2.41902e-14
4.68272e-15
5.63952e-15
9.36202e-15
1.36978e-14
1.3906e-14
9.84636e-15
6.0322e-15
4.43906e-15
1.82477e-14
8.22632e-14
5.31716e-14
1.17486e-14
7.54765e-15
6.66655e-15
6.10839e-16
8.2671e-16
1.10986e-15
3.40228e-15
6.13646e-15
4.48173e-15
1.54336e-15
1.86407e-15
3.14222e-15
4.35804e-15
4.40031e-15
3.28473e-15
1.9958e-15
1.4951e-15
3.93651e-15
6.46901e-15
4.15074e-15
1.4855e-15
1.06042e-15
7.45083e-16
5.78072e-17
7.9017e-17
1.03303e-16
2.38399e-16
3.51123e-16
4.81908e-16
3.35414e-16
3.78306e-16
6.52245e-16
9.31291e-16
9.40492e-16
6.83947e-16
4.04766e-16
3.26834e-16
5.03231e-16
3.70766e-16
2.91656e-16
1.43713e-16
1.08526e-16
7.6874e-17
)
;

boundaryField
{
    fuel
    {
        type            fixedValue;
        value           nonuniform 0();
    }
    wall
    {
        type            zeroGradient;
    }
    outlet
    {
        type            zeroGradient;
    }
    frontAndBack
    {
        type            empty;
    }
    procBoundary1to0
    {
        type            processor;
        value           nonuniform List<scalar> 
21
(
8.76152e-16
4.47097e-17
6.52649e-15
1.73395e-12
1.14826e-10
3.64487e-11
3.76558e-11
9.60868e-11
2.01918e-10
3.00506e-10
1.7663e-10
1.7663e-10
1.21944e-10
5.81327e-11
2.31462e-11
2.29908e-11
7.84059e-11
3.84628e-12
1.49668e-14
1.11011e-16
1.19148e-15
)
;
    }
}


// ************************************************************************* //
