/*--------------------------------*- C++ -*----------------------------------*\
| =========                 |                                                 |
| \\      /  F ield         | OpenFOAM: The Open Source CFD Toolbox           |
|  \\    /   O peration     | Version:  dev                                   |
|   \\  /    A nd           | Web:      www.OpenFOAM.org                      |
|    \\/     M anipulation  |                                                 |
\*---------------------------------------------------------------------------*/
FoamFile
{
    version     2.0;
    format      ascii;
    class       volScalarField;
    location    "0.015";
    object      CH2;
}
// * * * * * * * * * * * * * * * * * * * * * * * * * * * * * * * * * * * * * //

dimensions      [0 0 0 0 0 0 0];

internalField   nonuniform List<scalar> 
25
(
4.70256e-07
4.04989e-07
3.47713e-07
2.98534e-07
2.57127e-07
2.22899e-07
1.951e-07
1.72911e-07
1.55506e-07
1.42099e-07
1.31969e-07
1.24467e-07
1.19008e-07
1.15069e-07
1.12176e-07
1.09904e-07
1.07868e-07
1.05729e-07
1.03195e-07
1.00009e-07
9.59982e-08
9.10049e-08
8.49215e-08
7.76864e-08
6.92788e-08
)
;

boundaryField
{
    wall
    {
        type            zeroGradient;
    }
    fuel
    {
        type            fixedValue;
        value           nonuniform 0();
    }
    outlet
    {
        type            inletOutlet;
        inletValue      nonuniform 0();
        value           nonuniform 0();
    }
    procBoundary1to0
    {
        type            processor;
        value           uniform 5.43888e-07;
    }
    procBoundary1to2
    {
        type            processor;
        value           uniform 5.99154e-08;
    }
}


// ************************************************************************* //
