/*--------------------------------*- C++ -*----------------------------------*\
| =========                 |                                                 |
| \\      /  F ield         | OpenFOAM: The Open Source CFD Toolbox           |
|  \\    /   O peration     | Version:  dev                                   |
|   \\  /    A nd           | Web:      www.OpenFOAM.org                      |
|    \\/     M anipulation  |                                                 |
\*---------------------------------------------------------------------------*/
FoamFile
{
    version     2.0;
    format      ascii;
    class       volScalarField;
    location    "0.015";
    object      CH3;
}
// * * * * * * * * * * * * * * * * * * * * * * * * * * * * * * * * * * * * * //

dimensions      [0 0 0 0 0 0 0];

internalField   nonuniform List<scalar> 
2000
(
0.000176706
0.000177157
0.00017759
0.000177798
0.000177608
0.000178036
0.000178061
0.000178118
0.000178121
0.000178149
0.000178172
0.000178151
0.000178167
0.000178182
0.00017783
0.000178193
0.000178064
0.00017785
0.000178237
0.000178252
0.000178194
0.000178199
0.000178231
0.000178239
0.000178155
0.000178241
0.000178265
0.000178254
0.000178244
0.000178238
0.0001782
0.000178185
0.000178232
0.000178222
0.00017822
0.000178192
0.000178217
0.000178191
0.000178196
0.000177791
0.00017817
0.000178151
0.00017815
0.000177953
0.000178056
0.000177925
0.000177653
0.000177437
0.000177223
0.000176826
0.000704029
0.000705634
0.000706611
0.000707131
0.000705746
0.000707636
0.000707677
0.000707811
0.000707791
0.000707865
0.000707913
0.000707881
0.000707906
0.000707957
0.000706256
0.000707957
0.000707179
0.0007063
0.000708067
0.000708087
0.000707984
0.000708001
0.000708039
0.000708073
0.000707888
0.00070806
0.000708106
0.000708086
0.00070808
0.000708063
0.000707996
0.000707937
0.000708059
0.000708024
0.000708025
0.000707971
0.000708007
0.000707957
0.000707972
0.000706173
0.000707905
0.000707867
0.000707871
0.000706911
0.000707669
0.00070738
0.000706294
0.000705766
0.00070575
0.000704817
0.000863299
0.000864092
0.000864624
0.00086492
0.000864362
0.000865083
0.000865067
0.000865157
0.000865085
0.000865142
0.000865165
0.000865163
0.000865154
0.000865219
0.000864595
0.000865169
0.00086494
0.000864618
0.00086526
0.000865258
0.00086521
0.000865226
0.000865198
0.000865255
0.000865155
0.0008652
0.000865239
0.000865238
0.000865256
0.000865216
0.000865212
0.000865149
0.000865252
0.000865219
0.000865235
0.000865221
0.000865226
0.000865197
0.000865212
0.000864565
0.000865169
0.000865164
0.000865176
0.0008648
0.000865105
0.000864954
0.000864623
0.000864334
0.000864152
0.000863545
0.000844462
0.000844967
0.000845322
0.000845501
0.000845186
0.000845497
0.000845443
0.000845517
0.000845411
0.000845457
0.000845474
0.000845478
0.000845452
0.000845529
0.000845261
0.00084545
0.000845401
0.000845274
0.000845535
0.000845524
0.000845492
0.000845507
0.000845452
0.000845523
0.000845441
0.000845445
0.000845485
0.000845493
0.000845521
0.000845471
0.00084549
0.000845427
0.000845532
0.000845495
0.000845519
0.000845523
0.000845519
0.000845502
0.000845517
0.000845259
0.000845487
0.000845497
0.000845519
0.000845339
0.000845514
0.000845428
0.000845381
0.000845214
0.000845004
0.000844537
0.000763645
0.000763997
0.00076426
0.000764351
0.000764102
0.000764235
0.000764153
0.00076421
0.000764084
0.000764119
0.00076413
0.000764133
0.000764098
0.000764179
0.000764044
0.000764085
0.000764098
0.000764049
0.000764162
0.000764148
0.000764121
0.000764134
0.000764068
0.000764144
0.000764072
0.000764057
0.000764098
0.000764111
0.000764142
0.000764088
0.000764118
0.000764061
0.000764163
0.000764126
0.000764154
0.000764167
0.000764164
0.000764153
0.000764169
0.000764062
0.000764152
0.000764172
0.000764204
0.000764108
0.000764251
0.000764212
0.000764297
0.00076422
0.000764024
0.000763663
0.000666822
0.000667113
0.000667364
0.000667414
0.000667189
0.000667241
0.000667141
0.000667183
0.000667048
0.000667076
0.000667079
0.000667082
0.000667044
0.000667121
0.00066704
0.000667025
0.000667061
0.000667041
0.000667095
0.00066708
0.000667055
0.000667067
0.000667
0.000667074
0.000667012
0.000666987
0.000667027
0.00066704
0.000667071
0.000667019
0.000667052
0.000667002
0.000667097
0.000667063
0.000667092
0.000667107
0.000667108
0.000667099
0.000667116
0.00066707
0.000667109
0.000667136
0.000667176
0.000667123
0.000667257
0.000667245
0.000667386
0.00066735
0.000667132
0.000666822
0.000574256
0.000574544
0.000574841
0.000574891
0.000574685
0.000574704
0.000574596
0.000574624
0.00057449
0.000574513
0.000574508
0.000574512
0.000574473
0.000574544
0.000574487
0.000574454
0.000574496
0.000574487
0.000574517
0.000574503
0.000574478
0.00057449
0.000574427
0.000574495
0.000574444
0.000574416
0.000574451
0.000574464
0.000574493
0.000574446
0.000574476
0.000574434
0.000574519
0.000574489
0.000574516
0.00057453
0.000574536
0.000574526
0.000574544
0.000574521
0.000574543
0.000574572
0.000574619
0.00057459
0.00057472
0.000574719
0.000574873
0.000574837
0.000574558
0.000574251
0.000493017
0.000493333
0.000493704
0.00049378
0.000493602
0.000493612
0.000493501
0.00049352
0.00049339
0.000493411
0.000493398
0.000493404
0.000493367
0.000493428
0.000493385
0.00049335
0.000493391
0.000493386
0.000493405
0.000493394
0.00049337
0.000493381
0.000493326
0.000493384
0.000493344
0.000493316
0.000493346
0.000493356
0.000493383
0.000493344
0.000493369
0.000493334
0.000493406
0.000493381
0.000493405
0.000493415
0.000493425
0.000493414
0.000493432
0.000493418
0.000493437
0.000493464
0.000493517
0.000493503
0.000493627
0.000493626
0.000493767
0.000493703
0.000493343
0.000493011
0.000424502
0.000424863
0.000425321
0.000425444
0.000425301
0.000425317
0.000425208
0.000425218
0.000425095
0.000425116
0.000425094
0.000425103
0.000425069
0.000425121
0.000425085
0.000425056
0.000425093
0.000425088
0.000425103
0.000425094
0.000425072
0.000425084
0.000425037
0.000425085
0.000425054
0.000425029
0.000425052
0.00042506
0.000425083
0.000425053
0.000425072
0.000425044
0.000425104
0.000425082
0.000425103
0.000425108
0.000425121
0.000425108
0.000425127
0.000425115
0.000425135
0.00042516
0.000425218
0.000425213
0.000425329
0.000425319
0.000425432
0.000425319
0.000424869
0.000424497
0.000367941
0.000368357
0.000368909
0.000369094
0.000368997
0.000369029
0.000368923
0.000368927
0.000368814
0.000368832
0.000368805
0.000368816
0.000368784
0.000368828
0.000368797
0.000368776
0.000368808
0.000368804
0.000368816
0.000368809
0.000368791
0.000368802
0.000368763
0.000368801
0.000368778
0.000368758
0.000368774
0.000368781
0.000368801
0.000368778
0.000368792
0.000368768
0.000368816
0.000368797
0.000368816
0.000368816
0.000368831
0.000368815
0.000368835
0.000368823
0.000368847
0.000368868
0.00036893
0.00036893
0.000369038
0.000369012
0.000369084
0.000368906
0.00036836
0.000367937
0.000321671
0.000322151
0.000322804
0.000323066
0.000323022
0.000323078
0.000322976
0.000322976
0.000322871
0.000322889
0.000322857
0.000322869
0.000322841
0.000322877
0.000322851
0.000322837
0.000322865
0.000322861
0.000322872
0.000322867
0.000322852
0.000322864
0.000322832
0.000322861
0.000322844
0.000322829
0.00032284
0.000322844
0.000322861
0.000322844
0.000322854
0.000322833
0.000322872
0.000322854
0.00032287
0.000322866
0.000322881
0.000322864
0.000322885
0.000322872
0.000322899
0.000322915
0.000322982
0.000322983
0.000323085
0.000323034
0.000323056
0.0003228
0.000322151
0.000321668
0.000283982
0.000284303
0.00028464
0.000284625
0.00028437
0.000284288
0.000284065
0.000284029
0.000283938
0.000283952
0.000283919
0.000283932
0.000283908
0.000283936
0.000283915
0.000283908
0.00028393
0.000283928
0.000283937
0.000283934
0.000283923
0.000283934
0.000283909
0.000283931
0.00028392
0.000283908
0.000283915
0.000283918
0.000283931
0.00028392
0.000283924
0.000283907
0.000283936
0.000283921
0.000283935
0.000283927
0.00028394
0.000283923
0.000283944
0.000283931
0.000283959
0.000283972
0.000284037
0.000284073
0.000284294
0.000284379
0.000284622
0.000284641
0.000284312
0.000283979
0.000253338
0.000253707
0.000254102
0.000254136
0.000253906
0.00025384
0.00025359
0.000253551
0.000253467
0.00025348
0.000253446
0.000253459
0.000253439
0.000253463
0.000253446
0.000253445
0.000253463
0.000253461
0.000253471
0.00025347
0.000253461
0.000253472
0.000253453
0.000253469
0.000253461
0.000253454
0.000253458
0.000253459
0.000253469
0.000253461
0.000253463
0.000253447
0.00025347
0.000253455
0.000253466
0.000253455
0.000253466
0.000253449
0.00025347
0.000253455
0.000253484
0.000253494
0.000253558
0.000253597
0.000253844
0.000253912
0.000254134
0.000254102
0.000253714
0.000253336
0.000228109
0.000228514
0.000228989
0.000229165
0.000229119
0.000229089
0.000228792
0.000228749
0.000228674
0.000228685
0.000228652
0.000228665
0.000228649
0.00022867
0.000228656
0.000228661
0.000228676
0.000228676
0.000228686
0.000228686
0.00022868
0.000228691
0.000228676
0.000228689
0.000228683
0.000228678
0.00022868
0.00022868
0.000228688
0.000228682
0.000228681
0.000228667
0.000228684
0.00022867
0.000228678
0.000228664
0.000228672
0.000228655
0.000228675
0.000228659
0.000228688
0.000228694
0.000228757
0.000228797
0.000229092
0.00022913
0.000229158
0.000228987
0.000228516
0.000228106
0.000207003
0.000207426
0.00020792
0.000208137
0.000208116
0.000208102
0.00020773
0.000207684
0.000207621
0.00020763
0.000207601
0.000207614
0.000207604
0.000207623
0.000207613
0.000207621
0.000207634
0.000207636
0.000207646
0.000207648
0.000207644
0.000207654
0.000207644
0.000207653
0.00020765
0.000207647
0.000207648
0.000207647
0.000207652
0.000207648
0.000207645
0.000207631
0.000207643
0.000207629
0.000207634
0.000207619
0.000207624
0.000207607
0.000207623
0.000207606
0.000207633
0.000207636
0.000207692
0.000207735
0.000208104
0.000208125
0.000208131
0.000207917
0.000207427
0.000207
0.000189709
0.000190145
0.000190653
0.000190913
0.000190915
0.000190917
0.000191154
0.000191104
0.00019105
0.000191059
0.000191034
0.000191049
0.000191044
0.000191062
0.000191056
0.000191067
0.000191079
0.000191084
0.000191095
0.000191098
0.000191096
0.000191106
0.000191099
0.000191106
0.000191104
0.000191103
0.000191103
0.000191101
0.000191104
0.0001911
0.000191096
0.000191082
0.00019109
0.000191076
0.000191078
0.000191061
0.000191062
0.000191045
0.000191055
0.000191038
0.000191061
0.000191062
0.000191111
0.000191157
0.000190919
0.000190922
0.000190908
0.00019065
0.000190145
0.000189705
0.000176016
0.000176475
0.000177009
0.000177319
0.000177338
0.000177356
0.000177492
0.000177505
0.000177461
0.000177471
0.000177451
0.000177468
0.000177471
0.000177489
0.000177487
0.000177502
0.000177514
0.000177521
0.000177533
0.000177538
0.000177538
0.000177548
0.000177543
0.000177549
0.000177548
0.000177547
0.000177547
0.000177545
0.000177546
0.000177542
0.000177536
0.000177523
0.000177526
0.000177512
0.00017751
0.000177491
0.00017749
0.000177471
0.000177473
0.000177454
0.000177473
0.00017747
0.000177511
0.000177497
0.000177358
0.000177345
0.000177315
0.000177006
0.000176473
0.000176012
0.000164735
0.000165213
0.000165772
0.000166137
0.00016617
0.000166203
0.000166312
0.0001663
0.000166194
0.00016617
0.000166122
0.000166126
0.000166123
0.000166131
0.000166124
0.000166135
0.00016614
0.000166145
0.000166152
0.000166156
0.000166154
0.00016616
0.000166158
0.000166161
0.00016616
0.000166161
0.000166162
0.000166159
0.000166161
0.000166159
0.000166155
0.000166145
0.00016615
0.000166139
0.000166141
0.000166126
0.000166132
0.000166122
0.00016613
0.000166124
0.000166172
0.0001662
0.000166307
0.000166316
0.000166205
0.000166176
0.000166134
0.000165768
0.00016521
0.00016473
0.000155317
0.000155807
0.000156346
0.000156701
0.000156661
0.000156669
0.000156725
0.000156695
0.000156592
0.000156567
0.000156523
0.000156528
0.000156539
0.000156547
0.000156543
0.000156557
0.000156563
0.000156569
0.000156577
0.000156583
0.000156582
0.000156588
0.000156588
0.000156591
0.000156591
0.000156591
0.000156592
0.000156589
0.00015659
0.000156586
0.000156582
0.000156572
0.000156573
0.000156562
0.000156561
0.000156545
0.000156548
0.000156538
0.000156529
0.000156524
0.000156569
0.000156596
0.000156702
0.000156728
0.000156671
0.000156666
0.0001567
0.000156345
0.000155807
0.000155313
0.00014727
0.000147768
0.000148318
0.000148736
0.000148684
0.000148705
0.000148742
0.000148712
0.000148609
0.000148584
0.000148542
0.000148547
0.000148577
0.000148586
0.000148586
0.000148601
0.000148608
0.000148617
0.000148625
0.000148633
0.000148634
0.00014864
0.000148641
0.000148644
0.000148644
0.000148645
0.000148645
0.000148642
0.000148641
0.000148637
0.000148632
0.000148622
0.00014862
0.000148608
0.000148605
0.000148588
0.000148587
0.000148577
0.000148545
0.000148543
0.000148586
0.000148612
0.000148718
0.000148744
0.000148707
0.000148686
0.000148736
0.000148316
0.000147766
0.000147265
0.000140794
0.000141305
0.000141873
0.000142093
0.000142288
0.00014232
0.000142339
0.00014231
0.000142202
0.000142177
0.000142135
0.000142134
0.000142195
0.000142205
0.000142208
0.000142225
0.000142234
0.000142245
0.000142254
0.000142263
0.000142265
0.000142272
0.000142274
0.000142276
0.000142277
0.000142278
0.000142277
0.000142274
0.000142273
0.000142268
0.000142262
0.000142251
0.000142247
0.000142233
0.000142227
0.000142209
0.000142205
0.000142194
0.000142133
0.000142135
0.000142179
0.000142204
0.000142314
0.000142342
0.000142322
0.000142286
0.000142092
0.000141871
0.000141303
0.000140789
0.000135305
0.000135883
0.000136479
0.000136747
0.000136938
0.000136979
0.000136981
0.000136952
0.000136834
0.00013681
0.000136767
0.000136751
0.000136666
0.000136672
0.000136676
0.000136692
0.000136701
0.000136713
0.000136722
0.000136731
0.000136734
0.000136741
0.000136744
0.000136746
0.000136747
0.000136747
0.000136747
0.000136744
0.000136742
0.000136737
0.000136731
0.00013672
0.000136715
0.000136701
0.000136694
0.000136677
0.000136673
0.000136666
0.000136758
0.000136767
0.000136812
0.000136836
0.000136956
0.000136983
0.00013698
0.000136933
0.000136746
0.000136477
0.000135881
0.000135299
0.000130555
0.000131145
0.000131761
0.000132074
0.00013231
0.000132402
0.00013243
0.000132425
0.000132308
0.000132289
0.000132249
0.000132226
0.000132165
0.000132171
0.000132178
0.000132197
0.000132208
0.000132222
0.000132232
0.000132243
0.000132247
0.000132254
0.000132258
0.000132261
0.000132262
0.000132262
0.000132262
0.000132258
0.000132256
0.00013225
0.000132243
0.000132231
0.000132224
0.000132208
0.000132199
0.00013218
0.000132173
0.000132165
0.000132235
0.000132249
0.000132291
0.00013231
0.000132428
0.000132431
0.000132403
0.000132303
0.000132072
0.000131758
0.000131143
0.000130549
0.000126522
0.000127126
0.00012776
0.000128111
0.000128351
0.000128452
0.000128465
0.000128464
0.000128489
0.000128473
0.000128433
0.000128407
0.000128361
0.000128359
0.00012835
0.000128358
0.000128362
0.000128371
0.000128377
0.000128386
0.000128389
0.000128394
0.000128397
0.000128399
0.0001284
0.0001284
0.0001284
0.000128397
0.000128395
0.00012839
0.000128385
0.000128376
0.000128372
0.000128362
0.00012836
0.000128352
0.000128361
0.000128362
0.000128415
0.000128433
0.000128475
0.000128491
0.000128467
0.000128466
0.000128452
0.000128344
0.000128109
0.000127757
0.000127123
0.000126515
0.000123073
0.000123694
0.000124346
0.000124732
0.00012498
0.000125087
0.000125222
0.000125226
0.000125208
0.000125148
0.000125084
0.000125044
0.000124999
0.000124996
0.000124989
0.000124998
0.000125003
0.000125014
0.000125021
0.000125031
0.000125035
0.000125041
0.000125044
0.000125046
0.000125047
0.000125047
0.000125047
0.000125044
0.000125041
0.000125036
0.00012503
0.000125021
0.000125015
0.000125003
0.000124999
0.00012499
0.000124997
0.000125001
0.000125049
0.000125084
0.00012515
0.00012521
0.000125228
0.000125222
0.000125087
0.000124973
0.00012473
0.000124343
0.00012369
0.000123066
0.000120102
0.00012074
0.000121414
0.000121831
0.000122089
0.000122317
0.000122393
0.000122355
0.000122321
0.00012226
0.000122195
0.000122154
0.000122117
0.000122113
0.000122108
0.000122117
0.000122124
0.000122136
0.000122145
0.000122155
0.00012216
0.000122166
0.000122171
0.000122173
0.000122174
0.000122174
0.000122174
0.00012217
0.000122167
0.000122161
0.000122155
0.000122144
0.000122137
0.000122125
0.000122119
0.000122109
0.000122115
0.000122118
0.000122158
0.000122195
0.000122263
0.000122323
0.000122357
0.000122394
0.000122317
0.000122083
0.000121828
0.00012141
0.000120735
0.000120095
0.000117522
0.000118178
0.000118875
0.00011932
0.000119691
0.000119853
0.000119907
0.000119871
0.000119831
0.000119769
0.000119702
0.000119661
0.000119628
0.000119623
0.00011962
0.00011963
0.000119638
0.000119651
0.00011966
0.000119672
0.000119678
0.000119685
0.000119689
0.000119692
0.000119693
0.000119693
0.000119692
0.000119689
0.000119685
0.000119678
0.000119671
0.00011966
0.000119652
0.000119638
0.000119631
0.000119621
0.000119625
0.000119629
0.000119663
0.000119701
0.000119771
0.000119833
0.000119873
0.000119908
0.000119853
0.000119686
0.000119317
0.000118871
0.000118173
0.000117515
0.000115262
0.000115938
0.000116659
0.000117219
0.000117536
0.000117695
0.000117747
0.000117712
0.000117666
0.000117601
0.000117532
0.000117491
0.000117461
0.000117456
0.000117453
0.000117464
0.000117473
0.000117487
0.000117497
0.000117509
0.000117517
0.000117524
0.000117529
0.000117532
0.000117533
0.000117533
0.000117532
0.000117528
0.000117524
0.000117517
0.000117509
0.000117497
0.000117488
0.000117473
0.000117465
0.000117454
0.000117458
0.000117462
0.000117493
0.000117532
0.000117604
0.000117668
0.000117714
0.000117748
0.000117695
0.000117532
0.000117216
0.000116654
0.000115932
0.000115254
0.000113264
0.000113959
0.000114706
0.000115328
0.000115637
0.000115804
0.000115855
0.000115819
0.000115768
0.0001157
0.000115629
0.000115587
0.000115558
0.000115552
0.00011555
0.000115561
0.000115571
0.000115586
0.000115598
0.000115611
0.000115619
0.000115627
0.000115632
0.000115635
0.000115637
0.000115637
0.000115635
0.000115631
0.000115627
0.000115619
0.000115611
0.000115598
0.000115587
0.000115572
0.000115563
0.000115552
0.000115554
0.00011556
0.000115589
0.00011563
0.000115703
0.00011577
0.000115821
0.000115855
0.000115804
0.000115634
0.000115326
0.000114701
0.000113953
0.000113256
0.000111481
0.000112196
0.000113041
0.00011363
0.000113958
0.000114132
0.000114182
0.000114146
0.00011409
0.000114018
0.000113944
0.000113901
0.000113871
0.000113865
0.000113863
0.000113875
0.000113886
0.000113902
0.000113914
0.000113928
0.000113937
0.000113945
0.000113951
0.000113955
0.000113956
0.000113956
0.000113955
0.00011395
0.000113945
0.000113937
0.000113928
0.000113915
0.000113903
0.000113887
0.000113876
0.000113865
0.000113867
0.000113874
0.000113903
0.000113945
0.000114021
0.000114092
0.000114148
0.000114182
0.000114132
0.000113955
0.000113628
0.000113035
0.000112189
0.000111473
0.000109876
0.000110607
0.000111502
0.000112112
0.00011246
0.000112641
0.00011269
0.000112653
0.000112591
0.000112515
0.000112438
0.000112393
0.000112363
0.000112355
0.000112354
0.000112366
0.000112378
0.000112395
0.000112408
0.000112423
0.000112432
0.000112441
0.000112447
0.000112451
0.000112453
0.000112453
0.000112451
0.000112447
0.000112441
0.000112432
0.000112423
0.000112409
0.000112395
0.000112379
0.000112368
0.000112356
0.000112358
0.000112366
0.000112396
0.00011244
0.000112518
0.000112593
0.000112655
0.000112691
0.000112641
0.000112457
0.00011211
0.000111498
0.000110599
0.000109867
0.000108415
0.000109219
0.000110102
0.000110743
0.00011111
0.000111299
0.000111347
0.000111309
0.000111241
0.00011116
0.00011108
0.000111033
0.000111001
0.000110992
0.000110991
0.000111003
0.000111015
0.000111033
0.000111048
0.000111063
0.000111073
0.000111083
0.000111089
0.000111093
0.000111095
0.000111095
0.000111093
0.000111089
0.000111083
0.000111073
0.000111063
0.000111048
0.000111034
0.000111017
0.000111005
0.000110993
0.000110995
0.000111004
0.000111035
0.000111082
0.000111163
0.000111243
0.00011131
0.000111348
0.000111299
0.000111108
0.00011074
0.000110097
0.000109209
0.000108406
0.000107074
0.000107936
0.000108825
0.000109497
0.000109884
0.00011008
0.000110127
0.000110087
0.000110013
0.000109926
0.000109842
0.000109792
0.000109759
0.000109749
0.000109747
0.000109759
0.000109773
0.000109791
0.000109807
0.000109823
0.000109834
0.000109844
0.00010985
0.000109855
0.000109857
0.000109857
0.000109855
0.00010985
0.000109844
0.000109834
0.000109823
0.000109807
0.000109792
0.000109774
0.000109761
0.000109749
0.000109751
0.000109762
0.000109795
0.000109845
0.000109929
0.000110015
0.000110088
0.000110128
0.000110079
0.000109881
0.000109494
0.00010882
0.000107929
0.000107063
0.00010583
0.000106722
0.000107649
0.000108352
0.000108759
0.000108962
0.000109009
0.000108965
0.000108885
0.000108792
0.000108704
0.000108651
0.000108615
0.000108604
0.000108602
0.000108614
0.000108628
0.000108647
0.000108664
0.000108681
0.000108692
0.000108703
0.00010871
0.000108715
0.000108717
0.000108717
0.000108715
0.000108709
0.000108703
0.000108692
0.00010868
0.000108664
0.000108648
0.00010863
0.000108616
0.000108604
0.000108606
0.000108618
0.000108654
0.000108707
0.000108796
0.000108887
0.000108967
0.00010901
0.000108962
0.000108756
0.000108348
0.000107643
0.000106714
0.000105818
0.00010471
0.000105592
0.000106556
0.000107291
0.000107718
0.000107928
0.000107975
0.000107927
0.00010784
0.000107741
0.000107648
0.000107591
0.000107553
0.000107539
0.000107537
0.00010755
0.000107564
0.000107584
0.000107601
0.000107619
0.000107632
0.000107643
0.00010765
0.000107655
0.000107657
0.000107657
0.000107655
0.00010765
0.000107642
0.000107631
0.000107619
0.000107602
0.000107585
0.000107566
0.000107552
0.00010754
0.000107542
0.000107556
0.000107594
0.000107651
0.000107745
0.000107843
0.000107929
0.000107975
0.000107928
0.000107715
0.000107287
0.00010655
0.000105582
0.000104696
0.000103653
0.000104532
0.000105533
0.000106299
0.000106746
0.000106963
0.000107009
0.000106958
0.000106864
0.000106757
0.000106659
0.000106598
0.000106557
0.000106542
0.000106539
0.000106551
0.000106566
0.000106587
0.000106605
0.000106624
0.000106637
0.000106648
0.000106656
0.000106662
0.000106664
0.000106664
0.000106661
0.000106656
0.000106648
0.000106637
0.000106623
0.000106606
0.000106588
0.000106568
0.000106553
0.000106541
0.000106545
0.00010656
0.000106601
0.000106663
0.000106761
0.000106867
0.00010696
0.00010701
0.000106963
0.000106744
0.000106295
0.000105526
0.00010452
0.000103642
0.000102618
0.00010353
0.000104567
0.000105365
0.000105832
0.000106056
0.000106101
0.000106046
0.000105944
0.000105829
0.000105725
0.000105659
0.000105615
0.000105598
0.000105594
0.000105607
0.000105622
0.000105644
0.000105663
0.000105682
0.000105696
0.000105708
0.000105716
0.000105722
0.000105724
0.000105724
0.000105722
0.000105716
0.000105708
0.000105696
0.000105682
0.000105663
0.000105645
0.000105624
0.000105609
0.000105597
0.000105601
0.000105619
0.000105663
0.000105729
0.000105833
0.000105947
0.000106048
0.000106102
0.000106056
0.00010583
0.000105361
0.00010456
0.000103517
0.000102606
0.000101627
0.000102575
0.000103649
0.000104479
0.000104966
0.000105196
0.000105241
0.00010518
0.00010507
0.000104946
0.000104836
0.000104765
0.000104718
0.000104699
0.000104694
0.000104706
0.000104723
0.000104745
0.000104765
0.000104785
0.000104799
0.000104812
0.000104821
0.000104826
0.000104829
0.000104829
0.000104826
0.00010482
0.000104812
0.000104799
0.000104785
0.000104765
0.000104746
0.000104724
0.000104709
0.000104697
0.000104702
0.000104722
0.000104769
0.00010484
0.000104951
0.000105073
0.000105182
0.000105242
0.000105196
0.000104963
0.000104475
0.000103641
0.000102568
0.000101614
0.000100672
0.000101691
0.000102769
0.000103632
0.000104139
0.000104376
0.000104419
0.000104352
0.000104235
0.000104101
0.000103984
0.000103908
0.000103857
0.000103835
0.00010383
0.000103842
0.000103858
0.000103882
0.000103902
0.000103923
0.000103938
0.000103952
0.00010396
0.000103967
0.000103969
0.000103969
0.000103966
0.00010396
0.000103951
0.000103938
0.000103923
0.000103903
0.000103883
0.00010386
0.000103845
0.000103833
0.000103839
0.000103861
0.000103912
0.000103988
0.000104106
0.000104238
0.000104355
0.00010442
0.000104376
0.000104136
0.000103627
0.000102761
0.000101683
0.000100658
9.97436e-05
0.000100804
0.00010192
0.000102817
0.000103344
0.000103588
0.000103629
0.000103557
0.000103431
0.000103286
0.000103162
0.00010308
0.000103025
0.000103001
0.000102994
0.000103006
0.000103023
0.000103047
0.000103069
0.00010309
0.000103106
0.00010312
0.000103129
0.000103136
0.000103139
0.000103138
0.000103135
0.000103129
0.00010312
0.000103106
0.00010309
0.000103069
0.000103048
0.000103025
0.000103009
0.000102998
0.000103005
0.000103029
0.000103085
0.000103166
0.000103291
0.000103434
0.000103559
0.000103631
0.000103588
0.000103341
0.000102812
0.000101911
0.000100793
9.97286e-05
)
;

boundaryField
{
    fuel
    {
        type            fixedValue;
        value           uniform 0;
    }
    wall
    {
        type            zeroGradient;
    }
    outlet
    {
        type            zeroGradient;
    }
    frontAndBack
    {
        type            empty;
    }
    procBoundary1to0
    {
        type            processor;
        value           nonuniform List<scalar> 
50
(
9.88457e-05
9.99432e-05
0.000101102
0.000102031
0.000102577
0.000102827
0.000102866
0.000102787
0.000102651
0.000102495
0.000102363
0.000102276
0.000102216
0.00010219
0.000102182
0.000102194
0.000102211
0.000102236
0.000102258
0.00010228
0.000102297
0.000102312
0.000102321
0.000102328
0.000102331
0.000102331
0.000102328
0.000102321
0.000102311
0.000102297
0.00010228
0.000102259
0.000102237
0.000102213
0.000102197
0.000102186
0.000102194
0.000102221
0.000102281
0.000102368
0.0001025
0.000102655
0.00010279
0.000102868
0.000102827
0.000102574
0.000102026
0.000101092
9.99312e-05
9.88297e-05
)
;
    }
}


// ************************************************************************* //
