/*--------------------------------*- C++ -*----------------------------------*\
| =========                 |                                                 |
| \\      /  F ield         | OpenFOAM: The Open Source CFD Toolbox           |
|  \\    /   O peration     | Version:  dev                                   |
|   \\  /    A nd           | Web:      www.OpenFOAM.org                      |
|    \\/     M anipulation  |                                                 |
\*---------------------------------------------------------------------------*/
FoamFile
{
    version     2.0;
    format      ascii;
    class       volScalarField;
    location    "0.015";
    object      CH4;
}
// * * * * * * * * * * * * * * * * * * * * * * * * * * * * * * * * * * * * * //

dimensions      [0 0 0 0 0 0 0];

internalField   nonuniform List<scalar> 
250
(
0.00133528
0.00147995
0.0014202
0.00127093
0.00110754
0.000937096
0.000803693
0.000692828
0.000630961
0.000596382
0.00131022
0.00145459
0.00139561
0.00124295
0.00108225
0.000912422
0.000782629
0.000673064
0.000612538
0.000578019
0.00057802
0.000612429
0.000673073
0.000782879
0.000913065
0.00108265
0.0012427
0.00139482
0.00145408
0.00131093
0.00128748
0.00142552
0.00136476
0.00120857
0.00105212
0.000884216
0.000759036
0.000651647
0.000592962
0.000558818
0.000558831
0.000592901
0.00065178
0.00075947
0.000885145
0.00105286
0.0012086
0.0013641
0.00142499
0.00128827
0.00126582
0.00139214
0.00132571
0.0011661
0.0010173
0.000852699
0.000733066
0.000628751
0.000572404
0.00053897
0.000538994
0.000572392
0.000629003
0.000733681
0.000853887
0.00101839
0.00116649
0.00132507
0.00139158
0.00126662
0.00124387
0.00135389
0.00128155
0.00111961
0.00097667
0.000818013
0.000704946
0.000604604
0.000551088
0.00051871
0.000518743
0.000551125
0.00060495
0.000705733
0.000819494
0.0009781
0.00112043
0.00128105
0.00135329
0.00124461
0.00122008
0.00131016
0.00123076
0.00106816
0.000933179
0.000780872
0.000674987
0.000579518
0.000529279
0.000497837
0.000497881
0.000529364
0.00057989
0.000675932
0.000782569
0.000934918
0.0010689
0.00123042
0.00130949
0.00122068
0.00119275
0.00126045
0.00117402
0.00101251
0.000886178
0.000741679
0.00064359
0.000553638
0.000506832
0.000477455
0.000477507
0.000506965
0.000554184
0.00064468
0.000743577
0.000888195
0.00101364
0.00117382
0.00125969
0.00119312
0.00116019
0.00120456
0.00111222
0.000953761
0.000836549
0.000701175
0.000611276
0.000527837
0.000484918
0.000457464
0.000457525
0.000485094
0.000528444
0.000612493
0.00070324
0.000838803
0.00095515
0.00111214
0.00120371
0.00116027
0.00112116
0.00114292
0.00104678
0.000893488
0.000785516
0.000660304
0.000578711
0.000502337
0.000463517
0.000438194
0.000438263
0.000463734
0.000503004
0.000580033
0.000662497
0.000787957
0.000895076
0.00104679
0.00114195
0.0011209
0.00107557
0.00107717
0.000979923
0.000833835
0.000734785
0.00062032
0.000546776
0.000477725
0.000443029
0.000419955
0.000420031
0.000443281
0.000478443
0.000548181
0.000622601
0.000737358
0.00083557
0.000980025
0.00107611
0.00107495
0.00102541
0.00101071
0.000915197
0.000777804
0.000686818
0.000582989
0.000516727
0.000454739
0.000423863
0.00040298
0.000403061
0.000424143
0.000455495
0.000518193
0.000585318
0.000689467
0.000779632
0.000915357
0.00100959
0.00102445
0.000976206
0.000949999
0.000858323
0.000729855
0.000645377
0.000551003
0.000490589
0.000434634
0.000406772
0.000387761
0.000387845
0.000407072
0.000435413
0.000492089
0.000553344
0.000648049
0.000731719
0.000858505
0.000948837
0.000974944
0.000939426
0.000906941
0.00081926
0.000697519
0.000617018
0.000529167
0.000472388
0.000420526
0.00039446
0.000376729
0.000376813
0.000394771
0.000421313
0.000473901
0.000531497
0.000619673
0.000699373
0.000819426
0.000905742
0.000937963
)
;

boundaryField
{
    fuel
    {
        type            fixedValue;
        value           nonuniform 0();
    }
    wall
    {
        type            zeroGradient;
    }
    outlet
    {
        type            zeroGradient;
    }
    frontAndBack
    {
        type            empty;
    }
    procBoundary1to0
    {
        type            processor;
        value           nonuniform List<scalar> 
21
(
0.00136398
0.00150211
0.00143853
0.00129256
0.00112795
0.000958121
0.00082215
0.000710828
0.000648132
0.000613786
0.000596375
0.000596375
0.000630808
0.000692716
0.000803756
0.000937442
0.00110759
0.00127041
0.00141927
0.00147944
0.00133591
)
;
    }
}


// ************************************************************************* //
