/*--------------------------------*- C++ -*----------------------------------*\
| =========                 |                                                 |
| \\      /  F ield         | OpenFOAM: The Open Source CFD Toolbox           |
|  \\    /   O peration     | Version:  dev                                   |
|   \\  /    A nd           | Web:      www.OpenFOAM.org                      |
|    \\/     M anipulation  |                                                 |
\*---------------------------------------------------------------------------*/
FoamFile
{
    version     2.0;
    format      ascii;
    class       volScalarField;
    location    "0.015";
    object      H2;
}
// * * * * * * * * * * * * * * * * * * * * * * * * * * * * * * * * * * * * * //

dimensions      [0 0 0 0 0 0 0];

internalField   nonuniform List<scalar> 
2000
(
0.00188604
0.00188749
0.00188979
0.00189099
0.00189216
0.00189299
0.0018934
0.00189379
0.00189407
0.00189421
0.0018944
0.00189428
0.00189445
0.00189447
0.00189427
0.0018947
0.00189473
0.00189442
0.00189484
0.00189497
0.00189466
0.00189464
0.00189496
0.00189489
0.00189462
0.00189502
0.00189512
0.00189505
0.00189491
0.00189497
0.00189467
0.00189475
0.00189484
0.00189481
0.00189474
0.00189455
0.00189472
0.00189458
0.00189454
0.00189392
0.00189434
0.00189411
0.00189399
0.00189369
0.00189307
0.00189219
0.00189107
0.00188977
0.00188777
0.001886
0.00392475
0.00392725
0.00393176
0.00393403
0.00393552
0.0039379
0.00393857
0.00393943
0.0039398
0.00394008
0.00394059
0.00394027
0.00394058
0.00394078
0.00393963
0.00394101
0.00394094
0.0039399
0.00394133
0.00394152
0.00394101
0.00394101
0.0039415
0.00394143
0.00394096
0.00394162
0.00394179
0.00394166
0.00394146
0.00394167
0.00394104
0.00394115
0.00394145
0.00394124
0.00394111
0.0039408
0.00394103
0.00394093
0.00394086
0.00393898
0.00394043
0.00393991
0.00393978
0.00393886
0.0039379
0.00393626
0.00393396
0.00393147
0.00392813
0.00392458
0.00534968
0.00535193
0.00535552
0.00535791
0.00536001
0.00536172
0.00536269
0.00536344
0.00536404
0.00536436
0.00536473
0.00536467
0.00536496
0.00536503
0.00536473
0.0053654
0.00536546
0.00536502
0.00536567
0.00536582
0.0053655
0.0053655
0.00536587
0.0053658
0.00536561
0.00536597
0.00536606
0.00536596
0.0053658
0.00536587
0.00536551
0.00536558
0.00536563
0.00536557
0.00536543
0.00536518
0.00536529
0.0053651
0.00536496
0.00536403
0.00536449
0.00536408
0.00536368
0.00536298
0.00536179
0.00536018
0.00535795
0.00535546
0.00535229
0.00534959
0.00611579
0.0061178
0.00612071
0.00612314
0.00612545
0.00612702
0.0061282
0.00612897
0.0061297
0.00613006
0.00613039
0.0061305
0.00613078
0.00613082
0.00613085
0.00613123
0.00613129
0.00613114
0.00613144
0.00613157
0.00613142
0.00613142
0.00613169
0.0061316
0.00613158
0.00613176
0.00613178
0.00613171
0.00613159
0.00613162
0.0061314
0.00613145
0.00613136
0.00613134
0.0061312
0.006131
0.006131
0.00613081
0.00613061
0.00613009
0.00613009
0.00612966
0.0061291
0.00612839
0.00612707
0.00612545
0.00612318
0.00612069
0.00611792
0.00611576
0.00654122
0.00654329
0.00654607
0.00654878
0.00655139
0.00655312
0.00655457
0.00655546
0.00655634
0.00655677
0.00655715
0.00655736
0.00655766
0.00655772
0.00655788
0.00655817
0.00655822
0.00655821
0.00655837
0.00655849
0.00655845
0.00655845
0.00655867
0.00655857
0.00655861
0.00655872
0.0065587
0.00655865
0.00655854
0.00655857
0.00655841
0.00655845
0.00655828
0.00655826
0.0065581
0.00655792
0.00655784
0.00655764
0.00655739
0.00655699
0.00655676
0.00655625
0.00655552
0.00655468
0.00655315
0.00655133
0.00654881
0.00654606
0.0065433
0.0065412
0.00681032
0.00681263
0.00681564
0.00681879
0.00682182
0.00682389
0.00682565
0.00682675
0.0068278
0.00682834
0.0068288
0.0068291
0.00682944
0.00682954
0.00682977
0.00683004
0.0068301
0.00683017
0.00683027
0.00683039
0.00683041
0.00683042
0.00683061
0.00683052
0.00683058
0.00683066
0.00683063
0.00683058
0.00683047
0.00683049
0.00683036
0.00683038
0.00683017
0.00683013
0.00682995
0.00682977
0.00682962
0.0068294
0.00682909
0.0068287
0.00682831
0.00682769
0.00682678
0.00682571
0.00682389
0.00682175
0.00681881
0.00681562
0.00681261
0.00681029
0.00700208
0.00700474
0.00700811
0.0070118
0.00701532
0.00701781
0.00701994
0.00702129
0.00702252
0.00702319
0.00702376
0.00702415
0.00702454
0.00702469
0.00702498
0.00702525
0.00702533
0.00702544
0.00702554
0.00702566
0.00702573
0.00702575
0.00702592
0.00702583
0.0070259
0.00702596
0.00702592
0.00702588
0.00702577
0.00702578
0.00702566
0.00702566
0.00702543
0.00702536
0.00702516
0.00702495
0.00702475
0.0070245
0.00702411
0.00702369
0.00702316
0.0070224
0.00702129
0.00701996
0.0070178
0.00701525
0.00701181
0.00700809
0.00700469
0.00700205
0.00714958
0.0071526
0.00715642
0.00716068
0.00716473
0.00716769
0.00717022
0.00717185
0.0071733
0.00717411
0.0071748
0.00717528
0.00717573
0.00717595
0.00717628
0.00717656
0.00717667
0.00717682
0.00717692
0.00717706
0.00717715
0.00717718
0.00717734
0.00717727
0.00717733
0.00717738
0.00717734
0.0071773
0.00717719
0.00717718
0.00717707
0.00717705
0.0071768
0.0071767
0.00717647
0.00717625
0.00717599
0.00717569
0.00717524
0.00717474
0.00717408
0.00717317
0.00717184
0.00717022
0.00716767
0.00716467
0.00716067
0.00715639
0.00715254
0.00714954
0.00726813
0.00727152
0.00727581
0.00728066
0.00728528
0.00728874
0.0072917
0.00729364
0.00729531
0.00729628
0.0072971
0.00729767
0.0072982
0.00729848
0.00729886
0.00729916
0.0072993
0.00729949
0.0072996
0.00729975
0.00729986
0.0072999
0.00730005
0.00729999
0.00730005
0.00730009
0.00730005
0.00730001
0.00729991
0.00729988
0.00729976
0.00729972
0.00729946
0.00729933
0.00729907
0.00729883
0.00729851
0.00729817
0.00729763
0.00729706
0.00729625
0.00729519
0.00729361
0.00729168
0.00728871
0.00728522
0.00728064
0.00727577
0.00727145
0.00726807
0.00736591
0.00736967
0.00737447
0.00737991
0.00738513
0.00738911
0.00739253
0.0073948
0.0073967
0.00739785
0.00739881
0.00739948
0.00740008
0.00740044
0.00740085
0.00740118
0.00740136
0.00740158
0.00740171
0.00740187
0.007402
0.00740205
0.00740218
0.00740215
0.0074022
0.00740223
0.00740219
0.00740215
0.00740205
0.007402
0.00740188
0.00740182
0.00740155
0.00740139
0.0074011
0.00740083
0.00740046
0.00740006
0.00739944
0.00739877
0.00739783
0.00739659
0.00739476
0.0073925
0.00738907
0.00738507
0.00737988
0.00737442
0.0073696
0.00736583
0.00744803
0.00745217
0.00745748
0.00746353
0.00746937
0.00747389
0.00747781
0.00748042
0.00748258
0.00748391
0.00748502
0.00748579
0.00748647
0.0074869
0.00748737
0.00748771
0.00748794
0.00748818
0.00748834
0.00748851
0.00748866
0.00748871
0.00748884
0.00748883
0.00748887
0.00748889
0.00748886
0.00748882
0.00748871
0.00748864
0.00748852
0.00748843
0.00748816
0.00748797
0.00748765
0.00748735
0.00748692
0.00748646
0.00748575
0.00748499
0.00748389
0.00748248
0.00748037
0.00747777
0.00747384
0.00746931
0.00746349
0.00745743
0.00745209
0.00744795
0.00751799
0.00752293
0.00752959
0.00753695
0.00754399
0.0075494
0.00755411
0.00755717
0.00755959
0.00756114
0.0075624
0.00756329
0.00756406
0.00756456
0.00756508
0.00756545
0.00756573
0.007566
0.00756618
0.00756636
0.00756653
0.0075666
0.00756672
0.00756673
0.00756676
0.00756678
0.00756674
0.0075667
0.00756659
0.00756651
0.00756638
0.00756626
0.00756598
0.00756575
0.0075654
0.00756506
0.00756458
0.00756405
0.00756325
0.00756238
0.00756112
0.00755951
0.00755711
0.00755406
0.00754935
0.00754393
0.0075369
0.00752951
0.00752282
0.00751789
0.00757829
0.00758367
0.00759098
0.00759905
0.00760683
0.00761284
0.00761815
0.0076216
0.0076243
0.00762606
0.00762748
0.00762848
0.00762934
0.00762992
0.00763048
0.00763089
0.00763121
0.00763151
0.00763172
0.00763191
0.00763209
0.00763217
0.00763229
0.00763231
0.00763234
0.00763235
0.00763232
0.00763228
0.00763217
0.00763207
0.00763192
0.00763179
0.00763149
0.00763123
0.00763085
0.00763047
0.00762993
0.00762934
0.00762844
0.00762746
0.00762604
0.00762423
0.00762153
0.0076181
0.00761279
0.00760676
0.00759898
0.00759089
0.00758355
0.00757817
0.0076315
0.00763737
0.00764532
0.00765392
0.00766212
0.00766871
0.00767467
0.00767852
0.00768152
0.0076835
0.00768509
0.00768621
0.00768715
0.00768781
0.00768843
0.00768887
0.00768924
0.00768956
0.0076898
0.00769001
0.0076902
0.0076903
0.00769041
0.00769045
0.00769048
0.00769048
0.00769045
0.0076904
0.00769029
0.00769017
0.00769002
0.00768986
0.00768954
0.00768926
0.00768884
0.00768842
0.00768782
0.00768716
0.00768617
0.00768507
0.00768348
0.00768146
0.00767845
0.00767462
0.00766865
0.00766203
0.00765386
0.00764523
0.00763724
0.00763138
0.00767962
0.00768607
0.00769485
0.00770427
0.00771331
0.00772057
0.00772727
0.00773156
0.00773488
0.0077371
0.00773886
0.00774011
0.00774115
0.00774189
0.00774257
0.00774305
0.00774347
0.00774382
0.00774409
0.00774431
0.00774452
0.00774463
0.00774474
0.00774479
0.00774482
0.00774482
0.00774479
0.00774474
0.00774462
0.00774449
0.00774432
0.00774414
0.0077438
0.00774349
0.00774303
0.00774256
0.0077419
0.00774115
0.00774007
0.00773884
0.00773708
0.00773482
0.00773149
0.00772722
0.00772051
0.00771321
0.00770419
0.00769475
0.00768594
0.00767949
0.00772251
0.00772957
0.00773925
0.00774951
0.00775944
0.00776739
0.00777295
0.00777766
0.00778131
0.00778378
0.00778572
0.00778709
0.00778822
0.00778905
0.00778978
0.00779031
0.00779077
0.00779115
0.00779145
0.00779169
0.00779191
0.00779203
0.00779215
0.00779221
0.00779224
0.00779224
0.0077922
0.00779215
0.00779202
0.00779188
0.0077917
0.00779149
0.00779114
0.00779079
0.00779029
0.00778978
0.00778906
0.00778823
0.00778706
0.0077857
0.00778375
0.00778126
0.00777759
0.00777289
0.00776732
0.00775933
0.00774942
0.00773914
0.00772942
0.00772236
0.00775956
0.00776722
0.00777778
0.00778887
0.0077997
0.00780835
0.00781475
0.00781971
0.0078237
0.00782642
0.00782855
0.00783006
0.00783126
0.00783218
0.00783297
0.00783355
0.00783405
0.00783446
0.00783479
0.00783505
0.00783528
0.00783542
0.00783554
0.00783561
0.00783564
0.00783564
0.0078356
0.00783554
0.00783541
0.00783526
0.00783506
0.00783482
0.00783445
0.00783407
0.00783353
0.00783297
0.00783218
0.00783127
0.00783003
0.00782852
0.00782639
0.00782365
0.00781964
0.00781468
0.00780827
0.00779958
0.00778877
0.00777766
0.00776707
0.00775941
0.00779299
0.0078013
0.00781279
0.00782473
0.00783651
0.00784587
0.00785294
0.00785844
0.00786305
0.00786616
0.00786861
0.00787031
0.00787165
0.0078727
0.00787359
0.00787424
0.00787482
0.00787528
0.00787566
0.00787595
0.00787621
0.00787638
0.0078765
0.00787658
0.00787662
0.00787662
0.00787657
0.0078765
0.00787636
0.00787619
0.00787595
0.00787568
0.00787527
0.00787483
0.00787423
0.00787359
0.0078727
0.00787166
0.00787029
0.00786858
0.00786613
0.007863
0.00785836
0.00785287
0.00784579
0.00783638
0.00782462
0.00781266
0.00780113
0.00779283
0.00782363
0.00783264
0.0078453
0.0078584
0.00787147
0.00788177
0.00788966
0.00789572
0.00790074
0.00790415
0.00790683
0.0079087
0.0079101
0.00791124
0.00791221
0.00791291
0.00791354
0.00791404
0.00791445
0.00791476
0.00791505
0.00791523
0.00791536
0.00791545
0.0079155
0.00791549
0.00791544
0.00791537
0.00791521
0.00791503
0.00791477
0.00791448
0.00791403
0.00791356
0.00791291
0.00791221
0.00791124
0.0079101
0.00790869
0.0079068
0.00790412
0.0079007
0.00789564
0.00788959
0.00788168
0.00787135
0.00785827
0.00784514
0.00783246
0.00782344
0.00785237
0.0078622
0.00787599
0.00789007
0.00790428
0.00791538
0.007924
0.00793057
0.00793603
0.00793974
0.00794267
0.00794472
0.00794615
0.0079474
0.00794844
0.00794921
0.00794989
0.00795042
0.00795088
0.00795121
0.00795151
0.00795171
0.00795185
0.00795195
0.007952
0.00795199
0.00795194
0.00795186
0.0079517
0.0079515
0.00795122
0.00795089
0.00795042
0.00794991
0.00794921
0.00794844
0.0079474
0.00794615
0.00794473
0.00794264
0.00793971
0.00793599
0.00793049
0.00792393
0.00791528
0.00790415
0.00788993
0.00787582
0.007862
0.00785217
0.00787773
0.00788836
0.00790328
0.00791952
0.00793367
0.00794558
0.00795493
0.007962
0.00796791
0.00797193
0.00797511
0.00797738
0.00797879
0.00798014
0.00798126
0.00798209
0.00798282
0.00798339
0.00798388
0.00798424
0.00798456
0.00798477
0.00798492
0.00798503
0.00798508
0.00798507
0.00798502
0.00798493
0.00798476
0.00798455
0.00798425
0.00798389
0.00798339
0.00798284
0.00798209
0.00798126
0.00798014
0.00797878
0.00797738
0.00797508
0.00797189
0.00796786
0.00796192
0.00795485
0.00794547
0.00793357
0.00791937
0.0079031
0.00788815
0.00787752
0.00790128
0.00791253
0.00792858
0.00794591
0.00796117
0.00797389
0.007984
0.00799159
0.00799797
0.0080023
0.00800575
0.00800832
0.00801073
0.00801223
0.00801344
0.00801435
0.00801516
0.00801577
0.00801631
0.0080167
0.00801704
0.00801728
0.00801744
0.00801755
0.00801761
0.00801761
0.00801755
0.00801745
0.00801727
0.00801704
0.00801671
0.00801632
0.00801578
0.00801517
0.00801436
0.00801345
0.00801223
0.00801073
0.00800827
0.00800573
0.00800226
0.00799792
0.00799151
0.00798392
0.00797379
0.00796107
0.00794575
0.00792838
0.0079123
0.00790104
0.00792352
0.00793572
0.00795307
0.00797159
0.00798775
0.0080011
0.00801173
0.00801969
0.00802649
0.00803112
0.00803481
0.00803763
0.00804007
0.00804168
0.00804298
0.00804396
0.00804482
0.00804547
0.00804604
0.00804646
0.00804683
0.00804708
0.00804726
0.00804737
0.00804744
0.00804743
0.00804737
0.00804726
0.00804707
0.00804682
0.00804647
0.00804606
0.00804548
0.00804483
0.00804396
0.00804298
0.00804168
0.00804006
0.00803756
0.00803479
0.00803107
0.00802644
0.00801961
0.00801164
0.00800098
0.00798765
0.00797143
0.00795286
0.00793548
0.00792327
0.00794405
0.00795726
0.00797598
0.00799577
0.00801311
0.00802737
0.00803881
0.00804731
0.00805351
0.00805846
0.00806244
0.00806548
0.00806799
0.00806979
0.00807132
0.00807247
0.00807346
0.00807421
0.00807486
0.00807534
0.00807575
0.00807603
0.00807624
0.00807637
0.00807644
0.00807643
0.00807636
0.00807624
0.00807603
0.00807575
0.00807535
0.00807488
0.00807422
0.00807347
0.00807247
0.00807132
0.00806979
0.00806798
0.00806542
0.00806242
0.00805841
0.00805345
0.00804722
0.00803872
0.00802725
0.008013
0.00799559
0.00797576
0.007957
0.00794378
0.00796301
0.0079773
0.00799744
0.00801856
0.00803711
0.00805232
0.00806354
0.00807257
0.00807953
0.0080852
0.00808966
0.00809304
0.00809573
0.00809769
0.00809931
0.00810055
0.00810161
0.00810242
0.00810311
0.00810362
0.00810406
0.00810436
0.00810458
0.00810472
0.0081048
0.00810479
0.00810472
0.00810459
0.00810436
0.00810406
0.00810364
0.00810313
0.00810243
0.00810163
0.00810056
0.00809932
0.00809768
0.00809571
0.008093
0.00808964
0.00808514
0.00807947
0.00807249
0.00806345
0.00805219
0.00803699
0.00801838
0.00799721
0.00797702
0.00796272
0.00798054
0.00799595
0.00801759
0.0080401
0.00805988
0.0080751
0.00808755
0.00809756
0.0081051
0.00811116
0.00811593
0.00811954
0.00812236
0.00812446
0.0081262
0.00812753
0.00812866
0.00812952
0.00813026
0.00813081
0.00813128
0.0081316
0.00813183
0.00813198
0.00813206
0.00813206
0.00813198
0.00813184
0.0081316
0.00813128
0.00813083
0.00813028
0.00812954
0.00812867
0.00812753
0.0081262
0.00812446
0.00812234
0.00811951
0.00811592
0.0081111
0.00810503
0.00809746
0.00808745
0.00807497
0.00805975
0.0080399
0.00801734
0.00799566
0.00798023
0.00799672
0.00801334
0.00803652
0.00806048
0.00808064
0.00809751
0.00811094
0.00812156
0.00812961
0.00813608
0.00814117
0.008145
0.00814797
0.00815022
0.00815207
0.00815349
0.0081547
0.00815562
0.00815641
0.008157
0.00815749
0.00815784
0.00815809
0.00815825
0.00815833
0.00815833
0.00815825
0.0081581
0.00815784
0.0081575
0.00815702
0.00815643
0.00815564
0.00815472
0.0081535
0.00815207
0.00815021
0.00814795
0.00814497
0.00814115
0.00813601
0.00812954
0.00812146
0.00811083
0.00809736
0.00808049
0.00806027
0.00803626
0.00801303
0.00799639
0.00801166
0.00802954
0.00805432
0.008079
0.00810106
0.00811906
0.00813334
0.00814458
0.00815315
0.00816004
0.00816545
0.0081695
0.00817264
0.00817504
0.00817701
0.00817854
0.00817982
0.00818081
0.00818165
0.00818228
0.0081828
0.00818317
0.00818344
0.00818361
0.0081837
0.0081837
0.00818361
0.00818345
0.00818317
0.00818281
0.0081823
0.00818167
0.00818083
0.00817984
0.00817855
0.00817702
0.00817504
0.00817262
0.00816948
0.00816542
0.00815996
0.00815308
0.00814448
0.00813322
0.0081189
0.00810089
0.00807878
0.00805404
0.00802921
0.0080113
0.00802542
0.00804464
0.00807107
0.00809698
0.0081206
0.00813967
0.00815481
0.00816669
0.00817579
0.0081831
0.00818884
0.00819313
0.00819644
0.00819901
0.0082011
0.00820273
0.00820409
0.00820515
0.00820604
0.00820671
0.00820727
0.00820766
0.00820795
0.00820813
0.00820822
0.00820822
0.00820813
0.00820796
0.00820767
0.00820728
0.00820674
0.00820607
0.00820517
0.00820411
0.00820274
0.0082011
0.00819901
0.00819642
0.0081931
0.00818881
0.00818302
0.00817572
0.00816659
0.00815468
0.0081395
0.00812041
0.00809674
0.00807078
0.0080443
0.00802504
0.00803806
0.00805871
0.0080862
0.00811426
0.00813923
0.00815939
0.00817541
0.00818795
0.00819758
0.00820534
0.00821141
0.00821593
0.00821943
0.00822217
0.00822438
0.00822613
0.00822758
0.0082287
0.00822965
0.00823037
0.00823096
0.00823137
0.00823168
0.00823187
0.00823197
0.00823197
0.00823187
0.00823169
0.00823138
0.00823097
0.00823039
0.00822968
0.00822873
0.0082276
0.00822614
0.0082244
0.00822217
0.00821942
0.00821591
0.00821138
0.00820526
0.00819751
0.00818784
0.00817528
0.00815922
0.00813903
0.008114
0.0080859
0.00805835
0.00803766
0.00804966
0.00807179
0.00810087
0.00813066
0.00815701
0.00817829
0.0081952
0.00820841
0.00821858
0.00822679
0.0082332
0.00823797
0.00824167
0.00824457
0.00824692
0.00824877
0.00825032
0.00825152
0.00825253
0.00825329
0.00825391
0.00825436
0.00825468
0.00825488
0.00825499
0.00825499
0.00825489
0.00825469
0.00825436
0.00825393
0.00825331
0.00825255
0.00825154
0.00825034
0.00824879
0.00824694
0.00824458
0.00824165
0.00823794
0.00823316
0.00822671
0.00821851
0.0082083
0.00819506
0.00817811
0.00815679
0.00813039
0.00810054
0.00807142
0.00804924
0.00806026
0.00808346
0.00811473
0.00814621
0.00817397
0.00819641
0.00821421
0.00822811
0.00823884
0.00824751
0.00825425
0.00825928
0.00826318
0.00826626
0.00826875
0.00827072
0.00827236
0.00827363
0.0082747
0.00827552
0.00827618
0.00827665
0.00827699
0.00827721
0.00827732
0.00827732
0.00827721
0.00827701
0.00827666
0.00827619
0.00827554
0.00827473
0.00827366
0.00827238
0.00827074
0.00826877
0.00826627
0.00826316
0.00825925
0.00825422
0.00824742
0.00823876
0.00822799
0.00821407
0.00819622
0.00817375
0.00814593
0.00811439
0.00808308
0.00805982
0.0080699
0.00809435
0.00812775
0.00816097
0.00819017
0.00821377
0.0082325
0.00824709
0.00825837
0.00826752
0.00827461
0.00827989
0.00828401
0.00828727
0.00828991
0.00829199
0.00829373
0.00829509
0.00829622
0.00829709
0.00829779
0.00829828
0.00829865
0.00829888
0.008299
0.008299
0.00829888
0.00829866
0.0082983
0.0082978
0.00829711
0.00829625
0.00829512
0.00829376
0.00829201
0.00828992
0.00828728
0.00828399
0.00827987
0.00827457
0.00826742
0.00825829
0.00824696
0.00823234
0.00821358
0.00818993
0.00816066
0.00812739
0.00809391
0.00806943
0.00807861
0.00810462
0.00813995
0.00817495
0.00820562
0.00823042
0.00825008
0.00826537
0.00827722
0.00828685
0.0082943
0.00829985
0.00830418
0.00830763
0.00831042
0.00831262
0.00831446
0.0083159
0.00831711
0.00831803
0.00831877
0.00831929
0.00831968
0.00831992
0.00832005
0.00832005
0.00831993
0.00831969
0.00831931
0.00831878
0.00831805
0.00831714
0.00831594
0.00831449
0.00831265
0.00831043
0.00830764
0.00830416
0.00829982
0.00829426
0.00828675
0.00827713
0.00826524
0.00824992
0.00823022
0.00820537
0.00817463
0.00813957
0.00810417
0.00807813
0.00808614
0.00811403
0.00815136
0.00818819
0.00822037
0.00824639
0.00826698
0.00828299
0.00829541
0.00830554
0.00831335
0.00831916
0.00832372
0.00832736
0.0083303
0.00833264
0.00833458
0.00833611
0.00833738
0.00833836
0.00833914
0.0083397
0.00834011
0.00834037
0.0083405
0.0083405
0.00834037
0.00834012
0.00833971
0.00833916
0.00833839
0.00833742
0.00833615
0.00833462
0.00833266
0.00833031
0.00832736
0.0083237
0.00831914
0.00831331
0.00830544
0.00829532
0.00828286
0.00826681
0.00824617
0.00822011
0.00818786
0.00815096
0.00811357
0.00808564
0.00809283
0.00812262
0.00816201
0.00820072
0.00823444
0.00826169
0.00828323
0.00829996
0.00831295
0.0083236
0.00833177
0.00833786
0.00834264
0.00834647
0.00834958
0.00835205
0.0083541
0.00835573
0.00835707
0.0083581
0.00835893
0.00835952
0.00835996
0.00836023
0.00836037
0.00836037
0.00836023
0.00835997
0.00835954
0.00835895
0.00835814
0.0083571
0.00835576
0.00835414
0.00835208
0.00834959
0.00834648
0.00834263
0.00833783
0.00833173
0.00832349
0.00831286
0.00829983
0.00828306
0.00826146
0.00823416
0.00820037
0.00816159
0.00812214
0.00809229
0.0080989
0.0081304
0.00817192
0.00821255
0.00824784
0.00827634
0.00829885
0.0083163
0.00832986
0.00834105
0.00834959
0.00835595
0.00836097
0.00836499
0.00836826
0.00837088
0.00837304
0.00837476
0.00837618
0.00837728
0.00837815
0.00837878
0.00837924
0.00837953
0.00837967
0.00837967
0.00837953
0.00837925
0.0083788
0.00837817
0.00837731
0.00837622
0.0083748
0.00837309
0.00837091
0.00836828
0.008365
0.00836096
0.00835592
0.00834955
0.00834094
0.00832977
0.00831617
0.00829867
0.00827611
0.00824756
0.00821219
0.00817149
0.00812991
0.00809833
0.00810414
0.0081374
0.00818112
0.00822372
0.00826061
0.00829037
0.00831385
0.00833204
0.00834616
0.0083579
0.00836681
0.00837345
0.00837871
0.00838293
0.00838637
0.00838913
0.00839141
0.00839324
0.00839474
0.0083959
0.00839682
0.00839748
0.00839797
0.00839827
0.00839842
0.00839842
0.00839827
0.00839798
0.0083975
0.00839684
0.00839593
0.00839478
0.00839328
0.00839146
0.00838917
0.0083864
0.00838294
0.0083787
0.00837343
0.00836677
0.00835779
0.00834606
0.00833189
0.00831366
0.00829013
0.0082603
0.00822334
0.00818067
0.00813684
0.00810355
0.00810859
0.00814344
0.00818963
0.00823422
0.00827274
0.00830379
0.00832824
0.00834717
0.00836185
0.00837418
0.00838346
0.00839037
0.00839587
0.0084003
0.00840392
0.00840682
0.00840923
0.00841116
0.00841274
0.00841397
0.00841494
0.00841564
0.00841615
0.00841647
0.00841663
0.00841663
0.00841647
0.00841616
0.00841565
0.00841496
0.008414
0.00841278
0.0084112
0.00840928
0.00840686
0.00840394
0.00840031
0.00839587
0.00839035
0.00838341
0.00837407
0.00836175
0.00834702
0.00832805
0.00830354
0.00827243
0.00823383
0.00818916
0.00814286
0.00810797
0.00811226
0.00814898
0.00819745
0.0082441
0.00828427
0.00831661
0.00834205
0.00836171
0.00837695
0.00838989
0.00839953
0.00840673
0.00841246
0.0084171
0.0084209
0.00842396
0.00842649
0.00842853
0.0084302
0.00843149
0.00843252
0.00843326
0.0084338
0.00843413
0.0084343
0.00843431
0.00843414
0.00843381
0.00843327
0.00843254
0.00843153
0.00843024
0.00842858
0.00842655
0.00842401
0.00842093
0.00841711
0.00841246
0.00840671
0.00839948
0.00838978
0.00837685
0.00836156
0.00834185
0.00831635
0.00828394
0.00824369
0.00819697
0.00814839
0.00811162
)
;

boundaryField
{
    fuel
    {
        type            fixedValue;
        value           uniform 0;
    }
    wall
    {
        type            zeroGradient;
    }
    outlet
    {
        type            zeroGradient;
    }
    frontAndBack
    {
        type            empty;
    }
    procBoundary1to0
    {
        type            processor;
        value           nonuniform List<scalar> 
50
(
0.00811521
0.00815387
0.00820465
0.00825337
0.00829521
0.00832886
0.00835528
0.00837567
0.00839145
0.00840505
0.00841504
0.00842251
0.00842849
0.00843334
0.00843733
0.00844055
0.0084432
0.00844537
0.00844712
0.00844849
0.00844956
0.00845034
0.00845091
0.00845126
0.00845144
0.00845145
0.00845127
0.00845092
0.00845036
0.00844959
0.00844853
0.00844716
0.00844541
0.00844326
0.0084406
0.00843736
0.00843336
0.00842849
0.00842249
0.00841499
0.00840493
0.00839135
0.00837552
0.00835507
0.00832859
0.00829487
0.00825295
0.00820415
0.00815326
0.00811455
)
;
    }
}


// ************************************************************************* //
