/*--------------------------------*- C++ -*----------------------------------*\
| =========                 |                                                 |
| \\      /  F ield         | OpenFOAM: The Open Source CFD Toolbox           |
|  \\    /   O peration     | Version:  dev                                   |
|   \\  /    A nd           | Web:      www.OpenFOAM.org                      |
|    \\/     M anipulation  |                                                 |
\*---------------------------------------------------------------------------*/
FoamFile
{
    version     2.0;
    format      ascii;
    class       volScalarField;
    location    "0.015";
    object      i-C6H7;
}
// * * * * * * * * * * * * * * * * * * * * * * * * * * * * * * * * * * * * * //

dimensions      [0 0 0 0 0 0 0];

internalField   nonuniform List<scalar> 
2000
(
5.77898e-09
5.78366e-09
5.8061e-09
5.81291e-09
5.81233e-09
5.83328e-09
5.8219e-09
5.83607e-09
5.82325e-09
5.82492e-09
5.83714e-09
5.82492e-09
5.82521e-09
5.83802e-09
5.82032e-09
5.82616e-09
5.84669e-09
5.8212e-09
5.82857e-09
5.82892e-09
5.82667e-09
5.82716e-09
5.8277e-09
5.82855e-09
5.83332e-09
5.82818e-09
5.82909e-09
5.82866e-09
5.82876e-09
5.83959e-09
5.82709e-09
5.83004e-09
5.83968e-09
5.82754e-09
5.82763e-09
5.82642e-09
5.82729e-09
5.83761e-09
5.8382e-09
5.81898e-09
5.83727e-09
5.82515e-09
5.83712e-09
5.8424e-09
5.82276e-09
5.81684e-09
5.83201e-09
5.8202e-09
5.79279e-09
5.76339e-09
2.93109e-08
2.93176e-08
2.94114e-08
2.94364e-08
2.94243e-08
2.95291e-08
2.94679e-08
2.95385e-08
2.94714e-08
2.94787e-08
2.95409e-08
2.94789e-08
2.94793e-08
2.95453e-08
2.94541e-08
2.94826e-08
2.95887e-08
2.94575e-08
2.94922e-08
2.94929e-08
2.94858e-08
2.94882e-08
2.94886e-08
2.94922e-08
2.95239e-08
2.94904e-08
2.94931e-08
2.94916e-08
2.94929e-08
2.95506e-08
2.94876e-08
2.9504e-08
2.95509e-08
2.94878e-08
2.94884e-08
2.94839e-08
2.94862e-08
2.95423e-08
2.9545e-08
2.94493e-08
2.95416e-08
2.94787e-08
2.95418e-08
2.95719e-08
2.9472e-08
2.94491e-08
2.95357e-08
2.94853e-08
2.93622e-08
2.92299e-08
1.81557e-08
1.81242e-08
1.81056e-08
1.80861e-08
1.80553e-08
1.80777e-08
1.80488e-08
1.80666e-08
1.80379e-08
1.80373e-08
1.80558e-08
1.80363e-08
1.80331e-08
1.8056e-08
1.80252e-08
1.80296e-08
1.80639e-08
1.80234e-08
1.80292e-08
1.80275e-08
1.80309e-08
1.80316e-08
1.80258e-08
1.80282e-08
1.80437e-08
1.80245e-08
1.80242e-08
1.80254e-08
1.80281e-08
1.80469e-08
1.80308e-08
1.80348e-08
1.80504e-08
1.80287e-08
1.80305e-08
1.80329e-08
1.80308e-08
1.80533e-08
1.80545e-08
1.80304e-08
1.80574e-08
1.80394e-08
1.80633e-08
1.80782e-08
1.80561e-08
1.80662e-08
1.81187e-08
1.8131e-08
1.81353e-08
1.81287e-08
7.29837e-09
7.28607e-09
7.27792e-09
7.26895e-09
7.25428e-09
7.26233e-09
7.25017e-09
7.25662e-09
7.24481e-09
7.24446e-09
7.2512e-09
7.24393e-09
7.24228e-09
7.25124e-09
7.23907e-09
7.24061e-09
7.25326e-09
7.23817e-09
7.24016e-09
7.23937e-09
7.2411e-09
7.24137e-09
7.23866e-09
7.23973e-09
7.24511e-09
7.23807e-09
7.23785e-09
7.23841e-09
7.23967e-09
7.2469e-09
7.24114e-09
7.24256e-09
7.24855e-09
7.2401e-09
7.24093e-09
7.24208e-09
7.24115e-09
7.25001e-09
7.25063e-09
7.24159e-09
7.25209e-09
7.24533e-09
7.25507e-09
7.26061e-09
7.25385e-09
7.25887e-09
7.28103e-09
7.28734e-09
7.29049e-09
7.28804e-09
2.90952e-09
2.90647e-09
2.90535e-09
2.90256e-09
2.89641e-09
2.9e-09
2.89491e-09
2.89763e-09
2.89268e-09
2.89267e-09
2.89528e-09
2.89244e-09
2.89171e-09
2.8954e-09
2.89037e-09
2.89109e-09
2.89605e-09
2.89006e-09
2.89093e-09
2.89063e-09
2.89133e-09
2.89147e-09
2.89034e-09
2.89081e-09
2.89269e-09
2.89012e-09
2.89002e-09
2.89023e-09
2.89079e-09
2.89369e-09
2.89141e-09
2.89199e-09
2.89438e-09
2.89091e-09
2.89125e-09
2.89166e-09
2.89132e-09
2.89483e-09
2.89515e-09
2.89135e-09
2.89573e-09
2.89292e-09
2.897e-09
2.89894e-09
2.89658e-09
2.89835e-09
2.90729e-09
2.90901e-09
2.90838e-09
2.90537e-09
1.18208e-09
1.18175e-09
1.18243e-09
1.18174e-09
1.17916e-09
1.18081e-09
1.17865e-09
1.17983e-09
1.17771e-09
1.17776e-09
1.1788e-09
1.17767e-09
1.17735e-09
1.17891e-09
1.17679e-09
1.17713e-09
1.17913e-09
1.17669e-09
1.17708e-09
1.17697e-09
1.17725e-09
1.17732e-09
1.17684e-09
1.17706e-09
1.17773e-09
1.17677e-09
1.17672e-09
1.17681e-09
1.17705e-09
1.17824e-09
1.17731e-09
1.17755e-09
1.17853e-09
1.17707e-09
1.17721e-09
1.17735e-09
1.17722e-09
1.17863e-09
1.1788e-09
1.17716e-09
1.17903e-09
1.17782e-09
1.17957e-09
1.18025e-09
1.1794e-09
1.17999e-09
1.18364e-09
1.1839e-09
1.18259e-09
1.18037e-09
4.87382e-10
4.87646e-10
4.88448e-10
4.88365e-10
4.87279e-10
4.8803e-10
4.871e-10
4.87617e-10
4.86696e-10
4.86745e-10
4.8716e-10
4.86707e-10
4.86561e-10
4.87229e-10
4.86328e-10
4.86486e-10
4.87304e-10
4.86304e-10
4.86477e-10
4.86435e-10
4.86547e-10
4.86585e-10
4.86379e-10
4.86478e-10
4.86719e-10
4.86352e-10
4.86333e-10
4.86367e-10
4.86477e-10
4.86964e-10
4.86587e-10
4.86683e-10
4.87094e-10
4.86467e-10
4.86532e-10
4.86572e-10
4.86527e-10
4.871e-10
4.87182e-10
4.86468e-10
4.87273e-10
4.86754e-10
4.87513e-10
4.87746e-10
4.87448e-10
4.87632e-10
4.89142e-10
4.89047e-10
4.88018e-10
4.86672e-10
2.02987e-10
2.03267e-10
2.03832e-10
2.03885e-10
2.03425e-10
2.03765e-10
2.03361e-10
2.03586e-10
2.03183e-10
2.03213e-10
2.03379e-10
2.03196e-10
2.0313e-10
2.03418e-10
2.03033e-10
2.03106e-10
2.03444e-10
2.0303e-10
2.03106e-10
2.03091e-10
2.03136e-10
2.03155e-10
2.03066e-10
2.03112e-10
2.03198e-10
2.03057e-10
2.03049e-10
2.03062e-10
2.03112e-10
2.03313e-10
2.03158e-10
2.03197e-10
2.03371e-10
2.03101e-10
2.03129e-10
2.0314e-10
2.03124e-10
2.03358e-10
2.03398e-10
2.03087e-10
2.03435e-10
2.03211e-10
2.03543e-10
2.03625e-10
2.03522e-10
2.03577e-10
2.04206e-10
2.04079e-10
2.0343e-10
2.0269e-10
8.49231e-11
8.51064e-11
8.54386e-11
8.54965e-11
8.53009e-11
8.54513e-11
8.5275e-11
8.53708e-11
8.51938e-11
8.52093e-11
8.52749e-11
8.52007e-11
8.51707e-11
8.52942e-11
8.513e-11
8.51633e-11
8.53035e-11
8.51309e-11
8.51649e-11
8.51594e-11
8.51775e-11
8.51863e-11
8.5148e-11
8.51691e-11
8.52002e-11
8.51453e-11
8.51422e-11
8.51474e-11
8.51693e-11
8.52525e-11
8.51893e-11
8.52052e-11
8.5278e-11
8.51622e-11
8.51747e-11
8.51768e-11
8.51715e-11
8.52668e-11
8.52861e-11
8.51511e-11
8.53025e-11
8.52073e-11
8.5353e-11
8.53836e-11
8.53504e-11
8.5366e-11
8.56299e-11
8.55416e-11
8.51777e-11
8.47977e-11
3.62422e-11
3.63526e-11
3.65425e-11
3.65881e-11
3.65082e-11
3.6577e-11
3.65008e-11
3.65416e-11
3.64628e-11
3.64704e-11
3.64958e-11
3.64657e-11
3.64519e-11
3.65052e-11
3.64345e-11
3.64498e-11
3.65083e-11
3.64359e-11
3.64512e-11
3.64492e-11
3.64565e-11
3.64607e-11
3.6444e-11
3.64536e-11
3.64644e-11
3.64431e-11
3.64419e-11
3.6444e-11
3.64539e-11
3.64883e-11
3.64625e-11
3.64687e-11
3.64998e-11
3.64498e-11
3.64554e-11
3.64553e-11
3.64536e-11
3.64926e-11
3.6502e-11
3.64432e-11
3.65096e-11
3.64692e-11
3.65341e-11
3.65455e-11
3.65348e-11
3.65365e-11
3.6644e-11
3.65855e-11
3.63837e-11
3.61891e-11
1.58804e-11
1.59529e-11
1.60751e-11
1.612e-11
1.60981e-11
1.61366e-11
1.61077e-11
1.61263e-11
1.60903e-11
1.60939e-11
1.61035e-11
1.60912e-11
1.60847e-11
1.61079e-11
1.60771e-11
1.60842e-11
1.61088e-11
1.60782e-11
1.60851e-11
1.60845e-11
1.60874e-11
1.60894e-11
1.6082e-11
1.60864e-11
1.60898e-11
1.60817e-11
1.60813e-11
1.60821e-11
1.60867e-11
1.6101e-11
1.60905e-11
1.60927e-11
1.61062e-11
1.60844e-11
1.6087e-11
1.60864e-11
1.60861e-11
1.6102e-11
1.61068e-11
1.60809e-11
1.61105e-11
1.60934e-11
1.61231e-11
1.61262e-11
1.61187e-11
1.61105e-11
1.61432e-11
1.60927e-11
1.5966e-11
1.58578e-11
7.234e-12
7.24975e-12
7.27197e-12
7.2599e-12
7.22369e-12
7.22407e-12
7.19927e-12
7.2034e-12
7.18757e-12
7.18899e-12
7.1924e-12
7.18745e-12
7.1845e-12
7.19418e-12
7.18116e-12
7.18431e-12
7.19434e-12
7.18169e-12
7.18471e-12
7.18449e-12
7.18562e-12
7.18655e-12
7.18332e-12
7.18524e-12
7.18628e-12
7.18322e-12
7.18309e-12
7.18343e-12
7.18542e-12
7.19125e-12
7.18704e-12
7.18777e-12
7.19354e-12
7.18443e-12
7.18558e-12
7.1852e-12
7.1852e-12
7.19162e-12
7.19388e-12
7.18299e-12
7.19579e-12
7.18897e-12
7.20213e-12
7.20692e-12
7.21694e-12
7.22907e-12
7.26996e-12
7.27993e-12
7.25669e-12
7.22435e-12
3.49811e-12
3.5082e-12
3.52157e-12
3.51574e-12
3.49609e-12
3.49523e-12
3.48245e-12
3.48362e-12
3.47605e-12
3.4766e-12
3.47762e-12
3.4756e-12
3.47413e-12
3.47835e-12
3.47261e-12
3.47407e-12
3.47828e-12
3.4729e-12
3.47428e-12
3.47421e-12
3.47463e-12
3.47509e-12
3.47361e-12
3.47449e-12
3.47469e-12
3.47357e-12
3.47355e-12
3.47368e-12
3.47462e-12
3.47704e-12
3.47534e-12
3.47551e-12
3.47812e-12
3.47414e-12
3.47471e-12
3.47444e-12
3.47455e-12
3.47714e-12
3.47836e-12
3.47358e-12
3.47946e-12
3.47673e-12
3.4831e-12
3.48561e-12
3.49223e-12
3.49839e-12
3.52005e-12
3.52493e-12
3.51135e-12
3.494e-12
1.83197e-12
1.83813e-12
1.8474e-12
1.84806e-12
1.84324e-12
1.8428e-12
1.83449e-12
1.83445e-12
1.83059e-12
1.83076e-12
1.8309e-12
1.83007e-12
1.8293e-12
1.83116e-12
1.82857e-12
1.82926e-12
1.83103e-12
1.82872e-12
1.82936e-12
1.82934e-12
1.82948e-12
1.82972e-12
1.82901e-12
1.82942e-12
1.82939e-12
1.829e-12
1.82901e-12
1.82906e-12
1.82952e-12
1.83053e-12
1.82985e-12
1.82983e-12
1.83105e-12
1.82929e-12
1.82959e-12
1.82941e-12
1.82954e-12
1.83057e-12
1.83127e-12
1.82915e-12
1.83197e-12
1.83095e-12
1.83425e-12
1.83581e-12
1.84154e-12
1.84446e-12
1.84971e-12
1.84876e-12
1.83944e-12
1.83016e-12
1.05651e-12
1.06012e-12
1.06526e-12
1.06564e-12
1.06276e-12
1.06194e-12
1.0538e-12
1.05325e-12
1.05123e-12
1.05121e-12
1.05108e-12
1.05074e-12
1.05034e-12
1.05113e-12
1.04998e-12
1.05029e-12
1.05101e-12
1.05003e-12
1.05032e-12
1.0503e-12
1.05033e-12
1.05045e-12
1.05012e-12
1.0503e-12
1.05024e-12
1.05012e-12
1.05013e-12
1.05015e-12
1.05037e-12
1.05079e-12
1.05052e-12
1.05047e-12
1.05104e-12
1.05029e-12
1.05046e-12
1.05035e-12
1.05045e-12
1.05085e-12
1.05126e-12
1.05036e-12
1.05171e-12
1.05141e-12
1.05319e-12
1.05434e-12
1.06143e-12
1.06332e-12
1.06631e-12
1.06581e-12
1.0607e-12
1.05575e-12
6.84083e-13
6.86325e-13
6.89304e-13
6.89519e-13
6.87546e-13
6.86639e-13
6.89528e-13
6.88713e-13
6.87515e-13
6.8744e-13
6.87237e-13
6.87104e-13
6.86883e-13
6.87243e-13
6.86696e-13
6.86855e-13
6.87155e-13
6.86732e-13
6.86869e-13
6.8686e-13
6.86849e-13
6.86918e-13
6.86751e-13
6.86837e-13
6.86787e-13
6.86752e-13
6.86766e-13
6.86773e-13
6.86887e-13
6.87063e-13
6.86954e-13
6.86899e-13
6.87189e-13
6.86849e-13
6.86949e-13
6.86869e-13
6.86951e-13
6.87091e-13
6.87344e-13
6.86931e-13
6.87653e-13
6.87619e-13
6.88711e-13
6.89759e-13
6.8644e-13
6.8781e-13
6.89797e-13
6.89532e-13
6.86583e-13
6.83768e-13
4.96877e-13
4.98517e-13
5.00555e-13
5.00796e-13
4.99234e-13
4.98331e-13
4.99034e-13
4.98851e-13
4.9811e-13
4.98043e-13
4.97865e-13
4.97839e-13
4.9774e-13
4.97922e-13
4.97658e-13
4.97751e-13
4.97885e-13
4.97706e-13
4.97778e-13
4.97777e-13
4.97758e-13
4.97804e-13
4.97712e-13
4.97758e-13
4.97724e-13
4.97718e-13
4.97728e-13
4.9773e-13
4.97792e-13
4.97864e-13
4.97817e-13
4.97766e-13
4.97918e-13
4.97752e-13
4.97808e-13
4.97741e-13
4.97793e-13
4.97821e-13
4.97954e-13
4.97741e-13
4.98136e-13
4.98175e-13
4.98865e-13
4.99155e-13
4.98257e-13
4.99375e-13
5.00915e-13
5.0065e-13
4.98638e-13
4.96742e-13
3.90039e-13
3.91333e-13
3.92867e-13
3.93214e-13
3.9186e-13
3.91007e-13
3.91113e-13
3.90639e-13
3.8956e-13
3.89215e-13
3.88818e-13
3.88713e-13
3.88576e-13
3.88595e-13
3.8839e-13
3.88414e-13
3.88413e-13
3.88301e-13
3.88301e-13
3.88283e-13
3.88231e-13
3.88239e-13
3.88192e-13
3.88198e-13
3.88175e-13
3.88185e-13
3.88203e-13
3.88203e-13
3.88255e-13
3.88299e-13
3.88301e-13
3.88286e-13
3.88406e-13
3.88352e-13
3.88442e-13
3.88424e-13
3.8854e-13
3.88602e-13
3.88773e-13
3.88766e-13
3.89261e-13
3.89594e-13
3.90675e-13
3.91176e-13
3.90984e-13
3.91945e-13
3.93267e-13
3.92906e-13
3.9139e-13
3.89979e-13
3.22227e-13
3.23286e-13
3.24243e-13
3.24267e-13
3.22473e-13
3.21409e-13
3.2101e-13
3.204e-13
3.19474e-13
3.19157e-13
3.18807e-13
3.18738e-13
3.18696e-13
3.18687e-13
3.18555e-13
3.18569e-13
3.18546e-13
3.18488e-13
3.18478e-13
3.18464e-13
3.1842e-13
3.18422e-13
3.18395e-13
3.18394e-13
3.18381e-13
3.1839e-13
3.18405e-13
3.18404e-13
3.18439e-13
3.18462e-13
3.18472e-13
3.18461e-13
3.1854e-13
3.18518e-13
3.18586e-13
3.18571e-13
3.18662e-13
3.18701e-13
3.18758e-13
3.1879e-13
3.19181e-13
3.19497e-13
3.20434e-13
3.21047e-13
3.2141e-13
3.22529e-13
3.24306e-13
3.24277e-13
3.23333e-13
3.22211e-13
2.74254e-13
2.75126e-13
2.7585e-13
2.76069e-13
2.74207e-13
2.73196e-13
2.72634e-13
2.72027e-13
2.71172e-13
2.70871e-13
2.70549e-13
2.70487e-13
2.70558e-13
2.70536e-13
2.70446e-13
2.70455e-13
2.70427e-13
2.70395e-13
2.7038e-13
2.7037e-13
2.70333e-13
2.70332e-13
2.70316e-13
2.70311e-13
2.70304e-13
2.70311e-13
2.70323e-13
2.70322e-13
2.70348e-13
2.70362e-13
2.70374e-13
2.70367e-13
2.70423e-13
2.70413e-13
2.70466e-13
2.70452e-13
2.70525e-13
2.70556e-13
2.70483e-13
2.70545e-13
2.70885e-13
2.71187e-13
2.72056e-13
2.72658e-13
2.73205e-13
2.74237e-13
2.76096e-13
2.75873e-13
2.75157e-13
2.7425e-13
2.39955e-13
2.40721e-13
2.41312e-13
2.40361e-13
2.39742e-13
2.38769e-13
2.38092e-13
2.37486e-13
2.36645e-13
2.36354e-13
2.36043e-13
2.35956e-13
2.36184e-13
2.3616e-13
2.36094e-13
2.36105e-13
2.36078e-13
2.3606e-13
2.36045e-13
2.36039e-13
2.36008e-13
2.36006e-13
2.35995e-13
2.3599e-13
2.35985e-13
2.35991e-13
2.36001e-13
2.36e-13
2.36021e-13
2.36029e-13
2.36041e-13
2.36035e-13
2.36077e-13
2.3607e-13
2.36112e-13
2.36097e-13
2.36155e-13
2.36181e-13
2.3595e-13
2.36042e-13
2.36364e-13
2.36656e-13
2.37511e-13
2.38109e-13
2.3878e-13
2.39748e-13
2.40382e-13
2.4133e-13
2.40743e-13
2.39955e-13
2.12909e-13
2.13846e-13
2.14388e-13
2.13563e-13
2.12846e-13
2.11891e-13
2.11119e-13
2.10514e-13
2.09653e-13
2.09371e-13
2.09065e-13
2.08904e-13
2.08417e-13
2.08369e-13
2.08306e-13
2.08308e-13
2.08276e-13
2.08261e-13
2.08241e-13
2.08234e-13
2.08204e-13
2.08199e-13
2.0819e-13
2.08183e-13
2.08179e-13
2.08185e-13
2.08194e-13
2.08193e-13
2.08212e-13
2.0822e-13
2.08234e-13
2.08234e-13
2.08271e-13
2.08271e-13
2.08313e-13
2.08307e-13
2.08368e-13
2.08415e-13
2.08937e-13
2.09062e-13
2.09379e-13
2.09661e-13
2.10536e-13
2.11132e-13
2.11902e-13
2.12835e-13
2.13581e-13
2.14404e-13
2.13869e-13
2.12914e-13
1.90511e-13
1.91359e-13
1.91806e-13
1.91077e-13
1.90495e-13
1.89753e-13
1.89095e-13
1.88609e-13
1.87767e-13
1.87517e-13
1.87231e-13
1.87039e-13
1.86674e-13
1.86627e-13
1.8658e-13
1.86586e-13
1.8656e-13
1.86551e-13
1.86534e-13
1.8653e-13
1.86505e-13
1.865e-13
1.86494e-13
1.86487e-13
1.86484e-13
1.86488e-13
1.86496e-13
1.86496e-13
1.86511e-13
1.86517e-13
1.8653e-13
1.86529e-13
1.86559e-13
1.86557e-13
1.8659e-13
1.8658e-13
1.86627e-13
1.86673e-13
1.8708e-13
1.8723e-13
1.87525e-13
1.87777e-13
1.88625e-13
1.89105e-13
1.89761e-13
1.90475e-13
1.91089e-13
1.91822e-13
1.91378e-13
1.90516e-13
1.71992e-13
1.72763e-13
1.7312e-13
1.72439e-13
1.71798e-13
1.71059e-13
1.70324e-13
1.69856e-13
1.69696e-13
1.69463e-13
1.69179e-13
1.68977e-13
1.68688e-13
1.68599e-13
1.68475e-13
1.68427e-13
1.68361e-13
1.68327e-13
1.68288e-13
1.68268e-13
1.68234e-13
1.6822e-13
1.68208e-13
1.68198e-13
1.68193e-13
1.68197e-13
1.68206e-13
1.68209e-13
1.68229e-13
1.68243e-13
1.68268e-13
1.68285e-13
1.68332e-13
1.68359e-13
1.68429e-13
1.68477e-13
1.68601e-13
1.68688e-13
1.69008e-13
1.69176e-13
1.6947e-13
1.69705e-13
1.6987e-13
1.70331e-13
1.71067e-13
1.71778e-13
1.7245e-13
1.73136e-13
1.72781e-13
1.71998e-13
1.5643e-13
1.57133e-13
1.57411e-13
1.56756e-13
1.5607e-13
1.55321e-13
1.55144e-13
1.54695e-13
1.5434e-13
1.5391e-13
1.53518e-13
1.53253e-13
1.52975e-13
1.52877e-13
1.52761e-13
1.52713e-13
1.52651e-13
1.52619e-13
1.52581e-13
1.52563e-13
1.52531e-13
1.52518e-13
1.52506e-13
1.52497e-13
1.52492e-13
1.52495e-13
1.52503e-13
1.52507e-13
1.52525e-13
1.52538e-13
1.52562e-13
1.52579e-13
1.52622e-13
1.52649e-13
1.52715e-13
1.52762e-13
1.5288e-13
1.52976e-13
1.53273e-13
1.53515e-13
1.53919e-13
1.5435e-13
1.54707e-13
1.55149e-13
1.55328e-13
1.56054e-13
1.56766e-13
1.57426e-13
1.57149e-13
1.56436e-13
1.43199e-13
1.43839e-13
1.44045e-13
1.43401e-13
1.42678e-13
1.42449e-13
1.41984e-13
1.41336e-13
1.40914e-13
1.40486e-13
1.40094e-13
1.39832e-13
1.39589e-13
1.39488e-13
1.39378e-13
1.3933e-13
1.3927e-13
1.3924e-13
1.39203e-13
1.39185e-13
1.39156e-13
1.39143e-13
1.39132e-13
1.39123e-13
1.39118e-13
1.39121e-13
1.39128e-13
1.39132e-13
1.39149e-13
1.39161e-13
1.39185e-13
1.39202e-13
1.39242e-13
1.39269e-13
1.39331e-13
1.39379e-13
1.39491e-13
1.3959e-13
1.39844e-13
1.4009e-13
1.40495e-13
1.40923e-13
1.41348e-13
1.41993e-13
1.42456e-13
1.42666e-13
1.4341e-13
1.44059e-13
1.43854e-13
1.43205e-13
1.31845e-13
1.32426e-13
1.32567e-13
1.31918e-13
1.31631e-13
1.31043e-13
1.30466e-13
1.29823e-13
1.29382e-13
1.28954e-13
1.28562e-13
1.28304e-13
1.28083e-13
1.27981e-13
1.27875e-13
1.27825e-13
1.27767e-13
1.27738e-13
1.27702e-13
1.27685e-13
1.27657e-13
1.27644e-13
1.27633e-13
1.27625e-13
1.2762e-13
1.27622e-13
1.27629e-13
1.27633e-13
1.27649e-13
1.27661e-13
1.27684e-13
1.27701e-13
1.2774e-13
1.27766e-13
1.27827e-13
1.27876e-13
1.27984e-13
1.28086e-13
1.28311e-13
1.28558e-13
1.28963e-13
1.2939e-13
1.29834e-13
1.30474e-13
1.31053e-13
1.31623e-13
1.31927e-13
1.3258e-13
1.32439e-13
1.31852e-13
1.22029e-13
1.22551e-13
1.22636e-13
1.22371e-13
1.2175e-13
1.21105e-13
1.20499e-13
1.19859e-13
1.19401e-13
1.1897e-13
1.18578e-13
1.18325e-13
1.18119e-13
1.18014e-13
1.1791e-13
1.17859e-13
1.17803e-13
1.17774e-13
1.17738e-13
1.17721e-13
1.17695e-13
1.17682e-13
1.17671e-13
1.17663e-13
1.17659e-13
1.1766e-13
1.17666e-13
1.17671e-13
1.17686e-13
1.17697e-13
1.1772e-13
1.17738e-13
1.17775e-13
1.17802e-13
1.17861e-13
1.17911e-13
1.18017e-13
1.18122e-13
1.18331e-13
1.18576e-13
1.1898e-13
1.19408e-13
1.1987e-13
1.20507e-13
1.21115e-13
1.21748e-13
1.22379e-13
1.22648e-13
1.22564e-13
1.22037e-13
1.13488e-13
1.13949e-13
1.13981e-13
1.13852e-13
1.13108e-13
1.1245e-13
1.1182e-13
1.1118e-13
1.10705e-13
1.10271e-13
1.0988e-13
1.0963e-13
1.09432e-13
1.09324e-13
1.09221e-13
1.09169e-13
1.09113e-13
1.09084e-13
1.09049e-13
1.09032e-13
1.09007e-13
1.08994e-13
1.08983e-13
1.08975e-13
1.08971e-13
1.08972e-13
1.08978e-13
1.08982e-13
1.08996e-13
1.09008e-13
1.09031e-13
1.09049e-13
1.09085e-13
1.09113e-13
1.09171e-13
1.09223e-13
1.09327e-13
1.09435e-13
1.09635e-13
1.09879e-13
1.10281e-13
1.10713e-13
1.1119e-13
1.11827e-13
1.12459e-13
1.13109e-13
1.13866e-13
1.13992e-13
1.13961e-13
1.13497e-13
1.06012e-13
1.06409e-13
1.06699e-13
1.06291e-13
1.05542e-13
1.0487e-13
1.04218e-13
1.03576e-13
1.03086e-13
1.02647e-13
1.02256e-13
1.02008e-13
1.01815e-13
1.01703e-13
1.01601e-13
1.01547e-13
1.01491e-13
1.01462e-13
1.01427e-13
1.01409e-13
1.01385e-13
1.01372e-13
1.01361e-13
1.01354e-13
1.01349e-13
1.0135e-13
1.01356e-13
1.0136e-13
1.01374e-13
1.01386e-13
1.01408e-13
1.01427e-13
1.01462e-13
1.01491e-13
1.01548e-13
1.01602e-13
1.01706e-13
1.01818e-13
1.02013e-13
1.02257e-13
1.02657e-13
1.03094e-13
1.03586e-13
1.04225e-13
1.04879e-13
1.05546e-13
1.06305e-13
1.06709e-13
1.06418e-13
1.06023e-13
9.94364e-14
9.97568e-14
1.00091e-13
9.96371e-14
9.88843e-14
9.81961e-14
9.75248e-14
9.68801e-14
9.63758e-14
9.59304e-14
9.55395e-14
9.52918e-14
9.50995e-14
9.49836e-14
9.48816e-14
9.48255e-14
9.47702e-14
9.47397e-14
9.47053e-14
9.46871e-14
9.46635e-14
9.46505e-14
9.46395e-14
9.4632e-14
9.46275e-14
9.46281e-14
9.46332e-14
9.46381e-14
9.46516e-14
9.46638e-14
9.46858e-14
9.47052e-14
9.47402e-14
9.47703e-14
9.48271e-14
9.48833e-14
9.49868e-14
9.51032e-14
9.52966e-14
9.55422e-14
9.59403e-14
9.63831e-14
9.68893e-14
9.75321e-14
9.82054e-14
9.88896e-14
9.96507e-14
1.00106e-13
9.97637e-14
9.94469e-14
9.36234e-14
9.40902e-14
9.42118e-14
9.37525e-14
9.2997e-14
9.22931e-14
9.16041e-14
9.09547e-14
9.04366e-14
8.99841e-14
8.9593e-14
8.93438e-14
8.91509e-14
8.90308e-14
8.89281e-14
8.88698e-14
8.88141e-14
8.87827e-14
8.87482e-14
8.87294e-14
8.87062e-14
8.86931e-14
8.86819e-14
8.86745e-14
8.867e-14
8.86704e-14
8.86753e-14
8.86804e-14
8.86936e-14
8.8706e-14
8.8728e-14
8.8748e-14
8.87829e-14
8.88142e-14
8.88714e-14
8.89299e-14
8.9034e-14
8.91548e-14
8.93487e-14
8.95968e-14
8.99941e-14
9.04438e-14
9.09637e-14
9.16115e-14
9.23025e-14
9.30037e-14
9.37659e-14
9.42262e-14
9.4094e-14
9.36337e-14
8.84602e-14
8.90099e-14
8.89919e-14
8.85261e-14
8.77683e-14
8.70489e-14
8.63434e-14
8.56881e-14
8.51567e-14
8.46963e-14
8.43043e-14
8.40522e-14
8.38573e-14
8.37328e-14
8.36288e-14
8.35682e-14
8.35118e-14
8.34792e-14
8.34447e-14
8.34252e-14
8.34022e-14
8.33889e-14
8.33774e-14
8.33701e-14
8.33656e-14
8.33658e-14
8.33706e-14
8.33759e-14
8.33889e-14
8.34017e-14
8.34237e-14
8.34444e-14
8.34793e-14
8.3512e-14
8.35697e-14
8.36308e-14
8.37361e-14
8.38614e-14
8.40573e-14
8.43088e-14
8.47063e-14
8.51639e-14
8.56969e-14
8.63509e-14
8.70584e-14
8.77761e-14
8.85392e-14
8.90056e-14
8.90267e-14
8.84696e-14
8.3853e-14
8.43708e-14
8.43381e-14
8.38654e-14
8.31053e-14
8.23706e-14
8.16498e-14
8.09875e-14
8.04432e-14
7.99742e-14
7.95804e-14
7.93243e-14
7.91264e-14
7.89974e-14
7.88916e-14
7.88285e-14
7.87711e-14
7.87373e-14
7.87025e-14
7.86822e-14
7.86593e-14
7.86458e-14
7.86341e-14
7.86268e-14
7.86222e-14
7.86223e-14
7.86269e-14
7.86325e-14
7.86455e-14
7.86585e-14
7.86807e-14
7.87021e-14
7.87373e-14
7.87715e-14
7.883e-14
7.88937e-14
7.90008e-14
7.91307e-14
7.93295e-14
7.95854e-14
7.99842e-14
8.04505e-14
8.09963e-14
8.16574e-14
8.23802e-14
8.31139e-14
8.38783e-14
8.43513e-14
8.43846e-14
8.38602e-14
7.98799e-14
8.02244e-14
8.01733e-14
7.96935e-14
7.89306e-14
7.81811e-14
7.74456e-14
7.67756e-14
7.62187e-14
7.57403e-14
7.53438e-14
7.50828e-14
7.48812e-14
7.47476e-14
7.46396e-14
7.45738e-14
7.45153e-14
7.44801e-14
7.44448e-14
7.44237e-14
7.44008e-14
7.4387e-14
7.4375e-14
7.43676e-14
7.43631e-14
7.43631e-14
7.43676e-14
7.43734e-14
7.43864e-14
7.43998e-14
7.44221e-14
7.44443e-14
7.44799e-14
7.45156e-14
7.45753e-14
7.46418e-14
7.4751e-14
7.48855e-14
7.50881e-14
7.53492e-14
7.57503e-14
7.62261e-14
7.67843e-14
7.74535e-14
7.81908e-14
7.89399e-14
7.97062e-14
8.0186e-14
8.02342e-14
7.98831e-14
7.63067e-14
7.65054e-14
7.64328e-14
7.59454e-14
7.51792e-14
7.44153e-14
7.36658e-14
7.29873e-14
7.24182e-14
7.19295e-14
7.15293e-14
7.12628e-14
7.10569e-14
7.09186e-14
7.08081e-14
7.07395e-14
7.06796e-14
7.06429e-14
7.06071e-14
7.05851e-14
7.0562e-14
7.05479e-14
7.05356e-14
7.05282e-14
7.05236e-14
7.05235e-14
7.0528e-14
7.05341e-14
7.0547e-14
7.05608e-14
7.05835e-14
7.06064e-14
7.06426e-14
7.068e-14
7.07409e-14
7.08104e-14
7.09221e-14
7.10613e-14
7.12682e-14
7.1535e-14
7.19394e-14
7.24256e-14
7.2996e-14
7.36739e-14
7.44251e-14
7.5189e-14
7.59579e-14
7.64449e-14
7.65106e-14
7.6319e-14
7.29849e-14
7.31595e-14
7.30616e-14
7.25665e-14
7.17964e-14
7.10184e-14
7.02553e-14
6.95677e-14
6.89867e-14
6.84867e-14
6.80821e-14
6.78095e-14
6.75989e-14
6.74558e-14
6.73425e-14
6.72708e-14
6.72095e-14
6.71711e-14
6.71346e-14
6.71118e-14
6.70884e-14
6.70739e-14
6.70614e-14
6.70538e-14
6.70492e-14
6.70491e-14
6.70535e-14
6.70598e-14
6.70729e-14
6.70871e-14
6.71101e-14
6.71339e-14
6.71708e-14
6.72099e-14
6.72723e-14
6.73448e-14
6.74593e-14
6.76034e-14
6.78149e-14
6.8088e-14
6.84966e-14
6.89942e-14
6.95764e-14
7.02637e-14
7.10283e-14
7.18065e-14
7.25789e-14
7.30732e-14
7.31629e-14
7.2996e-14
6.99809e-14
7.01401e-14
7.00135e-14
6.95102e-14
6.87354e-14
6.79437e-14
6.71675e-14
6.64701e-14
6.58775e-14
6.53651e-14
6.49554e-14
6.46763e-14
6.44608e-14
6.43127e-14
6.41962e-14
6.41215e-14
6.40585e-14
6.40184e-14
6.39811e-14
6.39573e-14
6.39336e-14
6.39187e-14
6.39059e-14
6.38982e-14
6.38936e-14
6.38933e-14
6.38977e-14
6.39043e-14
6.39175e-14
6.39322e-14
6.39556e-14
6.39803e-14
6.4018e-14
6.40588e-14
6.41229e-14
6.41986e-14
6.43162e-14
6.44653e-14
6.46818e-14
6.49615e-14
6.5375e-14
6.58851e-14
6.64789e-14
6.71761e-14
6.79538e-14
6.87458e-14
6.95225e-14
7.00244e-14
7.0162e-14
6.99913e-14
6.72555e-14
6.74978e-14
6.72487e-14
6.6737e-14
6.59568e-14
6.51516e-14
6.43624e-14
6.36548e-14
6.3051e-14
6.25248e-14
6.21093e-14
6.18235e-14
6.16026e-14
6.14494e-14
6.13297e-14
6.12517e-14
6.1187e-14
6.11449e-14
6.11068e-14
6.1082e-14
6.1058e-14
6.10426e-14
6.10294e-14
6.10216e-14
6.10169e-14
6.10166e-14
6.10211e-14
6.10279e-14
6.10413e-14
6.10565e-14
6.10803e-14
6.11059e-14
6.11445e-14
6.11873e-14
6.12531e-14
6.13321e-14
6.14531e-14
6.16073e-14
6.1829e-14
6.21156e-14
6.25347e-14
6.30586e-14
6.36637e-14
6.43712e-14
6.51619e-14
6.59674e-14
6.67492e-14
6.7259e-14
6.75185e-14
6.72651e-14
6.47744e-14
6.50052e-14
6.47331e-14
6.4213e-14
6.34267e-14
6.26082e-14
6.18059e-14
6.10876e-14
6.04729e-14
5.99315e-14
5.95097e-14
5.92169e-14
5.89905e-14
5.8832e-14
5.87087e-14
5.86274e-14
5.85608e-14
5.85167e-14
5.84777e-14
5.84519e-14
5.84273e-14
5.84114e-14
5.8398e-14
5.839e-14
5.83852e-14
5.83849e-14
5.83894e-14
5.83965e-14
5.84101e-14
5.84258e-14
5.84501e-14
5.84767e-14
5.85163e-14
5.85611e-14
5.86288e-14
5.87112e-14
5.88358e-14
5.89952e-14
5.92225e-14
5.95162e-14
5.99415e-14
6.04806e-14
6.10966e-14
6.18151e-14
6.26185e-14
6.34375e-14
6.42252e-14
6.47427e-14
6.50199e-14
6.47832e-14
)
;

boundaryField
{
    fuel
    {
        type            fixedValue;
        value           uniform 0;
    }
    wall
    {
        type            zeroGradient;
    }
    outlet
    {
        type            zeroGradient;
    }
    frontAndBack
    {
        type            empty;
    }
    procBoundary1to0
    {
        type            processor;
        value           nonuniform List<scalar> 
50
(
6.25043e-14
6.27164e-14
6.24331e-14
6.19049e-14
6.11123e-14
6.02812e-14
5.94667e-14
5.87379e-14
5.81131e-14
5.75551e-14
5.7127e-14
5.68275e-14
5.65955e-14
5.64318e-14
5.63048e-14
5.62202e-14
5.61516e-14
5.61055e-14
5.60655e-14
5.60386e-14
5.60136e-14
5.59972e-14
5.59834e-14
5.59752e-14
5.59703e-14
5.597e-14
5.59745e-14
5.59819e-14
5.59957e-14
5.6012e-14
5.60368e-14
5.60645e-14
5.61051e-14
5.61519e-14
5.62216e-14
5.63074e-14
5.64356e-14
5.66003e-14
5.68332e-14
5.71336e-14
5.75651e-14
5.8121e-14
5.87469e-14
5.9476e-14
6.02917e-14
6.11232e-14
6.19171e-14
6.24425e-14
6.27289e-14
6.25122e-14
)
;
    }
}


// ************************************************************************* //
