/*--------------------------------*- C++ -*----------------------------------*\
| =========                 |                                                 |
| \\      /  F ield         | OpenFOAM: The Open Source CFD Toolbox           |
|  \\    /   O peration     | Version:  dev                                   |
|   \\  /    A nd           | Web:      www.OpenFOAM.org                      |
|    \\/     M anipulation  |                                                 |
\*---------------------------------------------------------------------------*/
FoamFile
{
    version     2.0;
    format      ascii;
    class       volScalarField;
    location    "0.015";
    object      OH;
}
// * * * * * * * * * * * * * * * * * * * * * * * * * * * * * * * * * * * * * //

dimensions      [0 0 0 0 0 0 0];

internalField   nonuniform List<scalar> 
25
(
3.47448e-05
2.87379e-05
2.37482e-05
1.96293e-05
1.62477e-05
1.34836e-05
1.12306e-05
9.39574e-06
7.89912e-06
6.67329e-06
5.66238e-06
4.82106e-06
4.11336e-06
3.51143e-06
2.99431e-06
2.54664e-06
2.15739e-06
1.81871e-06
1.5248e-06
1.26999e-06
1.05269e-06
8.68081e-07
7.12496e-07
5.82343e-07
4.74108e-07
)
;

boundaryField
{
    wall
    {
        type            zeroGradient;
    }
    fuel
    {
        type            fixedValue;
        value           nonuniform 0();
    }
    outlet
    {
        type            inletOutlet;
        inletValue      nonuniform 0();
        value           nonuniform 0();
    }
    procBoundary1to0
    {
        type            processor;
        value           uniform 4.19104e-05;
    }
    procBoundary1to2
    {
        type            processor;
        value           uniform 3.84438e-07;
    }
}


// ************************************************************************* //
