/*--------------------------------*- C++ -*----------------------------------*\
| =========                 |                                                 |
| \\      /  F ield         | OpenFOAM: The Open Source CFD Toolbox           |
|  \\    /   O peration     | Version:  dev                                   |
|   \\  /    A nd           | Web:      www.OpenFOAM.org                      |
|    \\/     M anipulation  |                                                 |
\*---------------------------------------------------------------------------*/
FoamFile
{
    version     2.0;
    format      ascii;
    class       volScalarField;
    location    "0.015";
    object      P2-;
}
// * * * * * * * * * * * * * * * * * * * * * * * * * * * * * * * * * * * * * //

dimensions      [0 0 0 0 0 0 0];

internalField   nonuniform List<scalar> 
25
(
3.64656e-13
5.17817e-13
7.09072e-13
9.33904e-13
1.18404e-12
1.44888e-12
1.7171e-12
1.9778e-12
2.22112e-12
2.43838e-12
2.62198e-12
2.7653e-12
2.86291e-12
2.911e-12
2.90792e-12
2.85467e-12
2.75512e-12
2.61573e-12
2.44493e-12
2.25125e-12
2.04566e-12
1.8356e-12
1.62745e-12
1.42565e-12
1.23282e-12
)
;

boundaryField
{
    wall
    {
        type            zeroGradient;
    }
    fuel
    {
        type            fixedValue;
        value           nonuniform 0();
    }
    outlet
    {
        type            inletOutlet;
        inletValue      nonuniform 0();
        value           nonuniform 0();
    }
    procBoundary1to0
    {
        type            processor;
        value           uniform 2.49621e-13;
    }
    procBoundary1to2
    {
        type            processor;
        value           uniform 1.05018e-12;
    }
}


// ************************************************************************* //
