/*--------------------------------*- C++ -*----------------------------------*\
| =========                 |                                                 |
| \\      /  F ield         | OpenFOAM: The Open Source CFD Toolbox           |
|  \\    /   O peration     | Version:  dev                                   |
|   \\  /    A nd           | Web:      www.OpenFOAM.org                      |
|    \\/     M anipulation  |                                                 |
\*---------------------------------------------------------------------------*/
FoamFile
{
    version     2.0;
    format      ascii;
    class       volScalarField;
    location    "0.015";
    object      PC3H4;
}
// * * * * * * * * * * * * * * * * * * * * * * * * * * * * * * * * * * * * * //

dimensions      [0 0 0 0 0 0 0];

internalField   nonuniform List<scalar> 
250
(
2.06015e-06
3.1874e-07
2.29004e-07
1.86194e-07
1.4592e-07
1.03793e-07
7.35993e-08
5.06441e-08
3.96236e-08
3.41146e-08
2.08431e-06
3.37812e-07
2.20719e-07
1.74618e-07
1.35776e-07
9.57324e-08
6.7929e-08
4.6439e-08
3.62307e-08
3.10436e-08
3.10371e-08
3.61944e-08
4.64106e-08
6.7969e-08
9.59665e-08
1.36166e-07
1.74959e-07
2.20852e-07
3.37102e-07
2.09175e-06
2.05137e-06
3.60705e-07
2.135e-07
1.629e-07
1.24974e-07
8.71752e-08
6.19232e-08
4.21111e-08
3.28141e-08
2.80052e-08
2.80003e-08
3.27857e-08
4.2102e-08
6.19908e-08
8.74442e-08
1.25393e-07
1.63194e-07
2.1349e-07
3.59445e-07
2.05724e-06
1.97387e-06
3.8636e-07
2.08314e-07
1.51714e-07
1.14151e-07
7.84645e-08
5.57053e-08
3.77224e-08
2.93981e-08
2.50164e-08
2.50127e-08
2.93769e-08
3.7729e-08
5.57933e-08
7.87433e-08
1.14558e-07
1.51912e-07
2.08058e-07
3.84459e-07
1.97776e-06
1.86351e-06
4.13707e-07
2.07034e-07
1.4357e-07
1.0405e-07
7.02099e-08
4.95438e-08
3.34187e-08
2.60551e-08
2.21337e-08
2.21308e-08
2.60401e-08
3.34336e-08
4.9642e-08
7.04817e-08
1.04391e-07
1.43607e-07
2.06478e-07
4.111e-07
1.86526e-06
1.73117e-06
4.41835e-07
2.10846e-07
1.39814e-07
9.69452e-08
6.36725e-08
4.40234e-08
2.95417e-08
2.29694e-08
1.94508e-08
1.94485e-08
2.29591e-08
2.95524e-08
4.41183e-08
6.38888e-08
9.71638e-08
1.39603e-07
2.09921e-07
4.38482e-07
1.73082e-06
1.58661e-06
4.69939e-07
2.20749e-07
1.41958e-07
9.46257e-08
6.07845e-08
4.03984e-08
2.68771e-08
2.05729e-08
1.74629e-08
1.74602e-08
2.05655e-08
2.68949e-08
4.04736e-08
6.09145e-08
9.46811e-08
1.41522e-07
2.19417e-07
4.65832e-07
1.58436e-06
1.43757e-06
4.97015e-07
2.36882e-07
1.50677e-07
9.90692e-08
6.41719e-08
4.11073e-08
2.73334e-08
2.0206e-08
1.71988e-08
1.71942e-08
2.01989e-08
2.73397e-08
4.11492e-08
6.42043e-08
9.8965e-08
1.5004e-07
2.35138e-07
4.92182e-07
1.4337e-06
1.28863e-06
5.21237e-07
2.58378e-07
1.65436e-07
1.11047e-07
7.60583e-08
4.98469e-08
3.44656e-08
2.47667e-08
2.13319e-08
2.13228e-08
2.47579e-08
3.446e-08
4.98625e-08
7.60289e-08
1.10842e-07
1.64659e-07
2.56254e-07
5.15777e-07
1.28347e-06
1.14091e-06
5.38743e-07
2.83249e-07
1.84729e-07
1.29387e-07
9.64171e-08
6.97708e-08
5.27879e-08
3.92821e-08
3.47312e-08
3.47159e-08
3.92744e-08
5.27889e-08
6.98074e-08
9.64029e-08
1.29162e-07
1.83879e-07
2.80832e-07
5.32884e-07
1.13489e-06
9.95146e-07
5.43394e-07
3.0754e-07
2.06236e-07
1.51347e-07
1.21937e-07
9.95083e-08
8.31003e-08
6.72503e-08
6.1253e-08
6.12354e-08
6.72553e-08
8.3149e-08
9.96379e-08
1.2201e-07
1.51167e-07
2.05397e-07
3.05024e-07
5.37526e-07
9.88719e-07
8.62047e-07
5.33541e-07
3.26538e-07
2.26889e-07
1.73208e-07
1.4684e-07
1.30721e-07
1.16618e-07
1.0168e-07
9.45181e-08
9.45068e-08
1.01708e-07
1.1674e-07
1.30978e-07
1.47022e-07
1.73104e-07
2.26142e-07
3.2414e-07
5.2801e-07
8.55597e-07
7.69316e-07
5.20799e-07
3.39874e-07
2.44293e-07
1.91451e-07
1.65871e-07
1.53958e-07
1.41293e-07
1.27851e-07
1.19883e-07
1.19879e-07
1.27894e-07
1.41468e-07
1.54306e-07
1.66137e-07
1.91421e-07
2.43695e-07
3.37709e-07
5.15691e-07
7.63037e-07
)
;

boundaryField
{
    fuel
    {
        type            fixedValue;
        value           nonuniform 0();
    }
    wall
    {
        type            zeroGradient;
    }
    outlet
    {
        type            zeroGradient;
    }
    frontAndBack
    {
        type            empty;
    }
    procBoundary1to0
    {
        type            processor;
        value           nonuniform List<scalar> 
21
(
1.96685e-06
3.04211e-07
2.37439e-07
1.96913e-07
1.55063e-07
1.11182e-07
7.88815e-08
5.47053e-08
4.29924e-08
3.72212e-08
3.41073e-08
3.41073e-08
3.95795e-08
5.05946e-08
7.36065e-08
1.03977e-07
1.46254e-07
1.86538e-07
2.29218e-07
3.18463e-07
2.06859e-06
)
;
    }
}


// ************************************************************************* //
