/*--------------------------------*- C++ -*----------------------------------*\
| =========                 |                                                 |
| \\      /  F ield         | OpenFOAM: The Open Source CFD Toolbox           |
|  \\    /   O peration     | Version:  dev                                   |
|   \\  /    A nd           | Web:      www.OpenFOAM.org                      |
|    \\/     M anipulation  |                                                 |
\*---------------------------------------------------------------------------*/
FoamFile
{
    version     2.0;
    format      ascii;
    class       volScalarField;
    location    "0.08";
    object      A1;
}
// * * * * * * * * * * * * * * * * * * * * * * * * * * * * * * * * * * * * * //

dimensions      [0 0 0 0 0 0 0];

internalField   nonuniform List<scalar> 
25
(
1.78272e-08
1.74212e-08
1.69815e-08
1.65081e-08
1.59879e-08
1.54594e-08
1.48988e-08
1.43093e-08
1.36799e-08
1.30378e-08
1.23691e-08
1.16762e-08
1.09609e-08
1.02229e-08
9.45961e-09
8.65922e-09
7.83234e-09
6.98639e-09
6.10439e-09
5.27037e-09
4.36486e-09
3.45428e-09
2.45089e-09
1.48313e-09
6.9367e-10
)
;

boundaryField
{
    wall
    {
        type            zeroGradient;
    }
    fuel
    {
        type            fixedValue;
        value           nonuniform 0();
    }
    outlet
    {
        type            inletOutlet;
        inletValue      uniform 0;
        value           uniform 6.9367e-10;
    }
    procBoundary3to2
    {
        type            processor;
        value           uniform 1.8199e-08;
    }
}


// ************************************************************************* //
