/*--------------------------------*- C++ -*----------------------------------*\
| =========                 |                                                 |
| \\      /  F ield         | OpenFOAM: The Open Source CFD Toolbox           |
|  \\    /   O peration     | Version:  dev                                   |
|   \\  /    A nd           | Web:      www.OpenFOAM.org                      |
|    \\/     M anipulation  |                                                 |
\*---------------------------------------------------------------------------*/
FoamFile
{
    version     2.0;
    format      ascii;
    class       volScalarField;
    location    "0.08";
    object      A2-1;
}
// * * * * * * * * * * * * * * * * * * * * * * * * * * * * * * * * * * * * * //

dimensions      [0 0 0 0 0 0 0];

internalField   nonuniform List<scalar> 
25
(
3.52438e-16
2.65567e-16
1.99005e-16
1.48408e-16
1.09499e-16
8.19557e-17
6.16364e-17
4.68021e-17
3.58419e-17
2.81035e-17
2.24957e-17
1.84154e-17
1.54202e-17
1.31819e-17
1.14536e-17
1.00409e-17
8.83284e-18
7.74529e-18
6.70231e-18
5.76105e-18
4.76243e-18
3.76765e-18
2.67393e-18
1.61869e-18
7.57258e-19
)
;

boundaryField
{
    wall
    {
        type            zeroGradient;
    }
    fuel
    {
        type            fixedValue;
        value           nonuniform 0();
    }
    outlet
    {
        type            inletOutlet;
        inletValue      uniform 0;
        value           uniform 7.57258e-19;
    }
    procBoundary3to2
    {
        type            processor;
        value           uniform 4.64675e-16;
    }
}


// ************************************************************************* //
