/*--------------------------------*- C++ -*----------------------------------*\
| =========                 |                                                 |
| \\      /  F ield         | OpenFOAM: The Open Source CFD Toolbox           |
|  \\    /   O peration     | Version:  dev                                   |
|   \\  /    A nd           | Web:      www.OpenFOAM.org                      |
|    \\/     M anipulation  |                                                 |
\*---------------------------------------------------------------------------*/
FoamFile
{
    version     2.0;
    format      ascii;
    class       volScalarField;
    location    "0.08";
    object      AC3H4;
}
// * * * * * * * * * * * * * * * * * * * * * * * * * * * * * * * * * * * * * //

dimensions      [0 0 0 0 0 0 0];

internalField   nonuniform List<scalar> 
25
(
1.8561e-15
2.18453e-15
2.62082e-15
3.22011e-15
3.99461e-15
5.02133e-15
6.3493e-15
8.05038e-15
1.01878e-14
1.27946e-14
1.5687e-14
1.88715e-14
2.21843e-14
2.54149e-14
2.83188e-14
3.06456e-14
3.21718e-14
3.27276e-14
3.22109e-14
3.05845e-14
2.78603e-14
2.40824e-14
1.93104e-14
1.35815e-14
6.83327e-15
)
;

boundaryField
{
    wall
    {
        type            zeroGradient;
    }
    fuel
    {
        type            fixedValue;
        value           nonuniform 0();
    }
    outlet
    {
        type            inletOutlet;
        inletValue      uniform 0;
        value           uniform 6.83327e-15;
    }
    procBoundary3to2
    {
        type            processor;
        value           uniform 1.59412e-15;
    }
}


// ************************************************************************* //
