/*--------------------------------*- C++ -*----------------------------------*\
| =========                 |                                                 |
| \\      /  F ield         | OpenFOAM: The Open Source CFD Toolbox           |
|  \\    /   O peration     | Version:  dev                                   |
|   \\  /    A nd           | Web:      www.OpenFOAM.org                      |
|    \\/     M anipulation  |                                                 |
\*---------------------------------------------------------------------------*/
FoamFile
{
    version     2.0;
    format      ascii;
    class       volScalarField;
    location    "0.08";
    object      C2H3O;
}
// * * * * * * * * * * * * * * * * * * * * * * * * * * * * * * * * * * * * * //

dimensions      [0 0 0 0 0 0 0];

internalField   nonuniform List<scalar> 
25
(
2.6417e-13
3.15196e-13
3.77451e-13
4.55744e-13
5.49349e-13
6.65215e-13
8.09592e-13
9.928e-13
1.22963e-12
1.55596e-12
2.00502e-12
2.68962e-12
3.82961e-12
5.91866e-12
9.96607e-12
1.72707e-11
2.76665e-11
3.81809e-11
4.52532e-11
4.73014e-11
4.46374e-11
3.83997e-11
2.98923e-11
2.02163e-11
9.86227e-12
)
;

boundaryField
{
    wall
    {
        type            zeroGradient;
    }
    fuel
    {
        type            fixedValue;
        value           nonuniform 0();
    }
    outlet
    {
        type            inletOutlet;
        inletValue      uniform 0;
        value           uniform 9.86227e-12;
    }
    procBoundary3to2
    {
        type            processor;
        value           uniform 2.20912e-13;
    }
}


// ************************************************************************* //
