/*--------------------------------*- C++ -*----------------------------------*\
| =========                 |                                                 |
| \\      /  F ield         | OpenFOAM: The Open Source CFD Toolbox           |
|  \\    /   O peration     | Version:  dev                                   |
|   \\  /    A nd           | Web:      www.OpenFOAM.org                      |
|    \\/     M anipulation  |                                                 |
\*---------------------------------------------------------------------------*/
FoamFile
{
    version     2.0;
    format      ascii;
    class       volScalarField;
    location    "0.08";
    object      C5H2;
}
// * * * * * * * * * * * * * * * * * * * * * * * * * * * * * * * * * * * * * //

dimensions      [0 0 0 0 0 0 0];

internalField   nonuniform List<scalar> 
25
(
1.87464e-16
1.77387e-16
1.6989e-16
1.64444e-16
1.60924e-16
1.58729e-16
1.57533e-16
1.57002e-16
1.5682e-16
1.56694e-16
1.56366e-16
1.55592e-16
1.54159e-16
1.51869e-16
1.48541e-16
1.44007e-16
1.3811e-16
1.30698e-16
1.21622e-16
1.10733e-16
9.78785e-17
8.29012e-17
6.56237e-17
4.58036e-17
2.29528e-17
)
;

boundaryField
{
    wall
    {
        type            zeroGradient;
    }
    fuel
    {
        type            fixedValue;
        value           nonuniform 0();
    }
    outlet
    {
        type            inletOutlet;
        inletValue      uniform 0;
        value           uniform 2.29528e-17;
    }
    procBoundary3to2
    {
        type            processor;
        value           uniform 2.01149e-16;
    }
}


// ************************************************************************* //
