/*--------------------------------*- C++ -*----------------------------------*\
| =========                 |                                                 |
| \\      /  F ield         | OpenFOAM: The Open Source CFD Toolbox           |
|  \\    /   O peration     | Version:  dev                                   |
|   \\  /    A nd           | Web:      www.OpenFOAM.org                      |
|    \\/     M anipulation  |                                                 |
\*---------------------------------------------------------------------------*/
FoamFile
{
    version     2.0;
    format      ascii;
    class       volScalarField;
    location    "0.08";
    object      C6H;
}
// * * * * * * * * * * * * * * * * * * * * * * * * * * * * * * * * * * * * * //

dimensions      [0 0 0 0 0 0 0];

internalField   nonuniform List<scalar> 
25
(
3.36755e-20
1.86087e-20
9.85966e-21
4.91255e-21
2.38996e-21
1.10705e-21
4.90993e-22
2.08553e-22
8.42639e-23
3.19839e-23
1.20699e-23
4.38625e-24
1.53237e-24
5.12301e-25
1.62545e-25
4.85458e-26
1.34812e-26
3.42528e-27
7.77273e-28
1.5172e-28
2.41201e-29
2.92261e-30
2.57181e-31
1.73144e-32
1.077e-33
)
;

boundaryField
{
    wall
    {
        type            zeroGradient;
    }
    fuel
    {
        type            fixedValue;
        value           nonuniform 0();
    }
    outlet
    {
        type            inletOutlet;
        inletValue      uniform 0;
        value           uniform 1.077e-33;
    }
    procBoundary3to2
    {
        type            processor;
        value           uniform 6.00116e-20;
    }
}


// ************************************************************************* //
