/*--------------------------------*- C++ -*----------------------------------*\
| =========                 |                                                 |
| \\      /  F ield         | OpenFOAM: The Open Source CFD Toolbox           |
|  \\    /   O peration     | Version:  dev                                   |
|   \\  /    A nd           | Web:      www.OpenFOAM.org                      |
|    \\/     M anipulation  |                                                 |
\*---------------------------------------------------------------------------*/
FoamFile
{
    version     2.0;
    format      ascii;
    class       volScalarField;
    location    "0.08";
    object      CH2OH;
}
// * * * * * * * * * * * * * * * * * * * * * * * * * * * * * * * * * * * * * //

dimensions      [0 0 0 0 0 0 0];

internalField   nonuniform List<scalar> 
25
(
2.6364e-11
2.65577e-11
2.64615e-11
2.60781e-11
2.54085e-11
2.45423e-11
2.3491e-11
2.23039e-11
2.09977e-11
1.96635e-11
1.83003e-11
1.69359e-11
1.55834e-11
1.42492e-11
1.29408e-11
1.16384e-11
1.03567e-11
9.10271e-12
7.84965e-12
6.70793e-12
5.50741e-12
4.33059e-12
3.0575e-12
1.84459e-12
8.61522e-13
)
;

boundaryField
{
    wall
    {
        type            zeroGradient;
    }
    fuel
    {
        type            fixedValue;
        value           nonuniform 0();
    }
    outlet
    {
        type            inletOutlet;
        inletValue      uniform 0;
        value           uniform 8.61522e-13;
    }
    procBoundary3to2
    {
        type            processor;
        value           uniform 2.59132e-11;
    }
}


// ************************************************************************* //
