/*--------------------------------*- C++ -*----------------------------------*\
| =========                 |                                                 |
| \\      /  F ield         | OpenFOAM: The Open Source CFD Toolbox           |
|  \\    /   O peration     | Version:  dev                                   |
|   \\  /    A nd           | Web:      www.OpenFOAM.org                      |
|    \\/     M anipulation  |                                                 |
\*---------------------------------------------------------------------------*/
FoamFile
{
    version     2.0;
    format      ascii;
    class       volScalarField;
    location    "0.08";
    object      H2C4O;
}
// * * * * * * * * * * * * * * * * * * * * * * * * * * * * * * * * * * * * * //

dimensions      [0 0 0 0 0 0 0];

internalField   nonuniform List<scalar> 
25
(
6.29858e-17
4.27662e-17
2.85519e-17
1.85828e-17
1.21075e-17
7.77259e-18
4.93602e-18
3.09775e-18
1.90665e-18
1.14273e-18
6.87483e-19
4.078e-19
2.39569e-19
1.40243e-19
8.24725e-20
4.92568e-20
3.03065e-20
1.95286e-20
1.33644e-20
9.74964e-21
7.48625e-21
5.87364e-21
4.49753e-21
3.11109e-21
1.55984e-21
)
;

boundaryField
{
    wall
    {
        type            zeroGradient;
    }
    fuel
    {
        type            fixedValue;
        value           nonuniform 0();
    }
    outlet
    {
        type            inletOutlet;
        inletValue      uniform 0;
        value           uniform 1.55984e-21;
    }
    procBoundary3to2
    {
        type            processor;
        value           uniform 9.26042e-17;
    }
}


// ************************************************************************* //
