/*--------------------------------*- C++ -*----------------------------------*\
| =========                 |                                                 |
| \\      /  F ield         | OpenFOAM: The Open Source CFD Toolbox           |
|  \\    /   O peration     | Version:  dev                                   |
|   \\  /    A nd           | Web:      www.OpenFOAM.org                      |
|    \\/     M anipulation  |                                                 |
\*---------------------------------------------------------------------------*/
FoamFile
{
    version     2.0;
    format      ascii;
    class       volScalarField;
    location    "0.08";
    object      i-C4H5;
}
// * * * * * * * * * * * * * * * * * * * * * * * * * * * * * * * * * * * * * //

dimensions      [0 0 0 0 0 0 0];

internalField   nonuniform List<scalar> 
25
(
1.96413e-17
2.06139e-17
2.18878e-17
2.35758e-17
2.56594e-17
2.82406e-17
3.13728e-17
3.50886e-17
3.93151e-17
4.39972e-17
4.85789e-17
5.27757e-17
5.60243e-17
5.7789e-17
5.77119e-17
5.57302e-17
5.20816e-17
4.71837e-17
4.14531e-17
3.516e-17
2.84027e-17
2.12611e-17
1.41188e-17
7.89326e-18
3.34601e-18
)
;

boundaryField
{
    wall
    {
        type            zeroGradient;
    }
    fuel
    {
        type            fixedValue;
        value           nonuniform 0();
    }
    outlet
    {
        type            inletOutlet;
        inletValue      uniform 0;
        value           uniform 3.34601e-18;
    }
    procBoundary3to2
    {
        type            processor;
        value           uniform 1.88958e-17;
    }
}


// ************************************************************************* //
