/*--------------------------------*- C++ -*----------------------------------*\
| =========                 |                                                 |
| \\      /  F ield         | OpenFOAM: The Open Source CFD Toolbox           |
|  \\    /   O peration     | Version:  dev                                   |
|   \\  /    A nd           | Web:      www.OpenFOAM.org                      |
|    \\/     M anipulation  |                                                 |
\*---------------------------------------------------------------------------*/
FoamFile
{
    version     2.0;
    format      ascii;
    class       volScalarField;
    location    "0.075";
    object      C5H2;
}
// * * * * * * * * * * * * * * * * * * * * * * * * * * * * * * * * * * * * * //

dimensions      [0 0 0 0 0 0 0];

internalField   nonuniform List<scalar> 
25
(
3.24362e-16
3.86908e-16
4.50894e-16
5.15512e-16
5.75287e-16
6.24958e-16
6.64992e-16
6.9336e-16
7.08842e-16
7.11058e-16
7.00451e-16
6.78199e-16
6.46089e-16
6.06325e-16
5.61325e-16
5.13512e-16
4.65127e-16
4.18006e-16
3.73427e-16
3.32342e-16
2.95877e-16
2.65062e-16
2.39259e-16
2.18123e-16
2.01149e-16
)
;

boundaryField
{
    wall
    {
        type            zeroGradient;
    }
    fuel
    {
        type            fixedValue;
        value           nonuniform 0();
    }
    outlet
    {
        type            inletOutlet;
        inletValue      nonuniform 0();
        value           nonuniform 0();
    }
    procBoundary2to1
    {
        type            processor;
        value           uniform 2.65273e-16;
    }
    procBoundary2to3
    {
        type            processor;
        value           uniform 1.87464e-16;
    }
}


// ************************************************************************* //
