/*--------------------------------*- C++ -*----------------------------------*\
| =========                 |                                                 |
| \\      /  F ield         | OpenFOAM: The Open Source CFD Toolbox           |
|  \\    /   O peration     | Version:  dev                                   |
|   \\  /    A nd           | Web:      www.OpenFOAM.org                      |
|    \\/     M anipulation  |                                                 |
\*---------------------------------------------------------------------------*/
FoamFile
{
    version     2.0;
    format      ascii;
    class       volScalarField;
    location    "0.075";
    object      C5H5;
}
// * * * * * * * * * * * * * * * * * * * * * * * * * * * * * * * * * * * * * //

dimensions      [0 0 0 0 0 0 0];

internalField   nonuniform List<scalar> 
25
(
1.44341e-12
1.76975e-12
2.14483e-12
2.5834e-12
3.07157e-12
3.58223e-12
4.13495e-12
4.72303e-12
5.33955e-12
5.97693e-12
6.62679e-12
7.28005e-12
7.92717e-12
8.55816e-12
9.16248e-12
9.72922e-12
1.02474e-11
1.07069e-11
1.11001e-11
1.14181e-11
1.16426e-11
1.17627e-11
1.17795e-11
1.16923e-11
1.1505e-11
)
;

boundaryField
{
    wall
    {
        type            zeroGradient;
    }
    fuel
    {
        type            fixedValue;
        value           nonuniform 0();
    }
    outlet
    {
        type            inletOutlet;
        inletValue      nonuniform 0();
        value           nonuniform 0();
    }
    procBoundary2to1
    {
        type            processor;
        value           uniform 1.1623e-12;
    }
    procBoundary2to3
    {
        type            processor;
        value           uniform 1.121e-11;
    }
}


// ************************************************************************* //
