/*--------------------------------*- C++ -*----------------------------------*\
| =========                 |                                                 |
| \\      /  F ield         | OpenFOAM: The Open Source CFD Toolbox           |
|  \\    /   O peration     | Version:  dev                                   |
|   \\  /    A nd           | Web:      www.OpenFOAM.org                      |
|    \\/     M anipulation  |                                                 |
\*---------------------------------------------------------------------------*/
FoamFile
{
    version     2.0;
    format      ascii;
    class       volScalarField;
    location    "0.075";
    object      C5H5O;
}
// * * * * * * * * * * * * * * * * * * * * * * * * * * * * * * * * * * * * * //

dimensions      [0 0 0 0 0 0 0];

internalField   nonuniform List<scalar> 
25
(
7.44718e-21
8.76592e-21
1.02288e-20
1.18874e-20
1.36954e-20
1.55728e-20
1.7609e-20
1.98056e-20
2.21708e-20
2.47167e-20
2.74593e-20
3.04173e-20
3.36108e-20
3.70589e-20
4.07767e-20
4.47732e-20
4.90503e-20
5.36025e-20
5.84024e-20
6.33529e-20
6.83529e-20
7.31675e-20
7.76905e-20
8.17172e-20
8.49995e-20
)
;

boundaryField
{
    wall
    {
        type            zeroGradient;
    }
    fuel
    {
        type            fixedValue;
        value           nonuniform 0();
    }
    outlet
    {
        type            inletOutlet;
        inletValue      nonuniform 0();
        value           nonuniform 0();
    }
    procBoundary2to1
    {
        type            processor;
        value           uniform 6.26401e-21;
    }
    procBoundary2to3
    {
        type            processor;
        value           uniform 8.7275e-20;
    }
}


// ************************************************************************* //
