/*--------------------------------*- C++ -*----------------------------------*\
| =========                 |                                                 |
| \\      /  F ield         | OpenFOAM: The Open Source CFD Toolbox           |
|  \\    /   O peration     | Version:  dev                                   |
|   \\  /    A nd           | Web:      www.OpenFOAM.org                      |
|    \\/     M anipulation  |                                                 |
\*---------------------------------------------------------------------------*/
FoamFile
{
    version     2.0;
    format      ascii;
    class       volScalarField;
    location    "0.075";
    object      CO2;
}
// * * * * * * * * * * * * * * * * * * * * * * * * * * * * * * * * * * * * * //

dimensions      [0 0 0 0 0 0 0];

internalField   nonuniform List<scalar> 
25
(
0.0293571
0.0293517
0.0293438
0.029332
0.0293156
0.0292946
0.029267
0.0292312
0.0291859
0.0291293
0.0290597
0.0289752
0.028874
0.028754
0.0286135
0.0284506
0.0282633
0.0280493
0.0278051
0.0275282
0.0272193
0.0268839
0.0265158
0.026113
0.025675
)
;

boundaryField
{
    wall
    {
        type            zeroGradient;
    }
    fuel
    {
        type            fixedValue;
        value           nonuniform 0();
    }
    outlet
    {
        type            inletOutlet;
        inletValue      nonuniform 0();
        value           nonuniform 0();
    }
    procBoundary2to1
    {
        type            processor;
        value           uniform 0.0293605;
    }
    procBoundary2to3
    {
        type            processor;
        value           uniform 0.0251917;
    }
}


// ************************************************************************* //
