/*--------------------------------*- C++ -*----------------------------------*\
| =========                 |                                                 |
| \\      /  F ield         | OpenFOAM: The Open Source CFD Toolbox           |
|  \\    /   O peration     | Version:  dev                                   |
|   \\  /    A nd           | Web:      www.OpenFOAM.org                      |
|    \\/     M anipulation  |                                                 |
\*---------------------------------------------------------------------------*/
FoamFile
{
    version     2.0;
    format      ascii;
    class       volScalarField;
    location    "0.155";
    object      A2R5-;
}
// * * * * * * * * * * * * * * * * * * * * * * * * * * * * * * * * * * * * * //

dimensions      [0 0 0 0 0 0 0];

internalField   nonuniform List<scalar> 
250
(
2.39662e-08
2.39709e-08
2.39732e-08
2.39709e-08
2.39578e-08
2.39684e-08
2.40094e-08
2.41405e-08
2.48069e-08
2.39931e-08
1.09171e-10
3.08302e-08
3.0835e-08
3.0841e-08
3.08322e-08
3.08427e-08
3.08316e-08
3.09154e-08
3.11303e-08
3.23253e-08
3.1241e-08
1.00095e-10
3.07248e-08
3.07297e-08
3.07375e-08
3.07226e-08
3.0744e-08
3.07233e-08
3.08453e-08
3.11029e-08
3.26062e-08
3.01494e-08
7.85608e-11
2.84479e-08
2.84541e-08
2.84623e-08
2.84398e-08
2.84765e-08
2.84432e-08
2.86043e-08
2.8895e-08
3.05753e-08
2.70873e-08
7.21379e-11
2.56447e-08
2.56567e-08
2.5661e-08
2.56286e-08
2.56923e-08
2.5641e-08
2.58435e-08
2.61924e-08
2.79417e-08
2.41185e-08
7.65028e-11
2.29568e-08
2.29877e-08
2.29755e-08
2.29321e-08
2.30417e-08
2.2971e-08
2.32124e-08
2.33982e-08
2.53834e-08
2.17518e-08
9.32112e-11
2.05193e-08
2.06595e-08
2.05472e-08
2.04825e-08
2.06969e-08
2.05958e-08
2.09208e-08
2.10973e-08
2.31414e-08
2.02182e-08
1.349e-10
1.84541e-08
1.8364e-08
1.84912e-08
1.84159e-08
1.84237e-08
1.83184e-08
1.8665e-08
1.89002e-08
2.12385e-08
1.92584e-08
2.28789e-10
1.66732e-08
1.66145e-08
1.67182e-08
1.66337e-08
1.66907e-08
1.6582e-08
1.69462e-08
1.71199e-08
1.94215e-08
1.86448e-08
4.32201e-10
1.50982e-08
1.50546e-08
1.51535e-08
1.505e-08
1.5174e-08
1.50222e-08
1.54451e-08
1.5599e-08
1.78079e-08
1.81639e-08
8.60525e-10
1.35582e-08
1.36419e-08
1.35283e-08
1.36767e-08
1.35203e-08
1.39718e-08
1.40826e-08
1.65282e-08
1.77238e-08
1.71568e-09
1.22539e-08
1.2329e-08
1.22038e-08
1.23609e-08
1.22101e-08
1.26824e-08
1.27544e-08
1.52486e-08
1.72106e-08
3.27062e-09
1.11114e-08
1.11818e-08
1.10421e-08
1.11941e-08
1.10646e-08
1.15473e-08
1.15894e-08
1.40769e-08
1.66289e-08
5.76421e-09
1.01068e-08
1.01743e-08
1.0014e-08
1.02945e-08
1.00606e-08
1.05432e-08
1.05639e-08
1.30181e-08
1.5876e-08
9.04563e-09
9.21934e-09
9.28471e-09
9.21353e-09
9.39979e-09
9.17474e-09
9.65041e-09
9.65631e-09
1.20579e-08
1.50113e-08
1.25501e-08
8.43036e-09
8.49348e-09
8.41794e-09
8.60184e-09
8.38763e-09
8.85154e-09
8.84742e-09
1.11824e-08
1.40928e-08
1.56096e-08
7.72354e-09
7.78412e-09
7.7047e-09
7.88471e-09
7.68224e-09
8.13135e-09
8.12022e-09
1.03785e-08
1.32943e-08
1.77815e-08
7.08465e-09
7.14247e-09
7.05891e-09
7.23489e-09
7.04384e-09
7.4764e-09
7.46029e-09
9.63273e-09
1.24849e-08
1.89334e-08
6.50164e-09
6.55656e-09
6.46774e-09
6.64084e-09
6.4598e-09
6.87511e-09
6.85587e-09
8.93261e-09
1.16797e-08
1.91667e-08
5.96444e-09
6.01636e-09
5.91976e-09
6.09281e-09
5.9194e-09
6.31769e-09
6.29739e-09
8.35081e-09
1.0893e-08
1.86941e-08
5.46463e-09
5.51349e-09
5.46476e-09
5.58273e-09
5.41295e-09
5.79596e-09
5.77363e-09
7.75873e-09
1.01172e-08
1.77462e-08
4.9947e-09
5.03991e-09
4.99249e-09
5.10219e-09
4.98536e-09
5.30275e-09
5.33294e-09
7.17304e-09
9.37394e-09
1.65221e-08
4.59838e-09
4.64205e-09
4.59417e-09
4.70001e-09
4.58593e-09
4.89003e-09
4.91734e-09
6.60336e-09
8.55271e-09
1.51724e-08
4.19022e-09
4.23263e-09
4.1851e-09
4.28892e-09
4.17623e-09
4.47556e-09
4.48321e-09
6.04403e-09
7.84692e-09
1.38025e-08
)
;

boundaryField
{
    fuel
    {
        type            fixedValue;
        value           uniform 0;
    }
    wall
    {
        type            zeroGradient;
    }
    outlet
    {
        type            zeroGradient;
    }
    frontAndBack
    {
        type            empty;
    }
    procBoundary3to0
    {
        type            processor;
        value           nonuniform List<scalar> 10(3.83491e-09 3.87559e-09 3.82909e-09 3.92868e-09 3.82027e-09 4.10529e-09 4.10348e-09 5.55816e-09 7.12533e-09 1.24677e-08);
    }
    procBoundary3to2
    {
        type            processor;
        value           nonuniform List<scalar> 
25
(
2.39759e-08
3.0841e-08
3.07337e-08
2.84553e-08
2.56506e-08
2.29612e-08
2.05223e-08
1.84555e-08
1.66732e-08
1.50975e-08
1.35871e-08
1.35871e-08
1.22756e-08
1.1131e-08
1.01265e-08
9.23987e-09
8.4521e-09
7.74648e-09
7.10863e-09
6.52634e-09
5.98943e-09
5.48936e-09
5.01854e-09
4.62188e-09
4.21268e-09
)
;
    }
}


// ************************************************************************* //
