/*--------------------------------*- C++ -*----------------------------------*\
| =========                 |                                                 |
| \\      /  F ield         | OpenFOAM: The Open Source CFD Toolbox           |
|  \\    /   O peration     | Version:  dev                                   |
|   \\  /    A nd           | Web:      www.OpenFOAM.org                      |
|    \\/     M anipulation  |                                                 |
\*---------------------------------------------------------------------------*/
FoamFile
{
    version     2.0;
    format      ascii;
    class       volScalarField;
    location    "0.155";
    object      AC3H4;
}
// * * * * * * * * * * * * * * * * * * * * * * * * * * * * * * * * * * * * * //

dimensions      [0 0 0 0 0 0 0];

internalField   nonuniform List<scalar> 
50
(
3.5528e-22
3.93371e-22
4.39204e-22
4.93054e-22
5.57914e-22
6.36627e-22
7.32893e-22
8.53568e-22
1.00439e-21
1.19454e-21
1.43204e-21
1.73604e-21
2.12845e-21
2.64486e-21
3.30825e-21
4.18154e-21
5.3258e-21
6.85766e-21
8.8922e-21
1.15362e-20
1.50264e-20
1.96092e-20
2.56463e-20
3.34078e-20
4.3378e-20
5.62166e-20
7.21204e-20
9.19359e-20
1.16297e-19
1.44899e-19
1.78466e-19
2.16956e-19
2.59989e-19
3.06714e-19
3.56627e-19
4.06456e-19
4.54781e-19
4.99023e-19
5.36311e-19
5.63977e-19
5.79637e-19
5.8148e-19
5.6845e-19
5.40292e-19
4.97436e-19
4.40784e-19
3.71495e-19
2.90412e-19
1.95937e-19
7.83945e-20
)
;

boundaryField
{
    wall
    {
        type            zeroGradient;
    }
    fuel
    {
        type            fixedValue;
        value           nonuniform 0();
    }
    outlet
    {
        type            inletOutlet;
        inletValue      uniform 0;
        value           uniform 0;
    }
    procBoundary3to2
    {
        type            processor;
        value           uniform 3.23234e-22;
    }
}


// ************************************************************************* //
