/*--------------------------------*- C++ -*----------------------------------*\
| =========                 |                                                 |
| \\      /  F ield         | OpenFOAM: The Open Source CFD Toolbox           |
|  \\    /   O peration     | Version:  dev                                   |
|   \\  /    A nd           | Web:      www.OpenFOAM.org                      |
|    \\/     M anipulation  |                                                 |
\*---------------------------------------------------------------------------*/
FoamFile
{
    version     2.0;
    format      ascii;
    class       volScalarField;
    location    "0.155";
    object      c-C6H4;
}
// * * * * * * * * * * * * * * * * * * * * * * * * * * * * * * * * * * * * * //

dimensions      [0 0 0 0 0 0 0];

internalField   nonuniform List<scalar> 
250
(
3.82492e-06
3.82548e-06
3.82522e-06
3.82555e-06
3.82205e-06
3.82537e-06
3.82533e-06
3.82742e-06
3.81414e-06
3.13728e-06
1.76149e-07
6.93445e-06
6.9355e-06
6.9354e-06
6.93539e-06
6.93471e-06
6.93556e-06
6.93928e-06
6.95531e-06
6.98222e-06
6.06372e-06
3.30104e-07
8.33254e-06
8.33388e-06
8.33418e-06
8.333e-06
8.33408e-06
8.33403e-06
8.34315e-06
8.37779e-06
8.45252e-06
7.35101e-06
3.71481e-07
8.36575e-06
8.36761e-06
8.36804e-06
8.36519e-06
8.36993e-06
8.36809e-06
8.38301e-06
8.44484e-06
8.5516e-06
7.44961e-06
3.52996e-07
7.57211e-06
7.57614e-06
7.57483e-06
7.56975e-06
7.58288e-06
7.57734e-06
7.59873e-06
7.70391e-06
7.81042e-06
6.91802e-06
3.11938e-07
6.46875e-06
6.48098e-06
6.47167e-06
6.46398e-06
6.49442e-06
6.4842e-06
6.51172e-06
6.56585e-06
6.7463e-06
6.13367e-06
2.66537e-07
5.32846e-06
5.39364e-06
5.33418e-06
5.31902e-06
5.39611e-06
5.37509e-06
5.43232e-06
5.49427e-06
5.67895e-06
5.38177e-06
2.23175e-07
4.34692e-06
4.30386e-06
4.35515e-06
4.33767e-06
4.31256e-06
4.29326e-06
4.35071e-06
4.45004e-06
4.75747e-06
4.72471e-06
1.83463e-07
3.55031e-06
3.52246e-06
3.56063e-06
3.54211e-06
3.53578e-06
3.51863e-06
3.57484e-06
3.6485e-06
3.93358e-06
4.17096e-06
1.53866e-07
2.9224e-06
2.90311e-06
2.93559e-06
2.913e-06
2.93141e-06
2.90064e-06
2.97176e-06
3.03493e-06
3.2873e-06
3.70744e-06
1.57313e-07
2.39299e-06
2.41607e-06
2.39358e-06
2.41935e-06
2.38913e-06
2.46364e-06
2.50714e-06
2.84784e-06
3.39097e-06
2.36522e-07
2.0162e-06
2.03347e-06
2.01069e-06
2.03788e-06
2.01036e-06
2.0867e-06
2.11333e-06
2.47686e-06
3.14094e-06
4.3739e-07
1.73584e-06
1.74962e-06
1.72578e-06
1.74974e-06
1.7288e-06
1.8047e-06
1.81911e-06
2.18751e-06
2.94957e-06
7.77935e-07
1.52359e-06
1.53525e-06
1.50871e-06
1.55666e-06
1.51642e-06
1.58978e-06
1.59623e-06
1.96102e-06
2.77817e-06
1.22708e-06
1.35903e-06
1.36931e-06
1.35956e-06
1.38827e-06
1.35216e-06
1.42189e-06
1.42356e-06
1.77923e-06
2.62894e-06
1.76422e-06
1.22792e-06
1.23714e-06
1.22701e-06
1.25385e-06
1.22152e-06
1.28711e-06
1.28615e-06
1.6293e-06
2.49684e-06
2.39458e-06
1.12056e-06
1.12891e-06
1.1186e-06
1.14356e-06
1.11462e-06
1.17593e-06
1.17371e-06
1.50225e-06
2.39315e-06
3.11807e-06
1.03046e-06
1.03802e-06
1.02756e-06
1.05082e-06
1.02486e-06
1.08193e-06
1.07931e-06
1.39174e-06
2.2934e-06
3.89757e-06
9.53228e-07
9.60065e-07
9.49336e-07
9.71222e-07
9.47779e-07
1.00077e-06
9.98355e-07
1.29324e-06
2.19537e-06
4.65699e-06
8.85925e-07
8.92086e-07
8.80735e-07
9.01768e-07
8.80355e-07
9.29498e-07
9.27766e-07
1.21486e-06
2.09766e-06
5.30514e-06
8.26497e-07
8.32019e-07
8.26542e-07
8.40398e-07
8.20363e-07
8.66064e-07
8.65016e-07
1.13831e-06
1.99675e-06
5.76681e-06
7.73386e-07
7.78237e-07
7.73161e-07
7.85415e-07
7.72072e-07
8.0893e-07
8.14746e-07
1.0655e-06
1.89387e-06
6.00327e-06
7.30691e-07
7.3516e-07
7.3028e-07
7.41523e-07
7.29167e-07
7.6325e-07
7.6967e-07
9.97311e-07
1.77157e-06
6.01562e-06
6.8901e-07
6.93127e-07
6.88542e-07
6.98962e-07
6.87472e-07
7.19617e-07
7.25016e-07
9.32703e-07
1.65888e-06
5.83537e-06
)
;

boundaryField
{
    fuel
    {
        type            fixedValue;
        value           uniform 0;
    }
    wall
    {
        type            zeroGradient;
    }
    outlet
    {
        type            zeroGradient;
    }
    frontAndBack
    {
        type            empty;
    }
    procBoundary3to0
    {
        type            processor;
        value           nonuniform List<scalar> 10(6.54317e-07 6.58093e-07 6.53818e-07 6.6334e-07 6.52838e-07 6.82396e-07 6.87595e-07 8.78288e-07 1.53681e-06 5.50768e-06);
    }
    procBoundary3to2
    {
        type            processor;
        value           nonuniform List<scalar> 
25
(
3.82558e-06
6.93595e-06
8.33409e-06
8.36737e-06
7.57369e-06
6.46998e-06
5.32921e-06
4.34699e-06
3.54976e-06
2.92149e-06
2.40389e-06
2.40389e-06
2.02276e-06
1.74036e-06
1.52724e-06
1.36232e-06
1.23108e-06
1.1237e-06
1.03361e-06
9.56374e-07
8.89028e-07
8.295e-07
7.76216e-07
7.33417e-07
6.91551e-07
)
;
    }
}


// ************************************************************************* //
