/*--------------------------------*- C++ -*----------------------------------*\
| =========                 |                                                 |
| \\      /  F ield         | OpenFOAM: The Open Source CFD Toolbox           |
|  \\    /   O peration     | Version:  dev                                   |
|   \\  /    A nd           | Web:      www.OpenFOAM.org                      |
|    \\/     M anipulation  |                                                 |
\*---------------------------------------------------------------------------*/
FoamFile
{
    version     2.0;
    format      ascii;
    class       volScalarField;
    location    "0.155";
    object      C5H6;
}
// * * * * * * * * * * * * * * * * * * * * * * * * * * * * * * * * * * * * * //

dimensions      [0 0 0 0 0 0 0];

internalField   nonuniform List<scalar> 
250
(
2.24281e-06
2.24288e-06
2.24295e-06
2.24292e-06
2.24375e-06
2.24298e-06
2.24421e-06
2.25184e-06
2.28808e-06
2.83287e-06
1.36259e-06
1.8243e-06
1.82442e-06
1.82443e-06
1.82443e-06
1.8245e-06
1.82458e-06
1.82555e-06
1.83483e-06
1.87424e-06
2.4393e-06
2.7189e-06
1.46116e-06
1.4613e-06
1.46127e-06
1.46126e-06
1.46125e-06
1.46153e-06
1.46265e-06
1.47417e-06
1.51513e-06
2.05461e-06
3.50207e-06
1.20491e-06
1.20509e-06
1.20503e-06
1.20483e-06
1.2053e-06
1.20527e-06
1.20716e-06
1.22133e-06
1.26407e-06
1.74553e-06
3.75227e-06
1.01909e-06
1.01951e-06
1.01924e-06
1.01867e-06
1.02034e-06
1.01955e-06
1.02281e-06
1.04113e-06
1.08488e-06
1.50144e-06
3.55319e-06
8.73567e-07
8.74907e-07
8.73762e-07
8.72747e-07
8.76619e-07
8.74895e-07
8.79757e-07
8.90893e-07
9.46708e-07
1.29623e-06
3.16019e-06
7.49313e-07
7.56155e-07
7.49882e-07
7.47906e-07
7.56992e-07
7.53738e-07
7.6263e-07
7.74325e-07
8.34199e-07
1.13533e-06
2.73433e-06
6.44857e-07
6.40079e-07
6.45831e-07
6.43427e-07
6.41976e-07
6.38507e-07
6.48361e-07
6.6375e-07
7.4013e-07
1.0036e-06
2.32725e-06
5.55103e-07
5.51867e-07
5.56444e-07
5.53721e-07
5.54576e-07
5.50959e-07
5.61535e-07
5.74151e-07
6.50657e-07
8.93799e-07
1.92365e-06
4.77061e-07
4.74615e-07
4.78875e-07
4.75403e-07
4.79459e-07
4.73723e-07
4.8702e-07
4.98668e-07
5.72504e-07
8.00408e-07
1.47712e-06
4.03032e-07
4.06398e-07
4.0269e-07
4.07796e-07
4.01851e-07
4.16306e-07
4.25592e-07
5.12756e-07
7.35862e-07
9.96681e-07
3.4373e-07
3.46519e-07
3.42548e-07
3.47851e-07
3.42237e-07
3.57382e-07
3.64434e-07
4.55634e-07
6.83668e-07
6.26459e-07
2.9501e-07
2.9742e-07
2.93078e-07
2.97811e-07
2.93358e-07
3.08609e-07
3.13911e-07
4.06019e-07
6.43308e-07
4.46635e-07
2.55254e-07
2.57388e-07
2.52407e-07
2.61881e-07
2.53637e-07
2.6843e-07
2.72523e-07
3.63737e-07
6.07436e-07
3.91412e-07
2.22958e-07
2.24874e-07
2.23284e-07
2.2893e-07
2.21463e-07
2.35431e-07
2.38785e-07
3.27732e-07
5.77263e-07
4.03796e-07
1.9679e-07
1.98495e-07
1.96913e-07
2.02078e-07
1.95455e-07
2.0837e-07
2.11351e-07
2.97032e-07
5.51985e-07
4.60396e-07
1.75611e-07
1.77111e-07
1.75574e-07
1.80213e-07
1.74442e-07
1.86189e-07
1.8906e-07
2.70775e-07
5.33294e-07
5.52507e-07
1.58489e-07
1.59785e-07
1.58298e-07
1.62426e-07
1.57465e-07
1.68011e-07
1.70952e-07
2.48192e-07
5.15669e-07
6.74437e-07
1.44671e-07
1.4577e-07
1.443e-07
1.47983e-07
1.43755e-07
1.53124e-07
1.56261e-07
2.28647e-07
4.98202e-07
8.18409e-07
1.33571e-07
1.34479e-07
1.32954e-07
1.36299e-07
1.327e-07
1.40958e-07
1.44394e-07
2.13912e-07
4.80381e-07
9.73011e-07
1.24731e-07
1.25456e-07
1.24916e-07
1.26919e-07
1.23822e-07
1.31063e-07
1.34841e-07
2.00391e-07
4.61604e-07
1.12414e-06
1.17808e-07
1.18348e-07
1.17937e-07
1.19476e-07
1.17621e-07
1.23095e-07
1.28169e-07
1.88475e-07
4.42169e-07
1.25737e-06
1.13219e-07
1.13621e-07
1.13308e-07
1.14492e-07
1.13051e-07
1.17663e-07
1.23149e-07
1.78306e-07
4.19063e-07
1.36065e-06
1.09771e-07
1.10028e-07
1.09844e-07
1.10664e-07
1.09642e-07
1.13445e-07
1.19216e-07
1.69702e-07
3.98482e-07
1.42629e-06
)
;

boundaryField
{
    fuel
    {
        type            fixedValue;
        value           uniform 0;
    }
    wall
    {
        type            zeroGradient;
    }
    outlet
    {
        type            zeroGradient;
    }
    frontAndBack
    {
        type            empty;
    }
    procBoundary3to0
    {
        type            processor;
        value           nonuniform List<scalar> 10(1.08038e-07 1.08152e-07 1.0811e-07 1.08564e-07 1.07959e-07 1.10902e-07 1.17084e-07 1.63527e-07 3.76697e-07 1.45051e-06);
    }
    procBoundary3to2
    {
        type            processor;
        value           nonuniform List<scalar> 
25
(
2.24303e-06
1.82448e-06
1.46132e-06
1.20505e-06
1.01918e-06
8.73597e-07
7.49274e-07
6.44738e-07
5.54913e-07
4.76823e-07
4.0462e-07
4.0462e-07
3.44855e-07
2.95903e-07
2.56027e-07
2.2366e-07
1.97442e-07
1.76224e-07
1.59066e-07
1.45213e-07
1.34075e-07
1.25193e-07
1.18219e-07
1.1359e-07
1.10089e-07
)
;
    }
}


// ************************************************************************* //
