/*--------------------------------*- C++ -*----------------------------------*\
| =========                 |                                                 |
| \\      /  F ield         | OpenFOAM: The Open Source CFD Toolbox           |
|  \\    /   O peration     | Version:  dev                                   |
|   \\  /    A nd           | Web:      www.OpenFOAM.org                      |
|    \\/     M anipulation  |                                                 |
\*---------------------------------------------------------------------------*/
FoamFile
{
    version     2.0;
    format      ascii;
    class       volScalarField;
    location    "0.155";
    object      CH2(S);
}
// * * * * * * * * * * * * * * * * * * * * * * * * * * * * * * * * * * * * * //

dimensions      [0 0 0 0 0 0 0];

internalField   nonuniform List<scalar> 
250
(
2.2612e-06
2.26124e-06
2.2612e-06
2.26126e-06
2.26331e-06
2.26127e-06
2.26124e-06
2.26003e-06
2.25019e-06
2.06184e-06
7.40664e-10
1.32773e-06
1.32791e-06
1.32771e-06
1.32805e-06
1.32792e-06
1.32805e-06
1.32765e-06
1.32781e-06
1.32016e-06
1.22635e-06
7.40356e-10
6.5039e-07
6.50591e-07
6.50376e-07
6.50765e-07
6.50271e-07
6.50818e-07
6.50175e-07
6.51306e-07
6.43563e-07
5.89292e-07
5.41525e-10
3.21832e-07
3.21977e-07
3.21842e-07
3.22101e-07
3.21741e-07
3.222e-07
3.21623e-07
3.23261e-07
3.15978e-07
2.81838e-07
4.41652e-10
1.76974e-07
1.77065e-07
1.77001e-07
1.77119e-07
1.77003e-07
1.77267e-07
1.76864e-07
1.79447e-07
1.72103e-07
1.4773e-07
3.12263e-10
1.12327e-07
1.12414e-07
1.12356e-07
1.1239e-07
1.12545e-07
1.12666e-07
1.12359e-07
1.11467e-07
1.08063e-07
8.68633e-08
2.02079e-10
8.11702e-08
8.21211e-08
8.12415e-08
8.11334e-08
8.20298e-08
8.19135e-08
8.21798e-08
8.15977e-08
7.7979e-08
6.02296e-08
1.61749e-10
6.55753e-08
6.50627e-08
6.5655e-08
6.55265e-08
6.5075e-08
6.495e-08
6.52143e-08
6.51598e-08
6.28932e-08
4.72595e-08
2.09773e-10
5.6998e-08
5.67427e-08
5.70875e-08
5.69479e-08
5.6808e-08
5.66861e-08
5.69518e-08
5.64496e-08
5.39452e-08
4.04954e-08
4.67558e-10
5.1824e-08
5.16834e-08
5.19366e-08
5.17587e-08
5.18697e-08
5.1634e-08
5.203e-08
5.13171e-08
4.861e-08
3.66313e-08
1.35444e-09
4.81076e-08
4.82822e-08
4.80905e-08
4.82925e-08
4.80438e-08
4.84954e-08
4.75496e-08
4.54625e-08
3.45395e-08
3.88421e-09
4.55615e-08
4.57018e-08
4.54864e-08
4.57333e-08
4.54778e-08
4.59881e-08
4.48542e-08
4.29209e-08
3.29574e-08
9.45815e-09
4.35402e-08
4.36688e-08
4.34187e-08
4.36824e-08
4.34403e-08
4.40055e-08
4.27223e-08
4.08496e-08
3.15856e-08
1.85047e-08
4.17836e-08
4.19119e-08
4.16107e-08
4.21195e-08
4.16737e-08
4.22881e-08
4.08851e-08
3.90533e-08
3.0039e-08
2.91974e-08
4.01537e-08
4.02877e-08
4.01297e-08
4.04982e-08
4.00356e-08
4.06986e-08
3.91973e-08
3.74096e-08
2.8356e-08
3.8322e-08
3.85737e-08
3.87157e-08
3.85276e-08
3.89298e-08
3.84475e-08
3.91605e-08
3.75776e-08
3.5852e-08
2.66082e-08
4.32796e-08
3.69972e-08
3.71484e-08
3.69295e-08
3.73661e-08
3.68617e-08
3.76279e-08
3.59772e-08
3.43411e-08
2.51169e-08
4.35157e-08
3.53937e-08
3.55547e-08
3.53019e-08
3.57759e-08
3.52459e-08
3.60695e-08
3.43646e-08
3.2848e-08
2.36379e-08
4.01914e-08
3.37399e-08
3.3911e-08
3.36187e-08
3.41359e-08
3.35751e-08
3.44616e-08
3.27173e-08
3.13474e-08
2.22087e-08
3.50385e-08
3.20161e-08
3.21975e-08
3.18544e-08
3.24266e-08
3.18269e-08
3.27837e-08
3.1016e-08
3.0008e-08
2.08592e-08
2.94907e-08
3.02042e-08
3.03957e-08
3.0202e-08
3.06302e-08
2.99771e-08
3.10167e-08
2.92307e-08
2.85412e-08
1.95727e-08
2.4401e-08
2.82843e-08
2.84829e-08
2.82693e-08
2.87227e-08
2.82213e-08
2.914e-08
2.75569e-08
2.69783e-08
1.83746e-08
2.01237e-08
2.64691e-08
2.66812e-08
2.64425e-08
2.69318e-08
2.63842e-08
2.73824e-08
2.58045e-08
2.53379e-08
1.70701e-08
1.67033e-08
2.4379e-08
2.46073e-08
2.43447e-08
2.48826e-08
2.42792e-08
2.54106e-08
2.37766e-08
2.35961e-08
1.59419e-08
1.40357e-08
)
;

boundaryField
{
    fuel
    {
        type            fixedValue;
        value           uniform 0;
    }
    wall
    {
        type            zeroGradient;
    }
    outlet
    {
        type            zeroGradient;
    }
    frontAndBack
    {
        type            empty;
    }
    procBoundary3to0
    {
        type            processor;
        value           nonuniform List<scalar> 10(2.23649e-08 2.2604e-08 2.23234e-08 2.28909e-08 2.2255e-08 2.34576e-08 2.18277e-08 2.19618e-08 1.47649e-08 1.19561e-08);
    }
    procBoundary3to2
    {
        type            processor;
        value           nonuniform List<scalar> 
25
(
2.26198e-06
1.32807e-06
6.50647e-07
3.2201e-07
1.77083e-07
1.12389e-07
8.12068e-08
6.55969e-08
5.70128e-08
5.18382e-08
4.81746e-08
4.81746e-08
4.55994e-08
4.35703e-08
4.18153e-08
4.01909e-08
3.8618e-08
3.70494e-08
3.54538e-08
3.38074e-08
3.20903e-08
3.02838e-08
2.83673e-08
2.6558e-08
2.44719e-08
)
;
    }
}


// ************************************************************************* //
