/*--------------------------------*- C++ -*----------------------------------*\
| =========                 |                                                 |
| \\      /  F ield         | OpenFOAM: The Open Source CFD Toolbox           |
|  \\    /   O peration     | Version:  dev                                   |
|   \\  /    A nd           | Web:      www.OpenFOAM.org                      |
|    \\/     M anipulation  |                                                 |
\*---------------------------------------------------------------------------*/
FoamFile
{
    version     2.0;
    format      ascii;
    class       volScalarField;
    location    "0.155";
    object      CH2OH;
}
// * * * * * * * * * * * * * * * * * * * * * * * * * * * * * * * * * * * * * //

dimensions      [0 0 0 0 0 0 0];

internalField   nonuniform List<scalar> 
250
(
1.33861e-06
1.33873e-06
1.33879e-06
1.33878e-06
1.33876e-06
1.33876e-06
1.33874e-06
1.33867e-06
1.33492e-06
1.30686e-06
6.10741e-10
7.63909e-07
7.63819e-07
7.63945e-07
7.63822e-07
7.63923e-07
7.63891e-07
7.63831e-07
7.63951e-07
7.62586e-07
7.60713e-07
5.22439e-10
3.70591e-07
3.70481e-07
3.706e-07
3.70453e-07
3.70607e-07
3.70559e-07
3.70478e-07
3.7052e-07
3.68688e-07
3.71228e-07
2.90901e-10
1.8203e-07
1.82053e-07
1.82025e-07
1.81913e-07
1.82152e-07
1.82113e-07
1.82029e-07
1.81933e-07
1.79905e-07
1.84882e-07
1.59822e-10
9.91328e-08
9.94867e-08
9.91069e-08
9.90398e-08
9.9541e-08
9.95228e-08
9.94167e-08
9.90965e-08
9.69858e-08
1.02589e-07
1.00263e-10
6.21513e-08
6.17153e-08
6.21005e-08
6.20443e-08
6.16811e-08
6.1735e-08
6.16371e-08
6.16756e-08
5.99618e-08
6.48425e-08
7.70376e-11
4.47928e-08
4.45879e-08
4.47466e-08
4.4539e-08
4.43779e-08
4.45939e-08
4.43137e-08
4.42392e-08
4.24706e-08
4.37235e-08
8.36839e-11
3.53367e-08
3.52547e-08
3.54539e-08
3.55689e-08
3.54697e-08
3.52551e-08
3.54411e-08
3.54283e-08
3.31586e-08
3.28748e-08
2.34074e-10
3.05672e-08
3.05412e-08
3.07086e-08
3.06646e-08
3.06144e-08
3.05369e-08
3.05689e-08
3.02838e-08
2.82555e-08
2.55996e-08
1.54607e-09
2.77559e-08
2.77565e-08
2.78658e-08
2.77926e-08
2.77598e-08
2.77502e-08
2.77293e-08
2.74316e-08
2.49682e-08
2.08492e-08
9.68741e-09
2.58231e-08
2.58925e-08
2.5821e-08
2.5783e-08
2.5818e-08
2.57876e-08
2.55521e-08
2.27912e-08
1.74178e-08
3.2744e-08
2.43841e-08
2.44213e-08
2.4356e-08
2.43017e-08
2.43817e-08
2.43438e-08
2.40816e-08
2.14102e-08
1.48664e-08
6.07701e-08
2.32504e-08
2.32688e-08
2.31997e-08
2.32227e-08
2.32528e-08
2.32123e-08
2.29371e-08
2.02201e-08
1.29311e-08
6.35086e-08
2.22782e-08
2.22862e-08
2.21989e-08
2.23228e-08
2.22872e-08
2.22453e-08
2.19687e-08
1.9212e-08
1.14684e-08
4.45456e-08
2.13911e-08
2.13937e-08
2.13945e-08
2.14425e-08
2.14067e-08
2.13647e-08
2.1096e-08
1.84449e-08
1.03982e-08
2.59337e-08
2.05461e-08
2.05457e-08
2.0536e-08
2.05949e-08
2.05685e-08
2.05273e-08
2.02726e-08
1.77305e-08
9.56019e-09
1.48742e-08
1.97176e-08
1.97153e-08
1.96945e-08
1.97655e-08
1.9747e-08
1.97071e-08
1.94695e-08
1.70288e-08
8.95119e-09
9.35607e-09
1.88887e-08
1.8885e-08
1.88523e-08
1.89368e-08
1.89253e-08
1.8887e-08
1.86668e-08
1.63688e-08
8.55042e-09
6.62806e-09
1.80467e-08
1.80416e-08
1.79952e-08
1.8096e-08
1.80907e-08
1.80543e-08
1.78471e-08
1.57316e-08
8.3176e-09
5.15005e-09
1.7181e-08
1.71744e-08
1.71089e-08
1.72323e-08
1.72325e-08
1.71981e-08
1.7107e-08
1.51017e-08
8.16223e-09
4.25561e-09
1.62811e-08
1.62736e-08
1.62922e-08
1.63362e-08
1.63405e-08
1.63068e-08
1.62907e-08
1.44623e-08
8.07082e-09
3.68296e-09
1.53359e-08
1.53294e-08
1.53363e-08
1.53947e-08
1.54032e-08
1.53678e-08
1.5393e-08
1.37997e-08
8.01006e-09
3.32496e-09
1.44522e-08
1.44533e-08
1.44358e-08
1.4514e-08
1.45262e-08
1.44838e-08
1.45546e-08
1.31033e-08
7.95376e-09
3.12751e-09
1.34492e-08
1.34716e-08
1.34908e-08
1.35195e-08
1.35345e-08
1.3558e-08
1.36524e-08
1.23587e-08
7.87782e-09
3.05371e-09
)
;

boundaryField
{
    fuel
    {
        type            fixedValue;
        value           uniform 0;
    }
    wall
    {
        type            zeroGradient;
    }
    outlet
    {
        type            zeroGradient;
    }
    frontAndBack
    {
        type            empty;
    }
    procBoundary3to0
    {
        type            processor;
        value           nonuniform List<scalar> 10(1.24754e-08 1.25095e-08 1.25067e-08 1.25488e-08 1.2567e-08 1.25905e-08 1.27269e-08 1.15513e-08 7.76153e-09 3.07605e-09);
    }
    procBoundary3to2
    {
        type            processor;
        value           nonuniform List<scalar> 
25
(
1.33907e-06
7.63877e-07
3.70461e-07
1.81923e-07
9.90674e-08
6.21192e-08
4.47827e-08
3.53517e-08
3.0593e-08
2.779e-08
2.58094e-08
2.58094e-08
2.43635e-08
2.32259e-08
2.22511e-08
2.13617e-08
2.05146e-08
1.96841e-08
1.88532e-08
1.80094e-08
1.7142e-08
1.62408e-08
1.52946e-08
1.44088e-08
1.3402e-08
)
;
    }
}


// ************************************************************************* //
