/*--------------------------------*- C++ -*----------------------------------*\
| =========                 |                                                 |
| \\      /  F ield         | OpenFOAM: The Open Source CFD Toolbox           |
|  \\    /   O peration     | Version:  dev                                   |
|   \\  /    A nd           | Web:      www.OpenFOAM.org                      |
|    \\/     M anipulation  |                                                 |
\*---------------------------------------------------------------------------*/
FoamFile
{
    version     2.0;
    format      ascii;
    class       volScalarField;
    location    "0.155";
    object      CH3O;
}
// * * * * * * * * * * * * * * * * * * * * * * * * * * * * * * * * * * * * * //

dimensions      [0 0 0 0 0 0 0];

internalField   nonuniform List<scalar> 
50
(
5.70196e-15
5.79444e-15
5.89579e-15
6.00346e-15
6.11956e-15
6.24459e-15
6.37915e-15
6.52635e-15
6.68593e-15
6.85947e-15
7.04557e-15
7.249e-15
7.47227e-15
7.72121e-15
7.99212e-15
8.29416e-15
8.63003e-15
9.01308e-15
9.44963e-15
9.94188e-15
1.05129e-14
1.11827e-14
1.19873e-14
1.2954e-14
1.41474e-14
1.56732e-14
1.7619e-14
2.02147e-14
2.37769e-14
2.86443e-14
3.55693e-14
4.56143e-14
6.0457e-14
8.27639e-14
1.17499e-13
1.70854e-13
2.55365e-13
3.9117e-13
6.11257e-13
9.70067e-13
1.55273e-12
2.48167e-12
3.90378e-12
5.92701e-12
8.48e-12
1.11344e-11
1.30304e-11
1.30466e-11
1.02194e-11
4.22861e-12
)
;

boundaryField
{
    wall
    {
        type            zeroGradient;
    }
    fuel
    {
        type            fixedValue;
        value           nonuniform 0();
    }
    outlet
    {
        type            inletOutlet;
        inletValue      uniform 0;
        value           uniform 0;
    }
    procBoundary3to2
    {
        type            processor;
        value           uniform 5.61642e-15;
    }
}


// ************************************************************************* //
