/*--------------------------------*- C++ -*----------------------------------*\
| =========                 |                                                 |
| \\      /  F ield         | OpenFOAM: The Open Source CFD Toolbox           |
|  \\    /   O peration     | Version:  dev                                   |
|   \\  /    A nd           | Web:      www.OpenFOAM.org                      |
|    \\/     M anipulation  |                                                 |
\*---------------------------------------------------------------------------*/
FoamFile
{
    version     2.0;
    format      ascii;
    class       volScalarField;
    location    "0.155";
    object      n-A1C2H2;
}
// * * * * * * * * * * * * * * * * * * * * * * * * * * * * * * * * * * * * * //

dimensions      [0 0 0 0 0 0 0];

internalField   nonuniform List<scalar> 
250
(
6.36117e-09
6.36052e-09
6.36173e-09
6.36062e-09
6.3799e-09
6.36153e-09
6.36866e-09
6.39055e-09
6.50064e-09
8.3653e-09
6.26436e-10
3.12097e-09
3.12131e-09
3.1212e-09
3.12159e-09
3.12412e-09
3.12186e-09
3.12384e-09
3.13988e-09
3.20294e-09
4.2066e-09
2.07452e-09
1.51682e-09
1.51726e-09
1.51693e-09
1.51756e-09
1.51717e-09
1.51789e-09
1.5183e-09
1.53222e-09
1.56891e-09
2.17263e-09
2.46113e-09
7.79543e-10
7.79881e-10
7.79646e-10
7.8002e-10
7.79604e-10
7.80477e-10
7.80652e-10
7.93484e-10
8.15039e-10
1.18284e-09
2.19607e-09
4.3543e-10
4.35727e-10
4.35538e-10
4.35599e-10
4.35849e-10
4.36264e-10
4.36688e-10
4.50713e-10
4.61703e-10
6.91246e-10
1.54214e-09
2.65549e-10
2.66049e-10
2.65643e-10
2.65505e-10
2.66685e-10
2.66708e-10
2.67285e-10
2.70914e-10
2.86338e-10
4.25332e-10
9.62467e-10
1.7315e-10
1.76565e-10
1.73379e-10
1.72829e-10
1.76427e-10
1.75762e-10
1.78022e-10
1.81704e-10
1.9317e-10
2.8562e-10
5.92546e-10
1.21096e-10
1.19264e-10
1.21378e-10
1.20803e-10
1.19443e-10
1.18885e-10
1.20883e-10
1.25857e-10
1.40474e-10
2.04705e-10
3.6342e-10
8.93573e-11
8.83621e-11
8.96756e-11
8.91201e-11
8.87032e-11
8.82518e-11
9.00442e-11
9.33225e-11
1.0553e-10
1.54876e-10
2.17748e-10
6.87355e-11
6.81394e-11
6.91193e-11
6.84791e-11
6.89207e-11
6.8082e-11
7.02151e-11
7.27747e-11
8.30834e-11
1.22375e-10
1.27696e-10
5.35004e-11
5.41345e-11
5.35325e-11
5.41915e-11
5.34087e-11
5.55277e-11
5.73044e-11
6.96189e-11
1.04418e-10
7.70711e-11
4.35584e-11
4.40046e-11
4.34182e-11
4.41031e-11
4.34183e-11
4.55045e-11
4.67174e-11
5.91355e-11
9.23704e-11
5.22855e-11
3.65438e-11
3.68866e-11
3.62898e-11
3.68814e-11
3.63777e-11
3.83898e-11
3.9231e-11
5.13578e-11
8.4346e-11
4.28947e-11
3.1411e-11
3.16931e-11
3.10459e-11
3.22076e-11
3.12455e-11
3.31441e-11
3.37548e-11
4.54499e-11
7.80696e-11
4.19811e-11
2.75238e-11
2.77672e-11
2.75342e-11
2.8218e-11
2.7369e-11
2.9137e-11
2.9611e-11
4.07925e-11
7.32517e-11
4.68931e-11
2.44865e-11
2.47003e-11
2.44672e-11
2.50919e-11
2.43458e-11
2.59774e-11
2.6374e-11
3.69961e-11
6.94157e-11
5.74971e-11
2.2049e-11
2.22376e-11
2.20069e-11
2.25755e-11
2.19215e-11
2.34178e-11
2.37732e-11
3.38095e-11
6.66285e-11
7.43358e-11
2.00508e-11
2.02168e-11
1.99883e-11
2.05063e-11
1.99335e-11
2.12986e-11
2.16354e-11
3.10666e-11
6.40348e-11
9.74278e-11
1.83875e-11
1.85326e-11
1.83031e-11
1.87786e-11
1.82755e-11
1.95156e-11
1.98497e-11
2.86578e-11
6.1506e-11
1.25514e-10
1.69899e-11
1.71152e-11
1.68783e-11
1.73219e-11
1.68768e-11
1.79988e-11
1.83444e-11
2.67917e-11
5.89737e-11
1.55899e-10
1.5811e-11
1.59174e-11
1.58115e-11
1.60888e-11
1.56883e-11
1.67009e-11
1.70644e-11
2.50119e-11
5.63409e-11
1.85026e-10
1.48184e-11
1.49053e-11
1.48158e-11
1.50437e-11
1.47958e-11
1.55897e-11
1.61043e-11
2.33687e-11
5.36295e-11
2.09442e-10
1.40896e-11
1.41631e-11
1.40845e-11
1.42775e-11
1.40663e-11
1.4768e-11
1.53067e-11
2.18882e-11
5.03883e-11
2.26642e-10
1.3448e-11
1.35078e-11
1.34431e-11
1.36028e-11
1.34269e-11
1.40498e-11
1.45847e-11
2.05544e-11
4.74426e-11
2.35455e-10
)
;

boundaryField
{
    fuel
    {
        type            fixedValue;
        value           uniform 0;
    }
    wall
    {
        type            zeroGradient;
    }
    outlet
    {
        type            zeroGradient;
    }
    frontAndBack
    {
        type            empty;
    }
    procBoundary3to0
    {
        type            processor;
        value           nonuniform List<scalar> 10(1.30002e-11 1.30464e-11 1.29964e-11 1.31215e-11 1.2983e-11 1.35162e-11 1.40676e-11 1.95141e-11 4.42552e-11 2.35685e-10);
    }
    procBoundary3to2
    {
        type            processor;
        value           nonuniform List<scalar> 
25
(
6.36429e-09
3.1221e-09
1.51747e-09
7.79951e-10
4.35669e-10
2.65674e-10
1.73208e-10
1.2111e-10
8.93462e-11
6.87157e-11
5.38084e-11
5.38084e-11
4.37285e-11
3.66551e-11
3.14981e-11
2.76012e-11
2.45602e-11
2.21213e-11
2.01223e-11
1.84577e-11
1.70578e-11
1.58752e-11
1.48773e-11
1.41445e-11
1.3497e-11
)
;
    }
}


// ************************************************************************* //
