/*--------------------------------*- C++ -*----------------------------------*\
| =========                 |                                                 |
| \\      /  F ield         | OpenFOAM: The Open Source CFD Toolbox           |
|  \\    /   O peration     | Version:  dev                                   |
|   \\  /    A nd           | Web:      www.OpenFOAM.org                      |
|    \\/     M anipulation  |                                                 |
\*---------------------------------------------------------------------------*/
FoamFile
{
    version     2.0;
    format      ascii;
    class       volScalarField;
    location    "0.155";
    object      P2;
}
// * * * * * * * * * * * * * * * * * * * * * * * * * * * * * * * * * * * * * //

dimensions      [0 0 0 0 0 0 0];

internalField   nonuniform List<scalar> 
50
(
3.98516e-23
3.51716e-23
3.08271e-23
2.69376e-23
2.34147e-23
2.02452e-23
1.74137e-23
1.4862e-23
1.26059e-23
1.06239e-23
8.92241e-24
7.44496e-24
6.16958e-24
5.06379e-24
4.14e-24
3.35827e-24
2.70731e-24
2.16006e-24
1.70863e-24
1.34674e-24
1.05348e-24
8.1822e-25
6.29728e-25
4.82679e-25
3.68036e-25
2.78393e-25
2.10698e-25
1.58961e-25
1.19703e-25
9.09371e-26
6.95383e-26
5.3702e-26
4.20209e-26
3.3422e-26
2.69902e-26
2.23055e-26
1.88073e-26
1.61635e-26
1.41344e-26
1.25334e-26
1.12225e-26
1.00969e-26
9.07751e-27
8.10501e-27
7.13482e-27
6.13322e-27
5.07274e-27
3.92445e-27
2.63451e-27
1.05247e-27
)
;

boundaryField
{
    wall
    {
        type            zeroGradient;
    }
    fuel
    {
        type            fixedValue;
        value           nonuniform 0();
    }
    outlet
    {
        type            inletOutlet;
        inletValue      uniform 0;
        value           uniform 0;
    }
    procBoundary3to2
    {
        type            processor;
        value           uniform 4.49214e-23;
    }
}


// ************************************************************************* //
