/*--------------------------------*- C++ -*----------------------------------*\
| =========                 |                                                 |
| \\      /  F ield         | OpenFOAM: The Open Source CFD Toolbox           |
|  \\    /   O peration     | Version:  dev                                   |
|   \\  /    A nd           | Web:      www.OpenFOAM.org                      |
|    \\/     M anipulation  |                                                 |
\*---------------------------------------------------------------------------*/
FoamFile
{
    version     2.0;
    format      ascii;
    class       volScalarField;
    location    "0.155";
    object      P2-H;
}
// * * * * * * * * * * * * * * * * * * * * * * * * * * * * * * * * * * * * * //

dimensions      [0 0 0 0 0 0 0];

internalField   nonuniform List<scalar> 
250
(
3.34217e-13
3.34264e-13
3.34249e-13
3.34281e-13
3.34219e-13
3.3427e-13
3.34428e-13
3.35705e-13
3.40543e-13
3.856e-13
3.90252e-14
2.02813e-13
2.02864e-13
2.02832e-13
2.0289e-13
2.02793e-13
2.02905e-13
2.02978e-13
2.04446e-13
2.09366e-13
2.71177e-13
1.15469e-14
9.55447e-14
9.55851e-14
9.55514e-14
9.56126e-14
9.55121e-14
9.56435e-14
9.56274e-14
9.68868e-14
9.98716e-14
1.44066e-13
8.23141e-15
4.2198e-14
4.22225e-14
4.2202e-14
4.22378e-14
4.21838e-14
4.22742e-14
4.22424e-14
4.32414e-14
4.4728e-14
7.0675e-14
5.88056e-15
1.89257e-14
1.89415e-14
1.89292e-14
1.89405e-14
1.89396e-14
1.89812e-14
1.89675e-14
1.98667e-14
2.04111e-14
3.47021e-14
3.40747e-15
8.98015e-15
8.99871e-15
8.98216e-15
8.98162e-15
9.02503e-15
9.03789e-15
9.0334e-15
9.23105e-15
9.88956e-15
1.72203e-14
1.78704e-15
4.51622e-15
4.65204e-15
4.52316e-15
4.50572e-15
4.64239e-15
4.62309e-15
4.69029e-15
4.8497e-15
5.21792e-15
9.34949e-15
9.79318e-16
2.48004e-15
2.41935e-15
2.48727e-15
2.47179e-15
2.42144e-15
2.40792e-15
2.4565e-15
2.63412e-15
3.04134e-15
5.48895e-15
5.98441e-16
1.4747e-15
1.44628e-15
1.48179e-15
1.46929e-15
1.45249e-15
1.44388e-15
1.4798e-15
1.57737e-15
1.85867e-15
3.47037e-15
4.16556e-16
9.40138e-16
9.25923e-16
9.48162e-16
9.35627e-16
9.41444e-16
9.25382e-16
9.64073e-16
1.02801e-15
1.22876e-15
2.34115e-15
3.30409e-16
6.14123e-16
6.26144e-16
6.16177e-16
6.26166e-16
6.13144e-16
6.467e-16
6.85024e-16
9.06643e-16
1.79549e-15
2.94911e-16
4.35406e-16
4.4255e-16
4.34116e-16
4.43773e-16
4.33705e-16
4.63202e-16
4.86464e-16
6.89644e-16
1.46944e-15
2.89347e-16
3.2667e-16
3.31408e-16
3.23739e-16
3.3113e-16
3.24672e-16
3.50511e-16
3.6522e-16
5.47682e-16
1.2735e-15
3.12031e-16
2.56627e-16
2.60084e-16
2.52389e-16
2.66448e-16
2.54736e-16
2.77173e-16
2.87122e-16
4.51018e-16
1.13591e-15
3.72522e-16
2.0906e-16
2.1177e-16
2.09339e-16
2.16904e-16
2.07397e-16
2.26838e-16
2.34155e-16
3.81715e-16
1.04131e-15
4.99448e-16
1.75194e-16
1.77397e-16
1.75106e-16
1.81542e-16
1.73776e-16
1.90625e-16
1.96486e-16
3.29684e-16
9.73601e-16
7.46385e-16
1.5009e-16
1.51911e-16
1.49765e-16
1.55267e-16
1.48883e-16
1.63506e-16
1.68556e-16
2.89018e-16
9.28513e-16
1.19458e-15
1.30863e-16
1.32379e-16
1.30357e-16
1.35099e-16
1.29816e-16
1.42527e-16
1.47124e-16
2.56106e-16
8.89556e-16
1.9409e-15
1.15771e-16
1.17033e-16
1.1509e-16
1.19234e-16
1.14826e-16
1.25884e-16
1.3025e-16
2.2869e-16
8.53507e-16
3.0567e-15
1.03729e-16
1.0477e-16
1.02837e-16
1.0654e-16
1.0282e-16
1.12444e-16
1.16743e-16
2.08323e-16
8.1829e-16
4.52707e-15
9.40341e-17
9.48815e-17
9.40503e-17
9.62908e-17
9.30861e-17
1.0147e-16
1.05775e-16
1.89648e-16
7.81437e-16
6.21348e-15
8.62215e-17
8.68839e-17
8.62109e-17
8.7978e-17
8.6061e-17
9.24739e-17
9.78607e-17
1.73005e-16
7.42106e-16
7.87737e-15
8.07087e-17
8.12451e-17
8.06793e-17
8.2116e-17
8.05532e-17
8.60669e-17
9.15388e-17
1.58486e-16
6.92485e-16
9.26125e-15
7.61026e-17
7.6513e-17
7.60761e-17
7.72016e-17
7.59725e-17
8.07124e-17
8.60825e-17
1.45832e-16
6.45215e-16
1.02083e-14
)
;

boundaryField
{
    fuel
    {
        type            fixedValue;
        value           uniform 0;
    }
    wall
    {
        type            zeroGradient;
    }
    outlet
    {
        type            zeroGradient;
    }
    frontAndBack
    {
        type            empty;
    }
    procBoundary3to0
    {
        type            processor;
        value           nonuniform List<scalar> 10(7.30766e-17 7.33688e-17 7.3061e-17 7.38834e-17 7.29841e-17 7.69245e-17 8.23691e-17 1.36183e-16 5.92162e-16 1.05173e-14);
    }
    procBoundary3to2
    {
        type            processor;
        value           nonuniform List<scalar> 
25
(
3.34288e-13
2.02878e-13
9.55923e-14
4.2227e-14
1.89406e-14
8.98672e-15
4.51881e-15
2.48062e-15
1.47449e-15
9.40086e-16
6.19659e-16
6.19659e-16
4.38284e-16
3.28326e-16
2.57753e-16
2.09947e-16
1.75962e-16
1.50789e-16
1.31514e-16
1.16381e-16
1.04295e-16
9.45523e-17
8.66828e-17
8.11276e-17
7.64643e-17
)
;
    }
}


// ************************************************************************* //
