/*--------------------------------*- C++ -*----------------------------------*\
| =========                 |                                                 |
| \\      /  F ield         | OpenFOAM: The Open Source CFD Toolbox           |
|  \\    /   O peration     | Version:  dev                                   |
|   \\  /    A nd           | Web:      www.OpenFOAM.org                      |
|    \\/     M anipulation  |                                                 |
\*---------------------------------------------------------------------------*/
FoamFile
{
    version     2.0;
    format      ascii;
    class       volScalarField;
    location    "0";
    object      i-C6H7;
}
// * * * * * * * * * * * * * * * * * * * * * * * * * * * * * * * * * * * * * //

dimensions      [0 0 0 0 0 0 0];

internalField   nonuniform List<scalar> 
12
(
1.59549e-15
2.15476e-15
2.82624e-15
3.60615e-15
4.47137e-15
5.38083e-15
6.27132e-15
7.11372e-15
7.86517e-15
8.45415e-15
8.86493e-15
9.07702e-15
)
;

boundaryField
{
    wall
    {
        type            zeroGradient;
    }
    fuel
    {
        type            fixedValue;
        value           nonuniform 0();
    }
    outlet
    {
        type            inletOutlet;
        inletValue      nonuniform 0();
        value           nonuniform 0();
    }
    procBoundary4to3
    {
        type            processor;
        value           uniform 1.1483e-15;
    }
    procBoundary4to5
    {
        type            processor;
        value           uniform 9.08439e-15;
    }
}


// ************************************************************************* //
