/*--------------------------------*- C++ -*----------------------------------*\
| =========                 |                                                 |
| \\      /  F ield         | OpenFOAM: The Open Source CFD Toolbox           |
|  \\    /   O peration     | Version:  dev                                   |
|   \\  /    A nd           | Web:      www.OpenFOAM.org                      |
|    \\/     M anipulation  |                                                 |
\*---------------------------------------------------------------------------*/
FoamFile
{
    version     2.0;
    format      ascii;
    class       volScalarField;
    location    "0.18";
    object      A2R5-;
}
// * * * * * * * * * * * * * * * * * * * * * * * * * * * * * * * * * * * * * //

dimensions      [0 0 0 0 0 0 0];

internalField   nonuniform List<scalar> 
50
(
2.31277e-16
2.07044e-16
1.85426e-16
1.66157e-16
1.48983e-16
1.33827e-16
1.20202e-16
1.0805e-16
9.72102e-17
8.75306e-17
7.89636e-17
7.12411e-17
6.43184e-17
5.81747e-17
5.26652e-17
4.77231e-17
4.32787e-17
3.92965e-17
3.57198e-17
3.24768e-17
2.95854e-17
2.6967e-17
2.45987e-17
2.24824e-17
2.05711e-17
1.88442e-17
1.72831e-17
1.58709e-17
1.45927e-17
1.34349e-17
1.23762e-17
1.14228e-17
1.05558e-17
9.76416e-18
9.04473e-18
8.38818e-18
7.7885e-18
7.2371e-18
6.72997e-18
6.26892e-18
5.84319e-18
5.45297e-18
5.09196e-18
4.75712e-18
4.4476e-18
4.16069e-18
3.89669e-18
3.65019e-18
3.42128e-18
3.20771e-18
)
;

boundaryField
{
    wall
    {
        type            zeroGradient;
    }
    fuel
    {
        type            fixedValue;
        value           nonuniform 0();
    }
    outlet
    {
        type            inletOutlet;
        inletValue      nonuniform 0();
        value           nonuniform 0();
    }
    procBoundary2to1
    {
        type            processor;
        value           uniform 2.58365e-16;
    }
    procBoundary2to3
    {
        type            processor;
        value           uniform 3.00597e-18;
    }
}


// ************************************************************************* //
