/*--------------------------------*- C++ -*----------------------------------*\
| =========                 |                                                 |
| \\      /  F ield         | OpenFOAM: The Open Source CFD Toolbox           |
|  \\    /   O peration     | Version:  dev                                   |
|   \\  /    A nd           | Web:      www.OpenFOAM.org                      |
|    \\/     M anipulation  |                                                 |
\*---------------------------------------------------------------------------*/
FoamFile
{
    version     2.0;
    format      ascii;
    class       volScalarField;
    location    "0.18";
    object      AC3H4;
}
// * * * * * * * * * * * * * * * * * * * * * * * * * * * * * * * * * * * * * //

dimensions      [0 0 0 0 0 0 0];

internalField   nonuniform List<scalar> 
50
(
2.20486e-22
2.04234e-22
1.89752e-22
1.76842e-22
1.65324e-22
1.5514e-22
1.45963e-22
1.37757e-22
1.30419e-22
1.23855e-22
1.18043e-22
1.1281e-22
1.08137e-22
1.04021e-22
1.00375e-22
9.71633e-23
9.43498e-23
9.19197e-23
8.98449e-23
8.80902e-23
8.66703e-23
8.55496e-23
8.47229e-23
8.41915e-23
8.39419e-23
8.39713e-23
8.42786e-23
8.48649e-23
8.5733e-23
8.68878e-23
8.83498e-23
9.01049e-23
9.21783e-23
9.45929e-23
9.73536e-23
1.0049e-22
1.04027e-22
1.08019e-22
1.12506e-22
1.1747e-22
1.23034e-22
1.29214e-22
1.36135e-22
1.43908e-22
1.52617e-22
1.62412e-22
1.73369e-22
1.8584e-22
2.00014e-22
2.16291e-22
)
;

boundaryField
{
    wall
    {
        type            zeroGradient;
    }
    fuel
    {
        type            fixedValue;
        value           nonuniform 0();
    }
    outlet
    {
        type            inletOutlet;
        inletValue      nonuniform 0();
        value           nonuniform 0();
    }
    procBoundary2to1
    {
        type            processor;
        value           uniform 2.38014e-22;
    }
    procBoundary2to3
    {
        type            processor;
        value           uniform 2.35404e-22;
    }
}


// ************************************************************************* //
