/*--------------------------------*- C++ -*----------------------------------*\
| =========                 |                                                 |
| \\      /  F ield         | OpenFOAM: The Open Source CFD Toolbox           |
|  \\    /   O peration     | Version:  dev                                   |
|   \\  /    A nd           | Web:      www.OpenFOAM.org                      |
|    \\/     M anipulation  |                                                 |
\*---------------------------------------------------------------------------*/
FoamFile
{
    version     2.0;
    format      ascii;
    class       volScalarField;
    location    "0.18";
    object      c-C6H4;
}
// * * * * * * * * * * * * * * * * * * * * * * * * * * * * * * * * * * * * * //

dimensions      [0 0 0 0 0 0 0];

internalField   nonuniform List<scalar> 
250
(
1.11768e-07
1.81029e-06
2.01931e-06
2.03491e-06
2.03552e-06
2.03541e-06
2.03543e-06
2.035e-06
2.03526e-06
3.17498e-07
7.02611e-06
7.04714e-06
6.97974e-06
6.96622e-06
6.96419e-06
6.96378e-06
6.96244e-06
6.96344e-06
4.91176e-07
1.00987e-05
9.4481e-06
9.22061e-06
9.1824e-06
9.17752e-06
9.17638e-06
9.17441e-06
9.17627e-06
6.23838e-07
1.07103e-05
9.45988e-06
9.08368e-06
9.02246e-06
9.01513e-06
9.01271e-06
9.01086e-06
9.01348e-06
7.29816e-07
1.01257e-05
8.42935e-06
7.93631e-06
7.85787e-06
7.84868e-06
7.84357e-06
7.84358e-06
7.84671e-06
8.2082e-07
9.1591e-06
7.15341e-06
6.57608e-06
6.48684e-06
6.47626e-06
6.46542e-06
6.47068e-06
6.47398e-06
9.03082e-07
8.16467e-06
5.97466e-06
5.34195e-06
5.24644e-06
5.23481e-06
5.212e-06
5.22909e-06
5.23226e-06
9.7436e-07
7.26614e-06
4.90479e-06
4.34578e-06
4.24735e-06
4.23508e-06
4.18829e-06
4.22947e-06
4.23225e-06
1.01884e-06
6.49246e-06
4.13061e-06
3.46698e-06
3.37874e-06
3.37007e-06
3.39883e-06
3.36443e-06
3.36591e-06
1.00951e-06
5.83521e-06
3.47112e-06
2.88247e-06
2.80867e-06
2.80115e-06
2.81477e-06
2.79606e-06
2.79705e-06
9.36486e-07
5.27614e-06
2.94674e-06
2.43435e-06
2.34849e-06
2.33899e-06
2.34016e-06
2.33451e-06
2.33443e-06
2.32907e-06
8.35744e-07
4.79613e-06
2.5867e-06
2.08434e-06
2.00334e-06
1.99414e-06
1.99791e-06
1.99037e-06
1.99016e-06
1.98858e-06
7.41096e-07
4.37772e-06
2.27879e-06
1.82159e-06
1.74333e-06
1.73416e-06
1.75642e-06
1.73076e-06
1.73094e-06
1.73285e-06
6.49832e-07
4.00926e-06
2.04964e-06
1.61918e-06
1.54333e-06
1.53379e-06
1.54531e-06
1.53045e-06
1.53158e-06
1.53464e-06
5.5686e-07
3.63711e-06
1.84771e-06
1.45844e-06
1.38546e-06
1.37555e-06
1.38073e-06
1.37175e-06
1.37428e-06
1.3768e-06
4.72619e-07
3.28549e-06
1.66932e-06
1.32702e-06
1.25734e-06
1.24723e-06
1.24906e-06
1.24237e-06
1.24668e-06
1.24819e-06
4.10495e-07
3.0005e-06
1.51731e-06
1.21668e-06
1.15063e-06
1.14048e-06
1.14056e-06
1.13394e-06
1.14037e-06
1.14103e-06
3.80326e-07
2.73052e-06
1.38561e-06
1.12179e-06
1.05969e-06
1.04967e-06
1.04884e-06
1.04063e-06
1.04972e-06
1.04979e-06
3.8408e-07
2.47675e-06
1.27011e-06
1.0382e-06
9.80746e-07
9.71012e-07
9.69796e-07
9.68625e-07
9.70981e-07
9.70632e-07
4.19815e-07
2.23957e-06
1.16791e-06
9.62269e-07
9.11214e-07
9.019e-07
9.00506e-07
8.98026e-07
9.01587e-07
9.00954e-07
4.8151e-07
2.01979e-06
1.07701e-06
9.00385e-07
8.49276e-07
8.40512e-07
8.3908e-07
8.34963e-07
8.39815e-07
8.38966e-07
5.59917e-07
1.78009e-06
9.95767e-07
8.43914e-07
7.93461e-07
7.85423e-07
7.84085e-07
7.84385e-07
7.84335e-07
7.83305e-07
6.45483e-07
1.59252e-06
9.2316e-07
7.94923e-07
7.48175e-07
7.41138e-07
7.39875e-07
7.39513e-07
7.39703e-07
7.38543e-07
7.27154e-07
1.42685e-06
8.57704e-07
7.49435e-07
7.07421e-07
6.98425e-07
6.97229e-07
6.96274e-07
6.96697e-07
6.95315e-07
7.95512e-07
1.28207e-06
8.04673e-07
7.09572e-07
6.70685e-07
6.62517e-07
6.61398e-07
6.60087e-07
6.60576e-07
6.5912e-07
8.44174e-07
1.15648e-06
7.54936e-07
6.73379e-07
6.37295e-07
6.29964e-07
6.28916e-07
6.27332e-07
6.2788e-07
6.26363e-07
)
;

boundaryField
{
    fuel
    {
        type            fixedValue;
        value           uniform 0;
    }
    wall
    {
        type            zeroGradient;
    }
    outlet
    {
        type            zeroGradient;
    }
    frontAndBack
    {
        type            empty;
    }
    procBoundary2to0
    {
        type            processor;
        value           nonuniform List<scalar> 
12
(
6.58352e-07
8.69339e-07
1.04843e-06
7.10961e-07
6.39967e-07
6.06631e-07
6.0002e-07
5.99022e-07
5.97232e-07
5.97846e-07
6.258e-07
5.96271e-07
)
;
    }
    procBoundary2to3
    {
        type            processor;
        value           nonuniform List<scalar> 
25
(
2.03505e-06
6.96272e-06
9.17491e-06
9.0115e-06
7.84428e-06
6.47123e-06
5.22914e-06
4.22857e-06
3.36087e-06
2.79165e-06
2.79165e-06
2.33457e-06
1.98949e-06
1.72944e-06
1.52936e-06
1.37151e-06
1.24356e-06
1.13707e-06
1.04638e-06
9.67686e-07
8.98431e-07
8.36856e-07
7.81598e-07
7.37167e-07
6.94275e-07
)
;
    }
}


// ************************************************************************* //
