/*--------------------------------*- C++ -*----------------------------------*\
| =========                 |                                                 |
| \\      /  F ield         | OpenFOAM: The Open Source CFD Toolbox           |
|  \\    /   O peration     | Version:  dev                                   |
|   \\  /    A nd           | Web:      www.OpenFOAM.org                      |
|    \\/     M anipulation  |                                                 |
\*---------------------------------------------------------------------------*/
FoamFile
{
    version     2.0;
    format      ascii;
    class       volScalarField;
    location    "0.18";
    object      C2H2;
}
// * * * * * * * * * * * * * * * * * * * * * * * * * * * * * * * * * * * * * //

dimensions      [0 0 0 0 0 0 0];

internalField   nonuniform List<scalar> 
50
(
1.86691e-11
1.72108e-11
1.59002e-11
1.47216e-11
1.36603e-11
1.27128e-11
1.185e-11
1.10693e-11
1.03621e-11
9.72004e-12
9.14169e-12
8.61054e-12
8.125e-12
7.68531e-12
7.28266e-12
6.9136e-12
6.57427e-12
6.26325e-12
5.97735e-12
5.71192e-12
5.46955e-12
5.24466e-12
5.0362e-12
4.84528e-12
4.66853e-12
4.50481e-12
4.35306e-12
4.21228e-12
4.08158e-12
3.96015e-12
3.8462e-12
3.7409e-12
3.64262e-12
3.55048e-12
3.46447e-12
3.38381e-12
3.30806e-12
3.23641e-12
3.16856e-12
3.10502e-12
3.04452e-12
2.98731e-12
2.93263e-12
2.8802e-12
2.83003e-12
2.78185e-12
2.73588e-12
2.69129e-12
2.6482e-12
2.6062e-12
)
;

boundaryField
{
    wall
    {
        type            zeroGradient;
    }
    fuel
    {
        type            fixedValue;
        value           nonuniform 0();
    }
    outlet
    {
        type            inletOutlet;
        inletValue      nonuniform 0();
        value           nonuniform 0();
    }
    procBoundary2to1
    {
        type            processor;
        value           uniform 2.02283e-11;
    }
    procBoundary2to3
    {
        type            processor;
        value           uniform 2.5647e-12;
    }
}


// ************************************************************************* //
