/*--------------------------------*- C++ -*----------------------------------*\
| =========                 |                                                 |
| \\      /  F ield         | OpenFOAM: The Open Source CFD Toolbox           |
|  \\    /   O peration     | Version:  dev                                   |
|   \\  /    A nd           | Web:      www.OpenFOAM.org                      |
|    \\/     M anipulation  |                                                 |
\*---------------------------------------------------------------------------*/
FoamFile
{
    version     2.0;
    format      ascii;
    class       volScalarField;
    location    "0.18";
    object      C2O;
}
// * * * * * * * * * * * * * * * * * * * * * * * * * * * * * * * * * * * * * //

dimensions      [0 0 0 0 0 0 0];

internalField   nonuniform List<scalar> 
250
(
8.0859e-07
5.78874e-06
5.91947e-06
5.95428e-06
5.97865e-06
5.97152e-06
5.9757e-06
5.97317e-06
5.9745e-06
2.6995e-05
7.06421e-06
7.0418e-06
7.022e-06
7.04261e-06
7.03003e-06
7.03716e-06
7.03209e-06
7.0349e-06
2.04739e-05
4.11977e-06
4.09783e-06
4.03002e-06
4.05025e-06
4.03079e-06
4.04139e-06
4.03364e-06
4.03807e-06
1.29205e-05
2.33742e-06
2.34674e-06
2.26286e-06
2.28509e-06
2.263e-06
2.27387e-06
2.26623e-06
2.27083e-06
8.46099e-06
1.48657e-06
1.51919e-06
1.43487e-06
1.45789e-06
1.43662e-06
1.44508e-06
1.43969e-06
1.44382e-06
6.04009e-06
1.06741e-06
1.10366e-06
1.03644e-06
1.06008e-06
1.04095e-06
1.04483e-06
1.04371e-06
1.04732e-06
4.63521e-06
8.13904e-07
8.86187e-07
8.2256e-07
8.41965e-07
8.22658e-07
8.33038e-07
8.25006e-07
8.28185e-07
3.70933e-06
6.61111e-07
7.58733e-07
7.01783e-07
7.21782e-07
7.03731e-07
7.09643e-07
7.0584e-07
7.08755e-07
3.01886e-06
5.59139e-07
6.61245e-07
6.17695e-07
6.37427e-07
6.21043e-07
6.31524e-07
6.22865e-07
6.25488e-07
2.46438e-06
4.93481e-07
6.03619e-07
5.58345e-07
5.77371e-07
5.62602e-07
5.70352e-07
5.64108e-07
5.66419e-07
2.00949e-06
4.42847e-07
5.52009e-07
5.13459e-07
5.32052e-07
5.18517e-07
5.24472e-07
5.19777e-07
5.21918e-07
5.20452e-07
1.6371e-06
3.9828e-07
5.10395e-07
4.77196e-07
4.95487e-07
4.82911e-07
4.87635e-07
4.83956e-07
4.86018e-07
4.84653e-07
1.33562e-06
3.61286e-07
4.75358e-07
4.46425e-07
4.6447e-07
4.5265e-07
4.56391e-07
4.53479e-07
4.55529e-07
4.54252e-07
1.09409e-06
3.2992e-07
4.44881e-07
4.19356e-07
4.37176e-07
4.25966e-07
4.28646e-07
4.26554e-07
4.28651e-07
4.27453e-07
9.00768e-07
3.05061e-07
4.17653e-07
3.9489e-07
4.12494e-07
4.01801e-07
4.06674e-07
4.02095e-07
4.04293e-07
4.03167e-07
7.45741e-07
2.83084e-07
3.92753e-07
3.72301e-07
3.89693e-07
3.79413e-07
3.84621e-07
3.7936e-07
3.81744e-07
3.8068e-07
6.19012e-07
2.63268e-07
3.69506e-07
3.51077e-07
3.68255e-07
3.58298e-07
3.63049e-07
3.57818e-07
3.60504e-07
3.59486e-07
5.12895e-07
2.45874e-07
3.47349e-07
3.30826e-07
3.47781e-07
3.38088e-07
3.42517e-07
3.3704e-07
3.40192e-07
3.39203e-07
4.22812e-07
2.29336e-07
3.25672e-07
3.11236e-07
3.27943e-07
3.18483e-07
3.22679e-07
3.19051e-07
3.20503e-07
3.19522e-07
3.46959e-07
2.14912e-07
3.08906e-07
2.92017e-07
3.08439e-07
2.99232e-07
3.03209e-07
2.99415e-07
3.01157e-07
3.00182e-07
2.8478e-07
2.01595e-07
2.91883e-07
2.74537e-07
2.88968e-07
2.80115e-07
2.83846e-07
2.79804e-07
2.8191e-07
2.80946e-07
2.35534e-07
1.89008e-07
2.73251e-07
2.56588e-07
2.69158e-07
2.60923e-07
2.64313e-07
2.62125e-07
2.62508e-07
2.61577e-07
1.97731e-07
1.76876e-07
2.5472e-07
2.39237e-07
2.51804e-07
2.43385e-07
2.46868e-07
2.44463e-07
2.45047e-07
2.44059e-07
1.69346e-07
1.64796e-07
2.35912e-07
2.2079e-07
2.33115e-07
2.24387e-07
2.27783e-07
2.25242e-07
2.25931e-07
2.24917e-07
1.48317e-07
1.53013e-07
2.16358e-07
2.03156e-07
2.15166e-07
2.06386e-07
2.0976e-07
2.07115e-07
2.07914e-07
2.06877e-07
1.29598e-07
1.41318e-07
2.00068e-07
1.85351e-07
1.96828e-07
1.8817e-07
1.91489e-07
1.88778e-07
1.8966e-07
1.88611e-07
)
;

boundaryField
{
    fuel
    {
        type            fixedValue;
        value           uniform 0;
    }
    wall
    {
        type            zeroGradient;
    }
    outlet
    {
        type            zeroGradient;
    }
    frontAndBack
    {
        type            empty;
    }
    procBoundary2to0
    {
        type            processor;
        value           nonuniform List<scalar> 
12
(
2.06987e-07
1.16395e-07
1.29539e-07
1.82338e-07
1.67376e-07
1.78398e-07
1.69768e-07
1.73036e-07
1.70273e-07
1.71225e-07
1.88721e-07
1.70169e-07
)
;
    }
    procBoundary2to3
    {
        type            processor;
        value           nonuniform List<scalar> 
25
(
5.97389e-06
7.03346e-06
4.0357e-06
2.26835e-06
1.44155e-06
1.04528e-06
8.26253e-07
7.06913e-07
6.23736e-07
5.64833e-07
5.64833e-07
5.21169e-07
4.85335e-07
4.54893e-07
4.28044e-07
4.037e-07
3.8115e-07
3.59892e-07
3.39543e-07
3.19798e-07
3.00397e-07
2.81105e-07
2.61683e-07
2.44172e-07
2.25019e-07
)
;
    }
}


// ************************************************************************* //
