/*--------------------------------*- C++ -*----------------------------------*\
| =========                 |                                                 |
| \\      /  F ield         | OpenFOAM: The Open Source CFD Toolbox           |
|  \\    /   O peration     | Version:  dev                                   |
|   \\  /    A nd           | Web:      www.OpenFOAM.org                      |
|    \\/     M anipulation  |                                                 |
\*---------------------------------------------------------------------------*/
FoamFile
{
    version     2.0;
    format      ascii;
    class       volScalarField;
    location    "0.18";
    object      dQ;
}
// * * * * * * * * * * * * * * * * * * * * * * * * * * * * * * * * * * * * * //

dimensions      [1 2 -3 0 0 0 0];

internalField   nonuniform List<scalar> 
250
(
0.0285555
34.0766
34.7026
34.797
34.8063
34.8063
34.806
34.8048
34.8047
0.028432
8.23686
7.80511
7.77498
7.76928
7.7688
7.76908
7.76823
7.76886
0.0175503
2.1857
1.89264
1.87634
1.87312
1.8729
1.87315
1.87268
1.87308
0.0109686
0.768182
0.589446
0.581998
0.580436
0.580343
0.580504
0.580278
0.580489
0.00801108
0.341736
0.221234
0.216961
0.216111
0.216068
0.216143
0.216057
0.216172
0.00716912
0.181293
0.0935489
0.0903013
0.0897743
0.0897514
0.0897349
0.0897604
0.089827
0.00845864
0.109307
0.0425559
0.0394308
0.0390525
0.0390352
0.0388709
0.0390531
0.0390946
0.0149314
0.0720993
0.0183264
0.0169953
0.016674
0.0166537
0.0161818
0.016676
0.0167043
0.0347606
0.0505712
0.0078119
0.00509248
0.00490251
0.00491956
0.00534025
0.00493935
0.00495176
0.069186
0.0369623
0.00207917
-0.000119438
-0.000215512
-0.000197244
-5.64523e-06
-0.000175444
-0.000166938
0.101298
0.0278038
-0.000923712
-0.00283311
-0.00301915
-0.00301702
-0.00295943
-0.00299376
-0.00299287
-0.00297249
0.113227
0.0213708
-0.00226115
-0.00425461
-0.0044175
-0.00441422
-0.00435884
-0.00438817
-0.00439074
-0.00436591
0.0991615
0.0167113
-0.0030292
-0.00490914
-0.00506317
-0.00505976
-0.00496956
-0.00503074
-0.00503699
-0.00500948
0.0754674
0.0132817
-0.00335445
-0.0051591
-0.00530369
-0.00530102
-0.00526072
-0.00526828
-0.00527859
-0.00525512
0.0546614
0.0104229
-0.00351073
-0.00518788
-0.00531917
-0.00531677
-0.00529681
-0.00528028
-0.00529479
-0.00527714
0.0391722
0.00819007
-0.00355476
-0.00508946
-0.0052046
-0.00520182
-0.00518939
-0.00516245
-0.00518018
-0.00516633
0.0284165
0.00658879
-0.00351639
-0.00491271
-0.00501045
-0.00500682
-0.00499713
-0.0049681
-0.00498525
-0.00497264
0.0215732
0.00525344
-0.00342632
-0.00468336
-0.00476361
-0.0047589
-0.0047502
-0.0047323
-0.00473708
-0.0047239
0.0174613
0.00412536
-0.0032991
-0.00441773
-0.00447873
-0.00447278
-0.00446399
-0.00442535
-0.00445026
-0.0044356
0.0149996
0.00316732
-0.00314091
-0.00414336
-0.00416493
-0.00415722
-0.0041484
-0.00411952
-0.00413373
-0.00411703
0.0133377
0.00235148
-0.00295232
-0.00383574
-0.00383103
-0.00382006
-0.00381108
-0.00380292
-0.00379537
-0.00377631
0.0119334
0.00165927
-0.00273225
-0.00349878
-0.00349349
-0.0034753
-0.00346518
-0.00342504
-0.00344917
-0.00342763
0.010508
0.00110221
-0.00248138
-0.00312268
-0.00309528
-0.00305932
-0.00304829
-0.0030123
-0.00303143
-0.00300632
0.00898285
0.000670781
-0.00221011
-0.00273299
-0.00267273
-0.00266058
-0.00264889
-0.00261522
-0.00263102
-0.0026048
0.00740778
0.000366125
-0.00186163
-0.00229624
-0.00221703
-0.00219679
-0.0021842
-0.00214922
-0.00216592
-0.0021366
0.00588914
0.000189115
-0.00148993
-0.0018211
-0.00172398
-0.00169941
-0.00168597
-0.00164953
-0.001668
-0.00163579
)
;

boundaryField
{
    fuel
    {
        type            calculated;
        value           uniform 0;
    }
    wall
    {
        type            calculated;
        value           nonuniform 0();
    }
    outlet
    {
        type            calculated;
        value           uniform 0;
    }
    frontAndBack
    {
        type            empty;
    }
    procBoundary2to0
    {
        type            processor;
        value           uniform 0;
    }
    procBoundary2to3
    {
        type            processor;
        value           uniform 0;
    }
}


// ************************************************************************* //
