/*--------------------------------*- C++ -*----------------------------------*\
| =========                 |                                                 |
| \\      /  F ield         | OpenFOAM: The Open Source CFD Toolbox           |
|  \\    /   O peration     | Version:  dev                                   |
|   \\  /    A nd           | Web:      www.OpenFOAM.org                      |
|    \\/     M anipulation  |                                                 |
\*---------------------------------------------------------------------------*/
FoamFile
{
    version     2.0;
    format      ascii;
    class       volScalarField;
    location    "0.18";
    object      H;
}
// * * * * * * * * * * * * * * * * * * * * * * * * * * * * * * * * * * * * * //

dimensions      [0 0 0 0 0 0 0];

internalField   nonuniform List<scalar> 
250
(
1.71977e-08
0.000100163
0.000114941
0.000116881
0.000117102
0.00011712
0.000117129
0.000117119
0.000117122
2.49414e-08
0.000110806
0.000123073
0.000124895
0.000125113
0.000125135
0.000125147
0.000125139
0.000125143
1.78988e-08
7.72619e-05
8.60754e-05
8.77125e-05
8.79074e-05
8.79294e-05
8.79448e-05
8.79348e-05
8.79416e-05
1.23442e-08
5.25802e-05
5.94857e-05
6.10659e-05
6.12526e-05
6.12746e-05
6.12914e-05
6.12807e-05
6.12881e-05
9.77416e-09
3.81133e-05
4.42776e-05
4.58905e-05
4.60834e-05
4.61062e-05
4.61211e-05
4.6112e-05
4.61192e-05
9.25477e-09
2.95361e-05
3.57702e-05
3.74729e-05
3.76838e-05
3.77083e-05
3.77161e-05
3.77132e-05
3.772e-05
1.1131e-08
2.41358e-05
3.09451e-05
3.27569e-05
3.29929e-05
3.30195e-05
3.30085e-05
3.30234e-05
3.30297e-05
2.10412e-08
2.05247e-05
2.78974e-05
3.00913e-05
3.03545e-05
3.03833e-05
3.03259e-05
3.0386e-05
3.03921e-05
6.79637e-08
1.80018e-05
2.61925e-05
2.83495e-05
2.86582e-05
2.86961e-05
2.87658e-05
2.86967e-05
2.87016e-05
2.36885e-07
1.61936e-05
2.50115e-05
2.74146e-05
2.77628e-05
2.78046e-05
2.78419e-05
2.78039e-05
2.78092e-05
6.45466e-07
1.48915e-05
2.42079e-05
2.68018e-05
2.71546e-05
2.71971e-05
2.72129e-05
2.71946e-05
2.72e-05
2.71955e-05
1.3081e-06
1.39702e-05
2.37117e-05
2.63691e-05
2.67438e-05
2.67898e-05
2.68033e-05
2.67849e-05
2.67922e-05
2.67887e-05
2.01636e-06
1.33474e-05
2.33221e-05
2.60508e-05
2.64384e-05
2.6487e-05
2.65197e-05
2.6479e-05
2.6489e-05
2.6487e-05
2.63475e-06
1.29684e-05
2.3049e-05
2.57889e-05
2.6182e-05
2.6232e-05
2.62523e-05
2.62198e-05
2.62339e-05
2.62316e-05
3.20972e-06
1.27661e-05
2.28184e-05
2.55486e-05
2.59405e-05
2.59912e-05
2.60043e-05
2.59731e-05
2.59927e-05
2.59884e-05
3.77648e-06
1.27404e-05
2.26158e-05
2.53079e-05
2.56919e-05
2.57424e-05
2.57515e-05
2.57161e-05
2.57431e-05
2.57361e-05
4.32216e-06
1.28456e-05
2.24333e-05
2.5051e-05
2.54204e-05
2.54701e-05
2.54767e-05
2.54324e-05
2.54694e-05
2.54592e-05
4.81389e-06
1.30515e-05
2.22536e-05
2.47646e-05
2.51136e-05
2.51618e-05
2.51666e-05
2.51074e-05
2.51592e-05
2.51454e-05
5.26364e-06
1.33326e-05
2.20611e-05
2.44343e-05
2.47602e-05
2.48064e-05
2.48102e-05
2.47761e-05
2.48013e-05
2.47832e-05
5.69868e-06
1.36633e-05
2.18405e-05
2.40409e-05
2.43488e-05
2.4393e-05
2.43956e-05
2.43461e-05
2.43846e-05
2.43615e-05
6.15511e-06
1.40153e-05
2.15773e-05
2.36275e-05
2.38675e-05
2.39098e-05
2.39114e-05
2.38412e-05
2.38975e-05
2.38685e-05
6.66132e-06
1.44232e-05
2.12558e-05
2.31433e-05
2.33013e-05
2.33431e-05
2.33443e-05
2.33174e-05
2.33266e-05
2.32906e-05
7.2257e-06
1.47429e-05
2.08587e-05
2.26043e-05
2.27123e-05
2.27579e-05
2.2758e-05
2.27189e-05
2.27367e-05
2.26936e-05
7.83897e-06
1.49989e-05
2.03662e-05
2.19632e-05
2.20366e-05
2.203e-05
2.20282e-05
2.19748e-05
2.20038e-05
2.19499e-05
8.47466e-06
1.51676e-05
1.98305e-05
2.12526e-05
2.12685e-05
2.12589e-05
2.12555e-05
2.11903e-05
2.12278e-05
2.1165e-05
9.09326e-06
1.52261e-05
1.91655e-05
2.04454e-05
2.04021e-05
2.03886e-05
2.03833e-05
2.03066e-05
2.03527e-05
2.02806e-05
)
;

boundaryField
{
    fuel
    {
        type            fixedValue;
        value           uniform 0;
    }
    wall
    {
        type            zeroGradient;
    }
    outlet
    {
        type            zeroGradient;
    }
    frontAndBack
    {
        type            empty;
    }
    procBoundary2to0
    {
        type            processor;
        value           nonuniform List<scalar> 
12
(
2.11694e-05
9.6346e-06
1.51484e-05
1.84107e-05
1.95352e-05
1.94327e-05
1.94149e-05
1.94074e-05
1.93201e-05
1.93746e-05
2.02869e-05
1.92932e-05
)
;
    }
    procBoundary2to3
    {
        type            processor;
        value           nonuniform List<scalar> 
25
(
0.000117118
0.000125139
8.7936e-05
6.12827e-05
4.61147e-05
3.77162e-05
3.30261e-05
3.03884e-05
2.86966e-05
2.78047e-05
2.78047e-05
2.71969e-05
2.67884e-05
2.6484e-05
2.62273e-05
2.59841e-05
2.57321e-05
2.54556e-05
2.51421e-05
2.47802e-05
2.43591e-05
2.38669e-05
2.32902e-05
2.26945e-05
2.19524e-05
)
;
    }
}


// ************************************************************************* //
