/*--------------------------------*- C++ -*----------------------------------*\
| =========                 |                                                 |
| \\      /  F ield         | OpenFOAM: The Open Source CFD Toolbox           |
|  \\    /   O peration     | Version:  dev                                   |
|   \\  /    A nd           | Web:      www.OpenFOAM.org                      |
|    \\/     M anipulation  |                                                 |
\*---------------------------------------------------------------------------*/
FoamFile
{
    version     2.0;
    format      ascii;
    class       volScalarField;
    location    "0.18";
    object      H2C4O;
}
// * * * * * * * * * * * * * * * * * * * * * * * * * * * * * * * * * * * * * //

dimensions      [0 0 0 0 0 0 0];

internalField   nonuniform List<scalar> 
250
(
7.55745e-05
1.60879e-05
1.6039e-05
1.59452e-05
1.59522e-05
1.59394e-05
1.59437e-05
1.59409e-05
1.59427e-05
2.14649e-05
1.03389e-05
1.02355e-05
1.00399e-05
1.00398e-05
1.00184e-05
1.00253e-05
1.00204e-05
1.00238e-05
8.18212e-06
7.56927e-06
7.48415e-06
7.21642e-06
7.22339e-06
7.19057e-06
7.20046e-06
7.19387e-06
7.19891e-06
4.50715e-06
6.32354e-06
6.23881e-06
5.90569e-06
5.92179e-06
5.87788e-06
5.88898e-06
5.88242e-06
5.88885e-06
3.3361e-06
5.63314e-06
5.53134e-06
5.13949e-06
5.16549e-06
5.11117e-06
5.12102e-06
5.11681e-06
5.12463e-06
2.94289e-06
5.1786e-06
5.02708e-06
4.6024e-06
4.63919e-06
4.57539e-06
4.58027e-06
4.58199e-06
4.59119e-06
2.85687e-06
4.79361e-06
4.64658e-06
4.17391e-06
4.21061e-06
4.13166e-06
4.15643e-06
4.13891e-06
4.14958e-06
2.92746e-06
4.47698e-06
4.3346e-06
3.83089e-06
3.87753e-06
3.78835e-06
3.8064e-06
3.79634e-06
3.80844e-06
3.10229e-06
4.1963e-06
4.00851e-06
3.50839e-06
3.56129e-06
3.46547e-06
3.51107e-06
3.47368e-06
3.48667e-06
3.35827e-06
3.96843e-06
3.76951e-06
3.22247e-06
3.27691e-06
3.1788e-06
3.21826e-06
3.18648e-06
3.19946e-06
3.67504e-06
3.75702e-06
3.51379e-06
2.96963e-06
3.02407e-06
2.9258e-06
2.95955e-06
2.9328e-06
2.94577e-06
2.93659e-06
4.02598e-06
3.53769e-06
3.28122e-06
2.74435e-06
2.79729e-06
2.70043e-06
2.72897e-06
2.70653e-06
2.71951e-06
2.71065e-06
4.3747e-06
3.32832e-06
3.0693e-06
2.54253e-06
2.59275e-06
2.49841e-06
2.52155e-06
2.50337e-06
2.51639e-06
2.50799e-06
4.67865e-06
3.12787e-06
2.87531e-06
2.36084e-06
2.40751e-06
2.31654e-06
2.33274e-06
2.32003e-06
2.33323e-06
2.32538e-06
4.89895e-06
2.95196e-06
2.69629e-06
2.19652e-06
2.2392e-06
2.15235e-06
2.18375e-06
2.15394e-06
2.16747e-06
2.16025e-06
5.00625e-06
2.78164e-06
2.52931e-06
2.04731e-06
2.08585e-06
2.00346e-06
2.03665e-06
2.00277e-06
2.01707e-06
2.01048e-06
4.99133e-06
2.61544e-06
2.37188e-06
1.91131e-06
1.94581e-06
1.86811e-06
1.89729e-06
1.86465e-06
1.88034e-06
1.87435e-06
4.86297e-06
2.45961e-06
2.22165e-06
1.78702e-06
1.81768e-06
1.7449e-06
1.77074e-06
1.73794e-06
1.75588e-06
1.75043e-06
4.64286e-06
2.30362e-06
2.07586e-06
1.6732e-06
1.70027e-06
1.63267e-06
1.65563e-06
1.63522e-06
1.6425e-06
1.63751e-06
4.35912e-06
2.16297e-06
1.96596e-06
1.56874e-06
1.59245e-06
1.53041e-06
1.55059e-06
1.53089e-06
1.53906e-06
1.53453e-06
4.03972e-06
2.03124e-06
1.85784e-06
1.48107e-06
1.49304e-06
1.43722e-06
1.45458e-06
1.43517e-06
1.44458e-06
1.44053e-06
3.7094e-06
1.90764e-06
1.7442e-06
1.39858e-06
1.40063e-06
1.35226e-06
1.36653e-06
1.35702e-06
1.35806e-06
1.35457e-06
3.38785e-06
1.79172e-06
1.63731e-06
1.3263e-06
1.32764e-06
1.28265e-06
1.29597e-06
1.28682e-06
1.28821e-06
1.28485e-06
3.08884e-06
1.68178e-06
1.53604e-06
1.25701e-06
1.25706e-06
1.21522e-06
1.22689e-06
1.21841e-06
1.2198e-06
1.21671e-06
2.82088e-06
1.58165e-06
1.43868e-06
1.1978e-06
1.19663e-06
1.15854e-06
1.16896e-06
1.16112e-06
1.16256e-06
1.15973e-06
2.53734e-06
1.49013e-06
1.36469e-06
1.14445e-06
1.14172e-06
1.10768e-06
1.11686e-06
1.10968e-06
1.1111e-06
1.10854e-06
)
;

boundaryField
{
    fuel
    {
        type            fixedValue;
        value           uniform 0;
    }
    wall
    {
        type            zeroGradient;
    }
    outlet
    {
        type            zeroGradient;
    }
    frontAndBack
    {
        type            empty;
    }
    procBoundary2to0
    {
        type            processor;
        value           nonuniform List<scalar> 
12
(
1.16056e-06
2.31122e-06
1.40604e-06
1.29167e-06
1.09627e-06
1.0926e-06
1.06198e-06
1.07004e-06
1.06348e-06
1.06486e-06
1.10933e-06
1.06254e-06
)
;
    }
    procBoundary2to3
    {
        type            processor;
        value           nonuniform List<scalar> 
25
(
1.59418e-05
1.00219e-05
7.19605e-06
5.8851e-06
5.11993e-06
4.58547e-06
4.14258e-06
3.80032e-06
3.47761e-06
3.19025e-06
3.19025e-06
2.9412e-06
2.71516e-06
2.51231e-06
2.32941e-06
2.16391e-06
2.01376e-06
1.87723e-06
1.75291e-06
1.6396e-06
1.53624e-06
1.44188e-06
1.35559e-06
1.28581e-06
1.21757e-06
)
;
    }
}


// ************************************************************************* //
