/*--------------------------------*- C++ -*----------------------------------*\
| =========                 |                                                 |
| \\      /  F ield         | OpenFOAM: The Open Source CFD Toolbox           |
|  \\    /   O peration     | Version:  dev                                   |
|   \\  /    A nd           | Web:      www.OpenFOAM.org                      |
|    \\/     M anipulation  |                                                 |
\*---------------------------------------------------------------------------*/
FoamFile
{
    version     2.0;
    format      ascii;
    class       volScalarField;
    location    "0.18";
    object      H2C4O;
}
// * * * * * * * * * * * * * * * * * * * * * * * * * * * * * * * * * * * * * //

dimensions      [0 0 0 0 0 0 0];

internalField   nonuniform List<scalar> 
250
(
2.37993e-06
1.57059e-05
1.55933e-05
1.55366e-05
1.55255e-05
1.55241e-05
1.55235e-05
1.55226e-05
1.55233e-05
4.05531e-06
1.11318e-05
1.01313e-05
9.96735e-06
9.94038e-06
9.93718e-06
9.93611e-06
9.93483e-06
9.93603e-06
4.35235e-06
8.53616e-06
7.36783e-06
7.17024e-06
7.13522e-06
7.13066e-06
7.12894e-06
7.1273e-06
7.12896e-06
4.2862e-06
7.29062e-06
6.07202e-06
5.85025e-06
5.80795e-06
5.802e-06
5.79903e-06
5.79747e-06
5.79952e-06
4.16513e-06
6.55016e-06
5.32564e-06
5.08311e-06
5.034e-06
5.02661e-06
5.02151e-06
5.02089e-06
5.02319e-06
4.04818e-06
6.01476e-06
4.813e-06
4.55292e-06
4.49744e-06
4.4886e-06
4.48002e-06
4.48183e-06
4.48415e-06
3.94764e-06
5.57937e-06
4.42087e-06
4.14642e-06
4.08461e-06
4.0744e-06
4.06021e-06
4.06689e-06
4.06893e-06
3.8478e-06
5.20223e-06
4.06854e-06
3.81637e-06
3.74887e-06
3.73756e-06
3.71429e-06
3.72969e-06
3.73118e-06
3.63735e-06
4.86464e-06
3.79138e-06
3.49192e-06
3.4239e-06
3.41325e-06
3.41971e-06
3.40528e-06
3.40569e-06
3.08228e-06
4.55616e-06
3.51896e-06
3.24252e-06
3.1772e-06
3.16643e-06
3.16676e-06
3.15886e-06
3.15864e-06
2.20517e-06
4.27129e-06
3.2642e-06
3.01571e-06
2.93802e-06
2.92536e-06
2.9202e-06
2.91837e-06
2.91732e-06
2.91129e-06
1.41171e-06
4.00707e-06
3.06076e-06
2.801e-06
2.72035e-06
2.70717e-06
2.70564e-06
2.70076e-06
2.69976e-06
2.697e-06
9.71019e-07
3.76114e-06
2.85854e-06
2.60721e-06
2.52342e-06
2.5097e-06
2.52415e-06
2.50351e-06
2.50337e-06
2.50393e-06
8.40225e-07
3.53358e-06
2.68745e-06
2.43092e-06
2.34484e-06
2.33045e-06
2.33749e-06
2.32403e-06
2.32564e-06
2.32746e-06
8.90039e-07
3.29652e-06
2.518e-06
2.26957e-06
2.18251e-06
2.16759e-06
2.17007e-06
2.16026e-06
2.16434e-06
2.16583e-06
1.02498e-06
3.06842e-06
2.3527e-06
2.12137e-06
2.03464e-06
2.01942e-06
2.01941e-06
2.01041e-06
2.01749e-06
2.01815e-06
1.18907e-06
2.88125e-06
2.20002e-06
1.98494e-06
1.8997e-06
1.88443e-06
1.88307e-06
1.87288e-06
1.88341e-06
1.88333e-06
1.34474e-06
2.7029e-06
2.05894e-06
1.85893e-06
1.77642e-06
1.76133e-06
1.75926e-06
1.74616e-06
1.76075e-06
1.76011e-06
1.47607e-06
2.53457e-06
1.92862e-06
1.74168e-06
1.66366e-06
1.64897e-06
1.64668e-06
1.64387e-06
1.64843e-06
1.64736e-06
1.57532e-06
2.37629e-06
1.80835e-06
1.63058e-06
1.56038e-06
1.54633e-06
1.54396e-06
1.53911e-06
1.54547e-06
1.54407e-06
1.64166e-06
2.22833e-06
1.69766e-06
1.53766e-06
1.4656e-06
1.45242e-06
1.45012e-06
1.44268e-06
1.45106e-06
1.44939e-06
1.67768e-06
2.0656e-06
1.59586e-06
1.45137e-06
1.37828e-06
1.36629e-06
1.36422e-06
1.36427e-06
1.3644e-06
1.36248e-06
1.68856e-06
1.93518e-06
1.5023e-06
1.37557e-06
1.30689e-06
1.29651e-06
1.29461e-06
1.29375e-06
1.29414e-06
1.29204e-06
1.67885e-06
1.81595e-06
1.41584e-06
1.30432e-06
1.24212e-06
1.22813e-06
1.22637e-06
1.22457e-06
1.22536e-06
1.22289e-06
1.65284e-06
1.70731e-06
1.34495e-06
1.24172e-06
1.18354e-06
1.17075e-06
1.16913e-06
1.16678e-06
1.16768e-06
1.16511e-06
1.61442e-06
1.6085e-06
1.27759e-06
1.1851e-06
1.13058e-06
1.11907e-06
1.11758e-06
1.11482e-06
1.11581e-06
1.11318e-06
)
;

boundaryField
{
    fuel
    {
        type            fixedValue;
        value           uniform 0;
    }
    wall
    {
        type            zeroGradient;
    }
    outlet
    {
        type            zeroGradient;
    }
    frontAndBack
    {
        type            empty;
    }
    procBoundary2to0
    {
        type            processor;
        value           nonuniform List<scalar> 
12
(
1.16393e-06
1.56657e-06
1.51915e-06
1.21826e-06
1.13369e-06
1.08289e-06
1.0725e-06
1.07112e-06
1.0681e-06
1.06916e-06
1.11236e-06
1.06651e-06
)
;
    }
    procBoundary2to3
    {
        type            processor;
        value           nonuniform List<scalar> 
25
(
1.55228e-05
9.93516e-06
7.1277e-06
5.79785e-06
5.02109e-06
4.48157e-06
4.06574e-06
3.72716e-06
3.40031e-06
3.15256e-06
3.15256e-06
2.91837e-06
2.69974e-06
2.50217e-06
2.3233e-06
2.16101e-06
2.0134e-06
1.87881e-06
1.75586e-06
1.64343e-06
1.54055e-06
1.44635e-06
1.35997e-06
1.28998e-06
1.2213e-06
)
;
    }
}


// ************************************************************************* //
