/*--------------------------------*- C++ -*----------------------------------*\
| =========                 |                                                 |
| \\      /  F ield         | OpenFOAM: The Open Source CFD Toolbox           |
|  \\    /   O peration     | Version:  dev                                   |
|   \\  /    A nd           | Web:      www.OpenFOAM.org                      |
|    \\/     M anipulation  |                                                 |
\*---------------------------------------------------------------------------*/
FoamFile
{
    version     2.0;
    format      ascii;
    class       volScalarField;
    location    "0.18";
    object      l-C6H4;
}
// * * * * * * * * * * * * * * * * * * * * * * * * * * * * * * * * * * * * * //

dimensions      [0 0 0 0 0 0 0];

internalField   nonuniform List<scalar> 
50
(
1.22985e-19
1.13602e-19
1.05025e-19
9.71901e-20
9.00329e-20
8.35577e-20
7.75896e-20
7.21309e-20
6.71365e-20
6.2561e-20
5.84061e-20
5.45627e-20
5.10266e-20
4.78055e-20
4.48403e-20
4.21098e-20
3.95886e-20
3.72689e-20
3.5129e-20
3.31355e-20
3.13086e-20
2.96072e-20
2.80232e-20
2.65645e-20
2.52051e-20
2.39354e-20
2.27464e-20
2.1629e-20
2.05751e-20
1.9577e-20
1.86187e-20
1.77092e-20
1.68338e-20
1.59847e-20
1.5162e-20
1.43593e-20
1.35739e-20
1.27992e-20
1.20346e-20
1.12892e-20
1.05527e-20
9.83251e-21
9.1245e-21
8.42995e-21
7.7547e-21
7.1006e-21
6.47613e-21
5.87581e-21
5.3065e-21
4.7684e-21
)
;

boundaryField
{
    wall
    {
        type            zeroGradient;
    }
    fuel
    {
        type            fixedValue;
        value           nonuniform 0();
    }
    outlet
    {
        type            inletOutlet;
        inletValue      nonuniform 0();
        value           nonuniform 0();
    }
    procBoundary2to1
    {
        type            processor;
        value           uniform 1.33174e-19;
    }
    procBoundary2to3
    {
        type            processor;
        value           uniform 4.25732e-21;
    }
}


// ************************************************************************* //
