/*--------------------------------*- C++ -*----------------------------------*\
| =========                 |                                                 |
| \\      /  F ield         | OpenFOAM: The Open Source CFD Toolbox           |
|  \\    /   O peration     | Version:  dev                                   |
|   \\  /    A nd           | Web:      www.OpenFOAM.org                      |
|    \\/     M anipulation  |                                                 |
\*---------------------------------------------------------------------------*/
FoamFile
{
    version     2.0;
    format      ascii;
    class       volScalarField;
    location    "0.18";
    object      n-A1C2H2;
}
// * * * * * * * * * * * * * * * * * * * * * * * * * * * * * * * * * * * * * //

dimensions      [0 0 0 0 0 0 0];

internalField   nonuniform List<scalar> 
50
(
2.34755e-22
2.14749e-22
1.96659e-22
1.80307e-22
1.65522e-22
1.52282e-22
1.40198e-22
1.29254e-22
1.19338e-22
1.10342e-22
1.02252e-22
9.48397e-23
8.80847e-23
8.19902e-23
7.64331e-23
7.1364e-23
6.6728e-23
6.25035e-23
5.86448e-23
5.50868e-23
5.18623e-23
4.88947e-23
4.61683e-23
4.36957e-23
4.14309e-23
3.93577e-23
3.74608e-23
3.5726e-23
3.41406e-23
3.26925e-23
3.13584e-23
3.01496e-23
2.90436e-23
2.80273e-23
2.70961e-23
2.62365e-23
2.54382e-23
2.46862e-23
2.39704e-23
2.32889e-23
2.2621e-23
2.1962e-23
2.12969e-23
2.06161e-23
1.99154e-23
1.91885e-23
1.84393e-23
1.76573e-23
1.68496e-23
1.60174e-23
)
;

boundaryField
{
    wall
    {
        type            zeroGradient;
    }
    fuel
    {
        type            fixedValue;
        value           nonuniform 0();
    }
    outlet
    {
        type            inletOutlet;
        inletValue      nonuniform 0();
        value           nonuniform 0();
    }
    procBoundary2to1
    {
        type            processor;
        value           uniform 2.567e-22;
    }
    procBoundary2to3
    {
        type            processor;
        value           uniform 1.51516e-23;
    }
}


// ************************************************************************* //
