/*--------------------------------*- C++ -*----------------------------------*\
| =========                 |                                                 |
| \\      /  F ield         | OpenFOAM: The Open Source CFD Toolbox           |
|  \\    /   O peration     | Version:  dev                                   |
|   \\  /    A nd           | Web:      www.OpenFOAM.org                      |
|    \\/     M anipulation  |                                                 |
\*---------------------------------------------------------------------------*/
FoamFile
{
    version     2.0;
    format      ascii;
    class       volScalarField;
    location    "0.18";
    object      O;
}
// * * * * * * * * * * * * * * * * * * * * * * * * * * * * * * * * * * * * * //

dimensions      [0 0 0 0 0 0 0];

internalField   nonuniform List<scalar> 
50
(
4.09866e-06
3.91249e-06
3.73325e-06
3.56073e-06
3.39471e-06
3.23661e-06
3.08337e-06
2.93613e-06
2.7948e-06
2.65915e-06
2.53026e-06
2.40568e-06
2.28605e-06
2.17249e-06
2.06367e-06
1.95948e-06
1.85959e-06
1.76427e-06
1.67318e-06
1.58539e-06
1.50229e-06
1.42248e-06
1.34598e-06
1.27364e-06
1.20457e-06
1.13867e-06
1.07584e-06
1.01596e-06
9.58913e-07
9.04608e-07
8.52469e-07
8.03249e-07
7.56391e-07
7.11667e-07
6.69242e-07
6.28896e-07
5.9056e-07
5.53952e-07
5.19048e-07
4.86222e-07
4.54927e-07
4.25377e-07
3.97274e-07
3.70538e-07
3.45249e-07
3.21321e-07
2.98902e-07
2.77639e-07
2.57628e-07
2.38751e-07
)
;

boundaryField
{
    wall
    {
        type            zeroGradient;
    }
    fuel
    {
        type            fixedValue;
        value           nonuniform 0();
    }
    outlet
    {
        type            inletOutlet;
        inletValue      nonuniform 0();
        value           nonuniform 0();
    }
    procBoundary2to1
    {
        type            processor;
        value           uniform 4.29159e-06;
    }
    procBoundary2to3
    {
        type            processor;
        value           uniform 2.20957e-07;
    }
}


// ************************************************************************* //
