/*--------------------------------*- C++ -*----------------------------------*\
| =========                 |                                                 |
| \\      /  F ield         | OpenFOAM: The Open Source CFD Toolbox           |
|  \\    /   O peration     | Version:  dev                                   |
|   \\  /    A nd           | Web:      www.OpenFOAM.org                      |
|    \\/     M anipulation  |                                                 |
\*---------------------------------------------------------------------------*/
FoamFile
{
    version     2.0;
    format      ascii;
    class       volScalarField;
    location    "0.18";
    object      O;
}
// * * * * * * * * * * * * * * * * * * * * * * * * * * * * * * * * * * * * * //

dimensions      [0 0 0 0 0 0 0];

internalField   nonuniform List<scalar> 
250
(
1.79705e-05
4.42547e-05
4.42237e-05
4.43063e-05
4.43334e-05
4.43302e-05
4.43341e-05
4.43314e-05
4.43325e-05
7.06425e-05
1.56706e-05
1.55204e-05
1.54781e-05
1.54811e-05
1.5469e-05
1.54799e-05
1.54701e-05
1.54759e-05
3.3145e-05
4.28619e-06
4.25579e-06
4.1966e-06
4.20724e-06
4.18941e-06
4.20223e-06
4.19183e-06
4.19772e-06
1.43436e-05
1.31559e-06
1.33038e-06
1.28898e-06
1.30096e-06
1.28715e-06
1.29607e-06
1.28927e-06
1.29297e-06
7.0748e-06
5.1452e-07
5.40799e-07
5.14868e-07
5.25054e-07
5.15925e-07
5.21045e-07
5.17402e-07
5.19571e-07
4.16005e-06
2.60366e-07
2.83724e-07
2.73734e-07
2.82393e-07
2.76595e-07
2.78461e-07
2.77597e-07
2.78929e-07
2.7896e-06
1.53324e-07
1.8767e-07
1.82675e-07
1.886e-07
1.84161e-07
1.87755e-07
1.84821e-07
1.85691e-07
2.00041e-06
1.04935e-07
1.45059e-07
1.44436e-07
1.49904e-07
1.46757e-07
1.48412e-07
1.47238e-07
1.4786e-07
1.46055e-06
7.93963e-08
1.20216e-07
1.24409e-07
1.29406e-07
1.27284e-07
1.29413e-07
1.27627e-07
1.2807e-07
1.05505e-06
6.5778e-08
1.08438e-07
1.13596e-07
1.18277e-07
1.1684e-07
1.18128e-07
1.17083e-07
1.17406e-07
7.44267e-07
5.67696e-08
9.9911e-08
1.07085e-07
1.11677e-07
1.10649e-07
1.11498e-07
1.10833e-07
1.11099e-07
1.10931e-07
5.09902e-07
4.98851e-08
9.40634e-08
1.02606e-07
1.07245e-07
1.06451e-07
1.07068e-07
1.06597e-07
1.06842e-07
1.0669e-07
3.39429e-07
4.48654e-08
8.96285e-08
9.90981e-08
1.03861e-07
1.03186e-07
1.03669e-07
1.03302e-07
1.03552e-07
1.03407e-07
2.21144e-07
4.11103e-08
8.59752e-08
9.60363e-08
1.00964e-07
1.00328e-07
1.00702e-07
1.00415e-07
1.00687e-07
1.00543e-07
1.43139e-07
3.84736e-08
8.27687e-08
9.31435e-08
9.82517e-08
9.75974e-08
9.82303e-08
9.76501e-08
9.79582e-08
9.78112e-08
9.48744e-08
3.64208e-08
7.98143e-08
9.02599e-08
9.55485e-08
9.48281e-08
9.55447e-08
9.48371e-08
9.51994e-08
9.50454e-08
6.68099e-08
3.47981e-08
7.69856e-08
8.72816e-08
9.27387e-08
9.19126e-08
9.26331e-08
9.18615e-08
9.23007e-08
9.21359e-08
5.16218e-08
3.35439e-08
7.41811e-08
8.41314e-08
8.97353e-08
8.87725e-08
8.95207e-08
8.86307e-08
8.91811e-08
8.90012e-08
4.41033e-08
3.247e-08
7.12898e-08
8.07444e-08
8.64644e-08
8.53434e-08
8.61332e-08
8.54757e-08
8.5774e-08
8.55749e-08
4.076e-08
3.15812e-08
6.88927e-08
7.70572e-08
8.2856e-08
8.15702e-08
8.24004e-08
8.16282e-08
8.20179e-08
8.17988e-08
3.93688e-08
3.07409e-08
6.62761e-08
7.33532e-08
7.88369e-08
7.74052e-08
7.82624e-08
7.73594e-08
7.78582e-08
7.76207e-08
3.85961e-08
2.9861e-08
6.31765e-08
6.91963e-08
7.43171e-08
7.28052e-08
7.36568e-08
7.31228e-08
7.32391e-08
7.29893e-08
3.77044e-08
2.88721e-08
5.98137e-08
6.48431e-08
6.99872e-08
6.82324e-08
6.91699e-08
6.8525e-08
6.87115e-08
6.84302e-08
3.63461e-08
2.76942e-08
5.60853e-08
5.98881e-08
6.49597e-08
6.29215e-08
6.38933e-08
6.31613e-08
6.33916e-08
6.30872e-08
3.44428e-08
2.63207e-08
5.18759e-08
5.48723e-08
5.98199e-08
5.75948e-08
5.86077e-08
5.78063e-08
5.80799e-08
5.77558e-08
3.15754e-08
2.4724e-08
4.81e-08
4.95776e-08
5.43037e-08
5.19659e-08
5.30006e-08
5.21486e-08
5.2455e-08
5.21175e-08
)
;

boundaryField
{
    fuel
    {
        type            fixedValue;
        value           uniform 0;
    }
    wall
    {
        type            zeroGradient;
    }
    outlet
    {
        type            zeroGradient;
    }
    frontAndBack
    {
        type            empty;
    }
    procBoundary2to0
    {
        type            processor;
        value           nonuniform List<scalar> 
12
(
5.7772e-08
2.85558e-08
2.28843e-08
4.37195e-08
4.40592e-08
4.85553e-08
4.61062e-08
4.7152e-08
4.6263e-08
4.65958e-08
5.21357e-08
4.62492e-08
)
;
    }
    procBoundary2to3
    {
        type            processor;
        value           nonuniform List<scalar> 
25
(
4.4332e-05
1.54725e-05
4.19439e-06
1.29095e-06
5.18414e-07
2.78218e-07
1.85198e-07
1.47495e-07
1.27794e-07
1.172e-07
1.172e-07
1.11007e-07
1.06763e-07
1.03476e-07
1.00608e-07
9.78716e-08
9.50996e-08
9.21827e-08
8.90396e-08
8.56042e-08
8.18192e-08
7.76329e-08
7.29937e-08
6.84406e-08
6.30984e-08
)
;
    }
}


// ************************************************************************* //
