/*--------------------------------*- C++ -*----------------------------------*\
| =========                 |                                                 |
| \\      /  F ield         | OpenFOAM: The Open Source CFD Toolbox           |
|  \\    /   O peration     | Version:  dev                                   |
|   \\  /    A nd           | Web:      www.OpenFOAM.org                      |
|    \\/     M anipulation  |                                                 |
\*---------------------------------------------------------------------------*/
FoamFile
{
    version     2.0;
    format      ascii;
    class       volScalarField;
    location    "0.18";
    object      O2;
}
// * * * * * * * * * * * * * * * * * * * * * * * * * * * * * * * * * * * * * //

dimensions      [0 0 0 0 0 0 0];

internalField   nonuniform List<scalar> 
250
(
0.173452
0.032347
0.0299042
0.0296306
0.0296001
0.0295978
0.0295967
0.0295982
0.0295977
0.142191
0.00747866
0.00638212
0.00627271
0.00625892
0.00625784
0.00625773
0.00625771
0.00625798
0.111012
0.00238856
0.00176465
0.00171503
0.00170837
0.00170783
0.00170784
0.00170768
0.00170789
0.0829885
0.00106154
0.000602114
0.000575713
0.000572134
0.000571849
0.000571877
0.000571754
0.000571883
0.060163
0.000619171
0.000238498
0.0002229
0.000220844
0.000220685
0.000220716
0.000220638
0.000220717
0.0429348
0.000429283
0.000104333
9.43986e-05
9.31774e-05
9.30878e-05
9.30969e-05
9.30669e-05
9.31161e-05
0.030568
0.000325828
4.92399e-05
4.22532e-05
4.15153e-05
4.14618e-05
4.13827e-05
4.14536e-05
4.14853e-05
0.0218922
0.000257945
2.33592e-05
1.98602e-05
1.93986e-05
1.93594e-05
1.90083e-05
1.93569e-05
1.93789e-05
0.0157764
0.000207495
1.23105e-05
8.81394e-06
8.59428e-06
8.59317e-06
8.95086e-06
8.58975e-06
8.5995e-06
0.0113918
0.000167085
6.5728e-06
4.28957e-06
4.20188e-06
4.20577e-06
4.36131e-06
4.20363e-06
4.21041e-06
0.00821361
0.000133555
3.66853e-06
2.09066e-06
1.9992e-06
1.99633e-06
2.05027e-06
1.99453e-06
1.99689e-06
2.01448e-06
0.0059097
0.000105523
2.29892e-06
1.01733e-06
9.718e-07
9.71433e-07
9.99631e-07
9.70531e-07
9.71856e-07
9.83546e-07
0.00425094
8.23223e-05
1.47714e-06
5.15772e-07
4.90382e-07
4.91194e-07
5.34666e-07
4.90708e-07
4.91495e-07
5.00497e-07
0.00305493
6.35936e-05
1.02229e-06
2.78043e-07
2.62303e-07
2.63204e-07
2.82227e-07
2.63044e-07
2.63604e-07
2.69923e-07
0.00218503
4.71862e-05
7.16097e-07
1.63204e-07
1.53078e-07
1.53762e-07
1.61616e-07
1.53748e-07
1.54186e-07
1.58001e-07
0.00155021
3.39166e-05
5.06123e-07
1.06451e-07
1.00008e-07
1.00469e-07
1.0369e-07
1.00453e-07
1.00839e-07
1.02861e-07
0.00108267
2.4794e-05
3.65834e-07
7.75557e-08
7.35778e-08
7.38862e-08
7.52284e-08
7.37512e-08
7.41718e-08
7.51351e-08
0.000747961
1.77035e-05
2.6779e-07
6.21556e-08
5.98074e-08
6.00264e-08
6.05972e-08
5.96256e-08
6.02242e-08
6.06335e-08
0.000507618
1.2373e-05
1.97782e-07
5.3309e-08
5.20344e-08
5.22043e-08
5.24557e-08
5.2338e-08
5.23263e-08
5.24606e-08
0.000337981
8.49051e-06
1.47369e-07
4.75608e-08
4.70611e-08
4.72042e-08
4.73157e-08
4.71284e-08
4.72624e-08
4.7261e-08
0.000220242
5.76032e-06
1.10888e-07
4.3717e-08
4.33351e-08
4.34643e-08
4.35126e-08
4.32081e-08
4.34711e-08
4.33969e-08
0.000140097
3.60605e-06
8.39465e-08
4.04697e-08
4.00849e-08
4.02123e-08
4.02338e-08
4.01784e-08
4.01797e-08
4.00587e-08
8.68047e-05
2.32335e-06
6.486e-08
3.76073e-08
3.72925e-08
3.74398e-08
3.74471e-08
3.73311e-08
3.73779e-08
3.7226e-08
5.23185e-05
1.4711e-06
5.10267e-08
3.47262e-08
3.44854e-08
3.44201e-08
3.44163e-08
3.42419e-08
3.43349e-08
3.41462e-08
3.06557e-05
9.16807e-07
4.17133e-08
3.19133e-08
3.16065e-08
3.15387e-08
3.15279e-08
3.13165e-08
3.14365e-08
3.12264e-08
1.74323e-05
5.63249e-07
3.43532e-08
2.90378e-08
2.8642e-08
2.8572e-08
2.8556e-08
2.83174e-08
2.84586e-08
2.82315e-08
)
;

boundaryField
{
    fuel
    {
        type            fixedValue;
        value           uniform 0.1914;
    }
    wall
    {
        type            zeroGradient;
    }
    outlet
    {
        type            inletOutlet;
        inletValue      uniform 0;
        value           nonuniform List<scalar> 
26
(
0.173452
0.142191
0.111012
0.0829885
0
0
0
0.0218922
0.0157764
0.0113918
0.00821361
0.0059097
0.00425094
0.00305493
0.00218503
0.00155021
0.00108267
0.000747961
0.000507618
0.000337981
0.000220242
0.000140097
8.68047e-05
5.23185e-05
3.06557e-05
1.74323e-05
)
;
    }
    frontAndBack
    {
        type            empty;
    }
    procBoundary2to0
    {
        type            processor;
        value           nonuniform List<scalar> 
12
(
3.12296e-08
9.63887e-06
3.44839e-07
2.87609e-08
2.60966e-08
2.56109e-08
2.55388e-08
2.55181e-08
2.52629e-08
2.54193e-08
2.82439e-08
2.5181e-08
)
;
    }
    procBoundary2to3
    {
        type            processor;
        value           nonuniform List<scalar> 
25
(
0.0295983
0.00625778
0.00170771
0.00057178
0.000220663
9.30883e-05
4.14715e-05
1.93741e-05
8.59889e-06
4.22143e-06
4.22143e-06
1.99457e-06
9.70319e-07
4.90393e-07
2.62767e-07
1.53535e-07
1.00333e-07
7.37802e-08
5.99197e-08
5.20807e-08
4.70543e-08
4.32829e-08
3.99979e-08
3.71942e-08
3.41354e-08
)
;
    }
}


// ************************************************************************* //
