/*--------------------------------*- C++ -*----------------------------------*\
| =========                 |                                                 |
| \\      /  F ield         | OpenFOAM: The Open Source CFD Toolbox           |
|  \\    /   O peration     | Version:  dev                                   |
|   \\  /    A nd           | Web:      www.OpenFOAM.org                      |
|    \\/     M anipulation  |                                                 |
\*---------------------------------------------------------------------------*/
FoamFile
{
    version     2.0;
    format      ascii;
    class       volScalarField;
    location    "0.18";
    object      OH;
}
// * * * * * * * * * * * * * * * * * * * * * * * * * * * * * * * * * * * * * //

dimensions      [0 0 0 0 0 0 0];

internalField   nonuniform List<scalar> 
250
(
0.000104444
0.000234859
0.000237891
0.000238839
0.00023944
0.000239273
0.000239375
0.000239313
0.000239345
0.000728326
0.000239894
0.000240078
0.000240265
0.000240903
0.000240599
0.000240791
0.000240654
0.000240726
0.000648471
0.000158885
0.000159268
0.00015845
0.000159184
0.000158669
0.000158983
0.000158753
0.000158878
0.000483308
0.000104567
0.000106215
0.000104904
0.000105787
0.000105136
0.000105503
0.000105242
0.000105388
0.0003672
7.4555e-05
7.75858e-05
7.62082e-05
7.72004e-05
7.65257e-05
7.68486e-05
7.66362e-05
7.67797e-05
0.000293564
5.77922e-05
6.16899e-05
6.09986e-05
6.20785e-05
6.14614e-05
6.1626e-05
6.15657e-05
6.16966e-05
0.000244007
4.66685e-05
5.29379e-05
5.24916e-05
5.34456e-05
5.2825e-05
5.32477e-05
5.29149e-05
5.30306e-05
0.000206674
3.95546e-05
4.77875e-05
4.77286e-05
4.87295e-05
4.81771e-05
4.84167e-05
4.82567e-05
4.83602e-05
0.000175391
3.46759e-05
4.39846e-05
4.45612e-05
4.55752e-05
4.51087e-05
4.5493e-05
4.51759e-05
4.52659e-05
0.000147545
3.15187e-05
4.18244e-05
4.24488e-05
4.34665e-05
4.30732e-05
4.33471e-05
4.31281e-05
4.32057e-05
0.000122422
2.9104e-05
3.9972e-05
4.09165e-05
4.19558e-05
4.16104e-05
4.1818e-05
4.16566e-05
4.1729e-05
4.16809e-05
9.99173e-05
2.70217e-05
3.85091e-05
3.96938e-05
4.0766e-05
4.04492e-05
4.06163e-05
4.04884e-05
4.05606e-05
4.05143e-05
8.01693e-05
2.53388e-05
3.7275e-05
3.8637e-05
3.97486e-05
3.94458e-05
3.95844e-05
3.94783e-05
3.9554e-05
3.95085e-05
6.33444e-05
2.39594e-05
3.61811e-05
3.76674e-05
3.88213e-05
3.85214e-05
3.86301e-05
3.85459e-05
3.86285e-05
3.85832e-05
4.94621e-05
2.29072e-05
3.51748e-05
3.67385e-05
3.79353e-05
3.76302e-05
3.78257e-05
3.76442e-05
3.77369e-05
3.76913e-05
3.8481e-05
2.20195e-05
3.42209e-05
3.58205e-05
3.70592e-05
3.67411e-05
3.69617e-05
3.67414e-05
3.68487e-05
3.68022e-05
3.00717e-05
2.12587e-05
3.32934e-05
3.48913e-05
3.61701e-05
3.58319e-05
3.60488e-05
3.58136e-05
3.59419e-05
3.58936e-05
2.37967e-05
2.06234e-05
3.23683e-05
3.39329e-05
3.52488e-05
3.48848e-05
3.51039e-05
3.48394e-05
3.49981e-05
3.4947e-05
1.92014e-05
2.00442e-05
3.1416e-05
3.29283e-05
3.42773e-05
3.38834e-05
3.41087e-05
3.39182e-05
3.40006e-05
3.39455e-05
1.58776e-05
1.95493e-05
3.06326e-05
3.18596e-05
3.32369e-05
3.2812e-05
3.30435e-05
3.28263e-05
3.29321e-05
3.28727e-05
1.34922e-05
1.90884e-05
2.97874e-05
3.08053e-05
3.21062e-05
3.16549e-05
3.18902e-05
3.16407e-05
3.17753e-05
3.17118e-05
1.179e-05
1.86319e-05
2.87992e-05
2.96369e-05
3.0857e-05
3.03953e-05
3.06269e-05
3.048e-05
3.05102e-05
3.04437e-05
1.05825e-05
1.81546e-05
2.77394e-05
2.84194e-05
2.96704e-05
2.91499e-05
2.94044e-05
2.9229e-05
2.92773e-05
2.92022e-05
9.73233e-06
1.76237e-05
2.65748e-05
2.70308e-05
2.82963e-05
2.77017e-05
2.79676e-05
2.77678e-05
2.78281e-05
2.77459e-05
9.14194e-06
1.70351e-05
2.52639e-05
2.56081e-05
2.68802e-05
2.62308e-05
2.65122e-05
2.62903e-05
2.63636e-05
2.62744e-05
8.66066e-06
1.63694e-05
2.40802e-05
2.40758e-05
2.53357e-05
2.46441e-05
2.49387e-05
2.46967e-05
2.47815e-05
2.46861e-05
)
;

boundaryField
{
    fuel
    {
        type            fixedValue;
        value           uniform 0;
    }
    wall
    {
        type            zeroGradient;
    }
    outlet
    {
        type            zeroGradient;
    }
    frontAndBack
    {
        type            empty;
    }
    procBoundary2to0
    {
        type            processor;
        value           nonuniform List<scalar> 
12
(
2.62804e-05
8.35438e-06
1.5608e-05
2.26925e-05
2.24304e-05
2.36835e-05
2.29407e-05
2.32489e-05
2.29873e-05
2.30833e-05
2.46926e-05
2.29816e-05
)
;
    }
    procBoundary2to3
    {
        type            processor;
        value           nonuniform List<scalar> 
25
(
0.00023933
0.000240689
0.000158811
0.00010531
7.67025e-05
6.16244e-05
5.29621e-05
4.82964e-05
4.52071e-05
4.31537e-05
4.31537e-05
4.17043e-05
4.05374e-05
3.95311e-05
3.86048e-05
3.77115e-05
3.68205e-05
3.59097e-05
3.49607e-05
3.39565e-05
3.28811e-05
3.17177e-05
3.04471e-05
2.92069e-05
2.77506e-05
)
;
    }
}


// ************************************************************************* //
