/*--------------------------------*- C++ -*----------------------------------*\
| =========                 |                                                 |
| \\      /  F ield         | OpenFOAM: The Open Source CFD Toolbox           |
|  \\    /   O peration     | Version:  dev                                   |
|   \\  /    A nd           | Web:      www.OpenFOAM.org                      |
|    \\/     M anipulation  |                                                 |
\*---------------------------------------------------------------------------*/
FoamFile
{
    version     2.0;
    format      ascii;
    class       volScalarField;
    location    "0.18";
    object      P2-H;
}
// * * * * * * * * * * * * * * * * * * * * * * * * * * * * * * * * * * * * * //

dimensions      [0 0 0 0 0 0 0];

internalField   nonuniform List<scalar> 
50
(
1.15619e-27
1.05884e-27
9.71051e-28
8.91839e-28
8.20269e-28
7.56158e-28
6.97581e-28
6.44417e-28
5.96103e-28
5.52097e-28
5.12331e-28
4.75685e-28
4.42067e-28
4.11504e-28
3.83398e-28
3.57518e-28
3.33602e-28
3.11559e-28
2.91173e-28
2.7212e-28
2.54593e-28
2.38202e-28
2.22874e-28
2.08701e-28
1.95444e-28
1.83028e-28
1.71381e-28
1.6044e-28
1.50148e-28
1.40453e-28
1.31228e-28
1.22581e-28
1.14395e-28
1.06616e-28
9.926e-29
9.2281e-29
8.56608e-29
7.9347e-29
7.33344e-29
6.76872e-29
6.23132e-29
5.72515e-29
5.24548e-29
4.79132e-29
4.36446e-29
3.96388e-29
3.59244e-29
3.24465e-29
2.92246e-29
2.62409e-29
)
;

boundaryField
{
    wall
    {
        type            zeroGradient;
    }
    fuel
    {
        type            fixedValue;
        value           nonuniform 0();
    }
    outlet
    {
        type            inletOutlet;
        inletValue      nonuniform 0();
        value           nonuniform 0();
    }
    procBoundary2to1
    {
        type            processor;
        value           uniform 1.26589e-27;
    }
    procBoundary2to3
    {
        type            processor;
        value           uniform 2.34547e-29;
    }
}


// ************************************************************************* //
