/*--------------------------------*- C++ -*----------------------------------*\
| =========                 |                                                 |
| \\      /  F ield         | OpenFOAM: The Open Source CFD Toolbox           |
|  \\    /   O peration     | Version:  dev                                   |
|   \\  /    A nd           | Web:      www.OpenFOAM.org                      |
|    \\/     M anipulation  |                                                 |
\*---------------------------------------------------------------------------*/
FoamFile
{
    version     2.0;
    format      ascii;
    class       surfaceScalarField;
    location    "0.18";
    object      phi;
}
// * * * * * * * * * * * * * * * * * * * * * * * * * * * * * * * * * * * * * //

dimensions      [1 0 -1 0 0 0 0];

internalField   nonuniform List<scalar> 
464
(
-1.9081e-07
7.95404e-06
-5.3885e-08
8.03477e-06
-3.91429e-08
8.1501e-06
-4.03109e-08
8.16467e-06
-3.32139e-08
8.15555e-06
-2.68386e-08
8.15549e-06
-2.40207e-08
8.15836e-06
-1.76994e-08
8.15432e-06
8.1577e-06
-1.95128e-07
7.79315e-06
-1.03317e-07
7.9461e-06
-9.03624e-08
8.12757e-06
-8.6958e-08
8.15023e-06
-7.34865e-08
8.13058e-06
-6.03368e-08
8.13053e-06
-5.04576e-08
8.13626e-06
-3.7536e-08
8.1289e-06
8.13489e-06
-1.42954e-07
7.77872e-06
-1.5162e-07
7.97628e-06
-1.39709e-07
8.11946e-06
-1.3305e-07
8.14542e-06
-1.12673e-07
8.11169e-06
-9.26477e-08
8.11178e-06
-7.57635e-08
8.12031e-06
-5.61823e-08
8.11003e-06
8.11798e-06
-1.04228e-07
7.94425e-06
-1.98145e-07
8.10067e-06
-1.85933e-07
8.11611e-06
-1.76804e-07
8.14309e-06
-1.49468e-07
8.09084e-06
-1.22784e-07
8.09138e-06
-9.84017e-08
8.10193e-06
-7.13892e-08
8.08882e-06
8.09936e-06
-9.31858e-08
8.2133e-06
-2.43989e-07
8.28321e-06
-2.30058e-07
8.10951e-06
-2.18783e-07
8.13705e-06
-1.84506e-07
8.06151e-06
-1.51402e-07
8.06302e-06
-1.20086e-07
8.07511e-06
-8.64174e-08
8.05943e-06
8.07254e-06
-1.07467e-07
8.60568e-06
-2.89529e-07
8.49652e-06
-2.72625e-07
8.09756e-06
-2.59225e-07
8.12642e-06
-2.18076e-07
8.0229e-06
-1.78762e-07
8.02605e-06
-1.40632e-07
8.03908e-06
-1.00436e-07
8.02111e-06
8.03658e-06
-1.45226e-07
8.98592e-06
-3.348e-07
8.71703e-06
-3.1392e-07
8.08029e-06
-2.98178e-07
8.11212e-06
-2.50277e-07
7.97624e-06
-2.04944e-07
7.98174e-06
-1.60143e-07
7.9951e-06
-1.13529e-07
7.97505e-06
7.99268e-06
-2.02489e-07
9.36143e-06
-3.79955e-07
8.92494e-06
-3.54223e-07
8.05755e-06
-3.3574e-07
8.09468e-06
-2.81225e-07
7.92249e-06
-2.30049e-07
7.93111e-06
-1.78732e-07
7.94413e-06
-1.25817e-07
7.92221e-06
7.94183e-06
-2.703e-07
9.59373e-06
-4.25075e-07
9.10882e-06
-3.9379e-07
8.02884e-06
-3.72041e-07
8.07387e-06
-3.11052e-07
7.86212e-06
-2.54201e-07
7.87468e-06
-1.96536e-07
7.88662e-06
-1.37425e-07
7.86304e-06
7.88455e-06
-3.42185e-07
9.72006e-06
-4.70311e-07
9.26368e-06
-4.32917e-07
7.99347e-06
-4.07331e-07
8.04859e-06
-3.39986e-07
7.79515e-06
-2.77569e-07
7.81246e-06
-2.13715e-07
7.82267e-06
-1.4851e-07
7.79757e-06
7.82091e-06
-4.16589e-07
9.77255e-06
-5.15811e-07
9.38623e-06
-4.71821e-07
7.95084e-06
-4.41769e-07
8.01897e-06
-3.68165e-07
7.72206e-06
-3.00266e-07
7.74489e-06
-2.30388e-07
7.7525e-06
-1.59171e-07
7.72624e-06
-8.99496e-08
7.7514e-06
7.74427e-06
-4.92129e-07
9.76721e-06
-5.61704e-07
9.47483e-06
-5.10678e-07
7.90043e-06
-4.75534e-07
7.98404e-06
-3.9576e-07
7.64255e-06
-3.2243e-07
7.67166e-06
-2.46674e-07
7.67716e-06
-1.69515e-07
7.64876e-06
-9.4404e-08
7.67576e-06
7.66866e-06
-5.67609e-07
9.71301e-06
-6.08093e-07
9.52916e-06
-5.49628e-07
7.84174e-06
-5.08776e-07
7.94318e-06
-4.22909e-07
7.55673e-06
-3.44156e-07
7.59277e-06
-2.62672e-07
7.59521e-06
-1.79628e-07
7.56517e-06
-9.87338e-08
7.59413e-06
7.58685e-06
-6.42232e-07
9.61732e-06
-6.55035e-07
9.54999e-06
-5.88756e-07
7.77446e-06
-5.41597e-07
7.89575e-06
-4.49727e-07
7.46471e-06
-3.65533e-07
7.50826e-06
-2.78447e-07
7.50742e-06
-1.89577e-07
7.47557e-06
-1.02999e-07
7.50662e-06
7.49882e-06
-7.15424e-07
9.48504e-06
-7.02505e-07
9.53741e-06
-6.28103e-07
7.69823e-06
-5.74041e-07
7.84117e-06
-4.76308e-07
7.36665e-06
-3.86638e-07
7.41811e-06
-2.94063e-07
7.41405e-06
-1.99421e-07
7.38003e-06
-1.07251e-07
7.41336e-06
7.40469e-06
-7.8692e-07
9.3038e-06
-7.50426e-07
9.50043e-06
-6.6772e-07
7.61295e-06
-6.06175e-07
7.77888e-06
-5.02725e-07
7.26272e-06
-4.07533e-07
7.32231e-06
-3.09567e-07
7.3152e-06
-2.0921e-07
7.27863e-06
-1.11528e-07
7.31446e-06
7.30457e-06
-8.56385e-07
9.15704e-06
-7.98986e-07
9.43867e-06
-7.07574e-07
7.51833e-06
-6.38039e-07
7.70835e-06
-5.29036e-07
7.15309e-06
-4.28269e-07
7.22081e-06
-3.24997e-07
7.21092e-06
-2.18984e-07
7.17146e-06
-1.15859e-07
7.20998e-06
7.19856e-06
-9.24398e-07
8.9749e-06
-8.4797e-07
9.35344e-06
-7.47612e-07
7.41422e-06
-6.69667e-07
7.62912e-06
-5.55283e-07
7.03795e-06
-4.48891e-07
7.1136e-06
-3.40381e-07
7.1013e-06
-2.28775e-07
7.0586e-06
-1.20266e-07
7.10001e-06
7.08674e-06
-9.90643e-07
8.77951e-06
-8.973e-07
9.24786e-06
-7.87785e-07
7.30055e-06
-7.01093e-07
7.54084e-06
-5.81498e-07
6.91749e-06
-4.69437e-07
7.00063e-06
-3.5573e-07
6.98639e-06
-2.38602e-07
6.94011e-06
-1.24767e-07
6.98462e-06
6.96919e-06
-1.05524e-06
8.57742e-06
-9.46877e-07
9.12444e-06
-8.28038e-07
7.17731e-06
-7.32347e-07
7.44371e-06
-6.07701e-07
6.79188e-06
-4.89938e-07
6.8819e-06
-3.71078e-07
6.86625e-06
-2.48499e-07
6.81614e-06
-1.29371e-07
6.86384e-06
6.84599e-06
-1.11833e-06
8.37169e-06
-9.96595e-07
8.98551e-06
-8.68264e-07
7.04446e-06
-7.63421e-07
7.33829e-06
-6.33909e-07
6.66134e-06
-5.1042e-07
6.7574e-06
-3.86429e-07
6.74091e-06
-2.5847e-07
6.68676e-06
-1.34087e-07
6.73775e-06
6.71723e-06
-1.17978e-06
8.1644e-06
-1.0461e-06
8.83146e-06
-9.08423e-07
6.90225e-06
-7.94383e-07
7.22299e-06
-6.60128e-07
6.52602e-06
-5.30903e-07
6.62716e-06
-4.01767e-07
6.61039e-06
-2.68503e-07
6.55203e-06
-1.38917e-07
6.60642e-06
6.58303e-06
-1.24021e-06
7.9575e-06
-1.09573e-06
8.66684e-06
-9.48435e-07
6.75052e-06
-8.2516e-07
7.0985e-06
-6.86247e-07
6.38597e-06
-5.5131e-07
6.49113e-06
-4.17065e-07
6.47467e-06
-2.78592e-07
6.41205e-06
-1.43832e-07
6.46984e-06
6.44343e-06
-1.29953e-06
7.75201e-06
-1.14513e-06
8.49276e-06
-9.88282e-07
6.58948e-06
-8.55847e-07
6.96489e-06
-7.12383e-07
6.24133e-06
-5.71793e-07
6.34945e-06
-4.32418e-07
6.33376e-06
-2.88786e-07
6.26692e-06
-1.48863e-07
6.32806e-06
6.29854e-06
-1.35783e-06
7.54817e-06
-1.19398e-06
8.30998e-06
-1.02778e-06
6.41928e-06
-8.86417e-07
6.82234e-06
-7.38441e-07
6.09217e-06
-5.92205e-07
6.20212e-06
-4.47705e-07
6.18771e-06
-2.98999e-07
6.11675e-06
-1.53956e-07
6.18116e-06
6.14848e-06
-1.41516e-06
-1.24202e-06
-1.06701e-06
-9.16915e-07
-7.64451e-07
-6.12616e-07
-4.62978e-07
-3.09263e-07
-1.59111e-07
)
;

boundaryField
{
    fuel
    {
        type            calculated;
        value           nonuniform List<scalar> 9(-8.18295e-06 -8.18287e-06 -8.18278e-06 -8.18266e-06 -8.18256e-06 -8.18247e-06 -8.18239e-06 -8.18233e-06 -8.1823e-06);
    }
    wall
    {
        type            calculated;
        value           nonuniform 0();
    }
    outlet
    {
        type            calculated;
        value           nonuniform List<scalar> 
26
(
2.91663e-07
2.67533e-07
1.15254e-07
-1.3723e-08
-1.61435e-07
-2.08344e-07
-1.50403e-07
8.36819e-09
1.04019e-07
2.05259e-07
3.09319e-07
4.13736e-07
5.16473e-07
6.16326e-07
7.12653e-07
8.05289e-07
8.93852e-07
9.7879e-07
1.06002e-06
1.13787e-06
1.21264e-06
1.28462e-06
1.35415e-06
1.42158e-06
1.48737e-06
1.55227e-06
)
;
    }
    frontAndBack
    {
        type            empty;
        value           nonuniform 0();
    }
    procBoundary2to0
    {
        type            processor;
        value           nonuniform List<scalar> 
12
(
-5.69441e-09
7.34545e-06
8.11886e-06
6.24102e-06
6.67106e-06
5.93848e-06
6.04918e-06
6.03642e-06
5.96155e-06
6.02908e-06
-5.71761e-09
5.99326e-06
)
;
    }
    procBoundary2to3
    {
        type            processor;
        value           nonuniform List<scalar> 
25
(
-1.51354e-08
-2.74352e-08
-3.8738e-08
-4.71426e-08
-5.54873e-08
-6.27601e-08
-6.9228e-08
-7.50502e-08
-8.03624e-08
-8.52985e-08
-7.81373e-06
-2.09486e-08
-1.93457e-08
-1.76758e-08
-1.59949e-08
-1.43499e-08
-1.27824e-08
-1.13278e-08
-1.00146e-08
-8.8641e-09
-7.89047e-09
-7.10066e-09
-6.49551e-09
-6.0678e-09
-5.80467e-09
)
;
    }
}


// ************************************************************************* //
