/*--------------------------------*- C++ -*----------------------------------*\
| =========                 |                                                 |
| \\      /  F ield         | OpenFOAM: The Open Source CFD Toolbox           |
|  \\    /   O peration     | Version:  dev                                   |
|   \\  /    A nd           | Web:      www.OpenFOAM.org                      |
|    \\/     M anipulation  |                                                 |
\*---------------------------------------------------------------------------*/
FoamFile
{
    version     2.0;
    format      ascii;
    class       volScalarField;
    location    "0.07";
    object      A2C2HA*;
}
// * * * * * * * * * * * * * * * * * * * * * * * * * * * * * * * * * * * * * //

dimensions      [0 0 0 0 0 0 0];

internalField   nonuniform List<scalar> 
2000
(
4.10892e-11
4.11201e-11
4.11578e-11
4.11619e-11
4.11613e-11
4.11611e-11
4.11596e-11
4.116e-11
4.11591e-11
4.11597e-11
4.11592e-11
4.11596e-11
4.11593e-11
4.11596e-11
4.11594e-11
4.11596e-11
4.11594e-11
4.11596e-11
4.11595e-11
4.11596e-11
4.11595e-11
4.11596e-11
4.11595e-11
4.11596e-11
4.11596e-11
4.11596e-11
4.11596e-11
4.11595e-11
4.11596e-11
4.11595e-11
4.11596e-11
4.11595e-11
4.11596e-11
4.11594e-11
4.11596e-11
4.11594e-11
4.11596e-11
4.11593e-11
4.11596e-11
4.11592e-11
4.11597e-11
4.11591e-11
4.11601e-11
4.11596e-11
4.11611e-11
4.11613e-11
4.11619e-11
4.11578e-11
4.11201e-11
4.10892e-11
1.5277e-10
1.52827e-10
1.52987e-10
1.53011e-10
1.5301e-10
1.53011e-10
1.53005e-10
1.53008e-10
1.53004e-10
1.53006e-10
1.53004e-10
1.53006e-10
1.53004e-10
1.53006e-10
1.53005e-10
1.53006e-10
1.53005e-10
1.53006e-10
1.53005e-10
1.53006e-10
1.53005e-10
1.53006e-10
1.53005e-10
1.53006e-10
1.53006e-10
1.53006e-10
1.53006e-10
1.53005e-10
1.53006e-10
1.53005e-10
1.53006e-10
1.53005e-10
1.53006e-10
1.53005e-10
1.53006e-10
1.53005e-10
1.53006e-10
1.53004e-10
1.53006e-10
1.53004e-10
1.53006e-10
1.53004e-10
1.53008e-10
1.53005e-10
1.53011e-10
1.5301e-10
1.53011e-10
1.52987e-10
1.52827e-10
1.5277e-10
3.33238e-10
3.33383e-10
3.33735e-10
3.33791e-10
3.33773e-10
3.33784e-10
3.33762e-10
3.33774e-10
3.33759e-10
3.3377e-10
3.33761e-10
3.33768e-10
3.33763e-10
3.33767e-10
3.33764e-10
3.33767e-10
3.33764e-10
3.33767e-10
3.33765e-10
3.33767e-10
3.33766e-10
3.33767e-10
3.33766e-10
3.33766e-10
3.33766e-10
3.33766e-10
3.33766e-10
3.33766e-10
3.33767e-10
3.33766e-10
3.33767e-10
3.33765e-10
3.33767e-10
3.33764e-10
3.33767e-10
3.33764e-10
3.33767e-10
3.33763e-10
3.33768e-10
3.33761e-10
3.3377e-10
3.33759e-10
3.33774e-10
3.33762e-10
3.33784e-10
3.33773e-10
3.33791e-10
3.33735e-10
3.33383e-10
3.33238e-10
5.12749e-10
5.12892e-10
5.13321e-10
5.13341e-10
5.13269e-10
5.13288e-10
5.1324e-10
5.13266e-10
5.13237e-10
5.13259e-10
5.13241e-10
5.13256e-10
5.13244e-10
5.13254e-10
5.13247e-10
5.13254e-10
5.13248e-10
5.13253e-10
5.1325e-10
5.13253e-10
5.13251e-10
5.13252e-10
5.13251e-10
5.13252e-10
5.13252e-10
5.13252e-10
5.13252e-10
5.13251e-10
5.13252e-10
5.13251e-10
5.13253e-10
5.1325e-10
5.13253e-10
5.13248e-10
5.13254e-10
5.13247e-10
5.13254e-10
5.13244e-10
5.13256e-10
5.13241e-10
5.13259e-10
5.13237e-10
5.13266e-10
5.13241e-10
5.13288e-10
5.13269e-10
5.13341e-10
5.13321e-10
5.12892e-10
5.12749e-10
5.8698e-10
5.8696e-10
5.87284e-10
5.87189e-10
5.87057e-10
5.87066e-10
5.87002e-10
5.87033e-10
5.86997e-10
5.87024e-10
5.87002e-10
5.87021e-10
5.87007e-10
5.87019e-10
5.8701e-10
5.87019e-10
5.87012e-10
5.87018e-10
5.87013e-10
5.87017e-10
5.87015e-10
5.87017e-10
5.87015e-10
5.87016e-10
5.87016e-10
5.87016e-10
5.87016e-10
5.87015e-10
5.87017e-10
5.87015e-10
5.87017e-10
5.87013e-10
5.87018e-10
5.87012e-10
5.87019e-10
5.8701e-10
5.87019e-10
5.87007e-10
5.87021e-10
5.87002e-10
5.87024e-10
5.86997e-10
5.87033e-10
5.87002e-10
5.87066e-10
5.87057e-10
5.87189e-10
5.87284e-10
5.8696e-10
5.8698e-10
5.6142e-10
5.61283e-10
5.61547e-10
5.61379e-10
5.61213e-10
5.61216e-10
5.61143e-10
5.61178e-10
5.61137e-10
5.61167e-10
5.61142e-10
5.61164e-10
5.61148e-10
5.61162e-10
5.61152e-10
5.61161e-10
5.61154e-10
5.61161e-10
5.61156e-10
5.6116e-10
5.61157e-10
5.61159e-10
5.61157e-10
5.61159e-10
5.61158e-10
5.61158e-10
5.61159e-10
5.61157e-10
5.61159e-10
5.61157e-10
5.6116e-10
5.61156e-10
5.61161e-10
5.61154e-10
5.61161e-10
5.61152e-10
5.61162e-10
5.61148e-10
5.61164e-10
5.61142e-10
5.61167e-10
5.61137e-10
5.61177e-10
5.61143e-10
5.61216e-10
5.61213e-10
5.61379e-10
5.61547e-10
5.61283e-10
5.6142e-10
4.87812e-10
4.87667e-10
4.87962e-10
4.87794e-10
4.87624e-10
4.87629e-10
4.87552e-10
4.87589e-10
4.87546e-10
4.87578e-10
4.87552e-10
4.87575e-10
4.87558e-10
4.87572e-10
4.87562e-10
4.87572e-10
4.87563e-10
4.87571e-10
4.87565e-10
4.8757e-10
4.87567e-10
4.87569e-10
4.87567e-10
4.87569e-10
4.87568e-10
4.87568e-10
4.87569e-10
4.87567e-10
4.87569e-10
4.87567e-10
4.8757e-10
4.87565e-10
4.87571e-10
4.87563e-10
4.87572e-10
4.87561e-10
4.87572e-10
4.87558e-10
4.87574e-10
4.87552e-10
4.87578e-10
4.87546e-10
4.87589e-10
4.87552e-10
4.87629e-10
4.87624e-10
4.87794e-10
4.87962e-10
4.87667e-10
4.87812e-10
4.03828e-10
4.03744e-10
4.04116e-10
4.0399e-10
4.03835e-10
4.03847e-10
4.03769e-10
4.03808e-10
4.03764e-10
4.03797e-10
4.03769e-10
4.03793e-10
4.03775e-10
4.0379e-10
4.03779e-10
4.03789e-10
4.03781e-10
4.03788e-10
4.03783e-10
4.03787e-10
4.03784e-10
4.03787e-10
4.03785e-10
4.03786e-10
4.03786e-10
4.03786e-10
4.03786e-10
4.03785e-10
4.03787e-10
4.03784e-10
4.03787e-10
4.03783e-10
4.03788e-10
4.03781e-10
4.03789e-10
4.03779e-10
4.0379e-10
4.03775e-10
4.03793e-10
4.03769e-10
4.03797e-10
4.03764e-10
4.03808e-10
4.03769e-10
4.03847e-10
4.03835e-10
4.03991e-10
4.04116e-10
4.03744e-10
4.03828e-10
3.27069e-10
3.27068e-10
3.27517e-10
3.27449e-10
3.27316e-10
3.27336e-10
3.27261e-10
3.27301e-10
3.27256e-10
3.27289e-10
3.27261e-10
3.27285e-10
3.27267e-10
3.27282e-10
3.2727e-10
3.27281e-10
3.27272e-10
3.2728e-10
3.27274e-10
3.27278e-10
3.27275e-10
3.27278e-10
3.27276e-10
3.27277e-10
3.27277e-10
3.27277e-10
3.27277e-10
3.27276e-10
3.27278e-10
3.27275e-10
3.27278e-10
3.27274e-10
3.2728e-10
3.27272e-10
3.27281e-10
3.2727e-10
3.27282e-10
3.27267e-10
3.27285e-10
3.27261e-10
3.27289e-10
3.27256e-10
3.27301e-10
3.27261e-10
3.27336e-10
3.27316e-10
3.27449e-10
3.27517e-10
3.27068e-10
3.27069e-10
2.6333e-10
2.63409e-10
2.63918e-10
2.63906e-10
2.63796e-10
2.63823e-10
2.63752e-10
2.63791e-10
2.63747e-10
2.6378e-10
2.63752e-10
2.63775e-10
2.63757e-10
2.63772e-10
2.63761e-10
2.63771e-10
2.63762e-10
2.6377e-10
2.63764e-10
2.63768e-10
2.63765e-10
2.63768e-10
2.63766e-10
2.63767e-10
2.63767e-10
2.63767e-10
2.63767e-10
2.63766e-10
2.63768e-10
2.63765e-10
2.63768e-10
2.63764e-10
2.6377e-10
2.63762e-10
2.63771e-10
2.63761e-10
2.63772e-10
2.63757e-10
2.63775e-10
2.63752e-10
2.6378e-10
2.63747e-10
2.63791e-10
2.63752e-10
2.63823e-10
2.63796e-10
2.63906e-10
2.63918e-10
2.63409e-10
2.6333e-10
2.12665e-10
2.12814e-10
2.13359e-10
2.13394e-10
2.13307e-10
2.13339e-10
2.13272e-10
2.13311e-10
2.13268e-10
2.13299e-10
2.13273e-10
2.13295e-10
2.13277e-10
2.13291e-10
2.1328e-10
2.1329e-10
2.13282e-10
2.13289e-10
2.13284e-10
2.13288e-10
2.13285e-10
2.13287e-10
2.13285e-10
2.13286e-10
2.13286e-10
2.13286e-10
2.13286e-10
2.13285e-10
2.13287e-10
2.13285e-10
2.13288e-10
2.13284e-10
2.13289e-10
2.13282e-10
2.1329e-10
2.1328e-10
2.13291e-10
2.13277e-10
2.13294e-10
2.13273e-10
2.13299e-10
2.13268e-10
2.13311e-10
2.13272e-10
2.13339e-10
2.13307e-10
2.13394e-10
2.13359e-10
2.12814e-10
2.12665e-10
1.71621e-10
1.71806e-10
1.72331e-10
1.72393e-10
1.72326e-10
1.72358e-10
1.72299e-10
1.72333e-10
1.72295e-10
1.72323e-10
1.72299e-10
1.72318e-10
1.72303e-10
1.72315e-10
1.72305e-10
1.72314e-10
1.72306e-10
1.72313e-10
1.72308e-10
1.72312e-10
1.72309e-10
1.72311e-10
1.7231e-10
1.72311e-10
1.7231e-10
1.7231e-10
1.72311e-10
1.7231e-10
1.72311e-10
1.72309e-10
1.72312e-10
1.72308e-10
1.72313e-10
1.72306e-10
1.72314e-10
1.72305e-10
1.72315e-10
1.72303e-10
1.72318e-10
1.72299e-10
1.72323e-10
1.72295e-10
1.72333e-10
1.72299e-10
1.72358e-10
1.72326e-10
1.72393e-10
1.72331e-10
1.71806e-10
1.71621e-10
1.40997e-10
1.41225e-10
1.41754e-10
1.41843e-10
1.4179e-10
1.41825e-10
1.4177e-10
1.41803e-10
1.41766e-10
1.41793e-10
1.4177e-10
1.41788e-10
1.41773e-10
1.41785e-10
1.41775e-10
1.41784e-10
1.41777e-10
1.41783e-10
1.41778e-10
1.41782e-10
1.41779e-10
1.41781e-10
1.41779e-10
1.41781e-10
1.4178e-10
1.4178e-10
1.41781e-10
1.41779e-10
1.41781e-10
1.41779e-10
1.41782e-10
1.41778e-10
1.41783e-10
1.41777e-10
1.41784e-10
1.41775e-10
1.41785e-10
1.41773e-10
1.41788e-10
1.4177e-10
1.41793e-10
1.41766e-10
1.41803e-10
1.4177e-10
1.41824e-10
1.4179e-10
1.41843e-10
1.41754e-10
1.41225e-10
1.40997e-10
1.1711e-10
1.17269e-10
1.17702e-10
1.17784e-10
1.17757e-10
1.17784e-10
1.17744e-10
1.17768e-10
1.1774e-10
1.17759e-10
1.17742e-10
1.17756e-10
1.17745e-10
1.17753e-10
1.17746e-10
1.17752e-10
1.17747e-10
1.17751e-10
1.17748e-10
1.17751e-10
1.17749e-10
1.1775e-10
1.17749e-10
1.1775e-10
1.17749e-10
1.17749e-10
1.1775e-10
1.17749e-10
1.1775e-10
1.17749e-10
1.17751e-10
1.17748e-10
1.17751e-10
1.17747e-10
1.17752e-10
1.17746e-10
1.17753e-10
1.17745e-10
1.17756e-10
1.17742e-10
1.17759e-10
1.1774e-10
1.17768e-10
1.17744e-10
1.17784e-10
1.17757e-10
1.17784e-10
1.17702e-10
1.17269e-10
1.1711e-10
9.78841e-11
9.80535e-11
9.84499e-11
9.8537e-11
9.85201e-11
9.85451e-11
9.85103e-11
9.85313e-11
9.85068e-11
9.85235e-11
9.85083e-11
9.85201e-11
9.85103e-11
9.85179e-11
9.85116e-11
9.85169e-11
9.85122e-11
9.85162e-11
9.85132e-11
9.85156e-11
9.85138e-11
9.85151e-11
9.8514e-11
9.85147e-11
9.85144e-11
9.85144e-11
9.85147e-11
9.8514e-11
9.85151e-11
9.85138e-11
9.85156e-11
9.85132e-11
9.85162e-11
9.85122e-11
9.85169e-11
9.85116e-11
9.85179e-11
9.85104e-11
9.852e-11
9.85084e-11
9.85236e-11
9.85068e-11
9.85313e-11
9.85104e-11
9.8545e-11
9.85201e-11
9.8537e-11
9.84499e-11
9.80535e-11
9.78841e-11
8.33091e-11
8.34906e-11
8.38641e-11
8.39571e-11
8.39474e-11
8.39719e-11
8.39407e-11
8.39598e-11
8.39374e-11
8.39525e-11
8.39386e-11
8.39492e-11
8.39403e-11
8.39472e-11
8.39414e-11
8.39462e-11
8.39419e-11
8.39456e-11
8.39428e-11
8.3945e-11
8.39433e-11
8.39445e-11
8.39435e-11
8.39442e-11
8.39439e-11
8.39439e-11
8.39442e-11
8.39435e-11
8.39445e-11
8.39433e-11
8.3945e-11
8.39428e-11
8.39456e-11
8.39419e-11
8.39462e-11
8.39414e-11
8.39472e-11
8.39403e-11
8.39492e-11
8.39387e-11
8.39525e-11
8.39374e-11
8.39598e-11
8.39408e-11
8.39718e-11
8.39474e-11
8.39571e-11
8.38641e-11
8.34906e-11
8.33091e-11
7.13241e-11
7.15305e-11
7.18994e-11
7.20088e-11
7.201e-11
7.20361e-11
7.2008e-11
7.20256e-11
7.20046e-11
7.20183e-11
7.20053e-11
7.2015e-11
7.20066e-11
7.20128e-11
7.20074e-11
7.20119e-11
7.20078e-11
7.20112e-11
7.20087e-11
7.20106e-11
7.20091e-11
7.20102e-11
7.20093e-11
7.20099e-11
7.20096e-11
7.20096e-11
7.20099e-11
7.20093e-11
7.20102e-11
7.20091e-11
7.20106e-11
7.20087e-11
7.20112e-11
7.20078e-11
7.20119e-11
7.20074e-11
7.20129e-11
7.20066e-11
7.20149e-11
7.20054e-11
7.20184e-11
7.20046e-11
7.20256e-11
7.20081e-11
7.20361e-11
7.201e-11
7.20088e-11
7.18994e-11
7.15305e-11
7.13241e-11
6.20068e-11
6.22172e-11
6.25603e-11
6.26696e-11
6.26755e-11
6.27004e-11
6.26753e-11
6.26911e-11
6.2672e-11
6.26843e-11
6.26724e-11
6.26811e-11
6.26734e-11
6.26791e-11
6.26742e-11
6.26781e-11
6.26745e-11
6.26776e-11
6.26752e-11
6.2677e-11
6.26756e-11
6.26766e-11
6.26758e-11
6.26763e-11
6.26761e-11
6.26761e-11
6.26763e-11
6.26758e-11
6.26766e-11
6.26756e-11
6.2677e-11
6.26752e-11
6.26775e-11
6.26745e-11
6.26782e-11
6.26741e-11
6.26791e-11
6.26735e-11
6.2681e-11
6.26725e-11
6.26843e-11
6.2672e-11
6.26911e-11
6.26753e-11
6.27003e-11
6.26755e-11
6.26696e-11
6.25603e-11
6.22172e-11
6.20068e-11
5.41504e-11
5.438e-11
5.47196e-11
5.48376e-11
5.48458e-11
5.48719e-11
5.48472e-11
5.4863e-11
5.4844e-11
5.48562e-11
5.48444e-11
5.4853e-11
5.48454e-11
5.4851e-11
5.48461e-11
5.485e-11
5.48464e-11
5.48495e-11
5.48472e-11
5.4849e-11
5.48475e-11
5.48486e-11
5.48477e-11
5.48483e-11
5.4848e-11
5.4848e-11
5.48483e-11
5.48477e-11
5.48486e-11
5.48476e-11
5.4849e-11
5.48472e-11
5.48495e-11
5.48464e-11
5.48501e-11
5.48461e-11
5.4851e-11
5.48454e-11
5.48529e-11
5.48445e-11
5.48562e-11
5.4844e-11
5.4863e-11
5.48472e-11
5.48718e-11
5.48458e-11
5.48376e-11
5.47196e-11
5.438e-11
5.41504e-11
4.7675e-11
4.79036e-11
4.82127e-11
4.83256e-11
4.83363e-11
4.83604e-11
4.83385e-11
4.83524e-11
4.83354e-11
4.83461e-11
4.83356e-11
4.83432e-11
4.83364e-11
4.83413e-11
4.83369e-11
4.83404e-11
4.83372e-11
4.83399e-11
4.83379e-11
4.83395e-11
4.83382e-11
4.83391e-11
4.83383e-11
4.83388e-11
4.83386e-11
4.83386e-11
4.83388e-11
4.83383e-11
4.83391e-11
4.83382e-11
4.83395e-11
4.83379e-11
4.83399e-11
4.83372e-11
4.83405e-11
4.83369e-11
4.83413e-11
4.83364e-11
4.83431e-11
4.83356e-11
4.83461e-11
4.83354e-11
4.83524e-11
4.83385e-11
4.83603e-11
4.83363e-11
4.83256e-11
4.82127e-11
4.79036e-11
4.7675e-11
4.24813e-11
4.27138e-11
4.30012e-11
4.3111e-11
4.31236e-11
4.31465e-11
4.31266e-11
4.31393e-11
4.31236e-11
4.31333e-11
4.31237e-11
4.31305e-11
4.31243e-11
4.31288e-11
4.31247e-11
4.31279e-11
4.3125e-11
4.31275e-11
4.31256e-11
4.3127e-11
4.31259e-11
4.31267e-11
4.3126e-11
4.31264e-11
4.31263e-11
4.31263e-11
4.31264e-11
4.3126e-11
4.31267e-11
4.31259e-11
4.3127e-11
4.31256e-11
4.31275e-11
4.3125e-11
4.3128e-11
4.31247e-11
4.31288e-11
4.31243e-11
4.31305e-11
4.31237e-11
4.31333e-11
4.31236e-11
4.31393e-11
4.31267e-11
4.31465e-11
4.31236e-11
4.3111e-11
4.30012e-11
4.27138e-11
4.24814e-11
3.81175e-11
3.83557e-11
3.86236e-11
3.873e-11
3.8744e-11
3.87658e-11
3.87476e-11
3.87592e-11
3.87446e-11
3.87535e-11
3.87445e-11
3.87508e-11
3.8745e-11
3.87492e-11
3.87454e-11
3.87484e-11
3.87456e-11
3.87479e-11
3.87462e-11
3.87475e-11
3.87464e-11
3.87472e-11
3.87466e-11
3.8747e-11
3.87468e-11
3.87468e-11
3.8747e-11
3.87466e-11
3.87472e-11
3.87465e-11
3.87475e-11
3.87462e-11
3.87479e-11
3.87456e-11
3.87484e-11
3.87454e-11
3.87492e-11
3.87451e-11
3.87508e-11
3.87446e-11
3.87535e-11
3.87446e-11
3.87592e-11
3.87476e-11
3.87658e-11
3.8744e-11
3.873e-11
3.86236e-11
3.83557e-11
3.81175e-11
3.44174e-11
3.4555e-11
3.47916e-11
3.48907e-11
3.49081e-11
3.49285e-11
3.49131e-11
3.49228e-11
3.491e-11
3.49173e-11
3.49094e-11
3.49146e-11
3.49095e-11
3.49129e-11
3.49097e-11
3.49121e-11
3.49097e-11
3.49117e-11
3.49102e-11
3.49113e-11
3.49104e-11
3.4911e-11
3.49104e-11
3.49108e-11
3.49106e-11
3.49106e-11
3.49108e-11
3.49104e-11
3.4911e-11
3.49104e-11
3.49113e-11
3.49102e-11
3.49117e-11
3.49097e-11
3.49121e-11
3.49097e-11
3.49129e-11
3.49095e-11
3.49146e-11
3.49095e-11
3.49173e-11
3.491e-11
3.49228e-11
3.49132e-11
3.49284e-11
3.49081e-11
3.48907e-11
3.47916e-11
3.4555e-11
3.44174e-11
3.12547e-11
3.13935e-11
3.16135e-11
3.17087e-11
3.17267e-11
3.17461e-11
3.17321e-11
3.17409e-11
3.17291e-11
3.17356e-11
3.17283e-11
3.1733e-11
3.17283e-11
3.17314e-11
3.17284e-11
3.17307e-11
3.17284e-11
3.17302e-11
3.17288e-11
3.17299e-11
3.1729e-11
3.17296e-11
3.17291e-11
3.17294e-11
3.17293e-11
3.17293e-11
3.17294e-11
3.17291e-11
3.17296e-11
3.1729e-11
3.17299e-11
3.17288e-11
3.17302e-11
3.17285e-11
3.17307e-11
3.17284e-11
3.17314e-11
3.17283e-11
3.1733e-11
3.17284e-11
3.17356e-11
3.1729e-11
3.17409e-11
3.17321e-11
3.17461e-11
3.17267e-11
3.17087e-11
3.16135e-11
3.13935e-11
3.12547e-11
2.84265e-11
2.85672e-11
2.87768e-11
2.88714e-11
2.88909e-11
2.891e-11
2.88969e-11
2.89051e-11
2.88938e-11
2.88998e-11
2.88929e-11
2.88972e-11
2.88928e-11
2.88956e-11
2.88928e-11
2.88949e-11
2.88928e-11
2.88945e-11
2.88931e-11
2.88941e-11
2.88933e-11
2.88939e-11
2.88934e-11
2.88937e-11
2.88935e-11
2.88935e-11
2.88937e-11
2.88934e-11
2.88939e-11
2.88933e-11
2.88941e-11
2.88931e-11
2.88945e-11
2.88928e-11
2.88949e-11
2.88928e-11
2.88956e-11
2.88928e-11
2.88972e-11
2.88929e-11
2.88998e-11
2.88938e-11
2.89051e-11
2.88969e-11
2.89099e-11
2.88909e-11
2.88714e-11
2.87768e-11
2.85672e-11
2.84265e-11
2.5969e-11
2.61071e-11
2.63006e-11
2.63903e-11
2.64097e-11
2.64277e-11
2.64158e-11
2.64232e-11
2.64128e-11
2.64181e-11
2.64118e-11
2.64156e-11
2.64116e-11
2.64141e-11
2.64115e-11
2.64134e-11
2.64115e-11
2.6413e-11
2.64118e-11
2.64127e-11
2.64119e-11
2.64125e-11
2.6412e-11
2.64123e-11
2.64122e-11
2.64122e-11
2.64123e-11
2.6412e-11
2.64125e-11
2.64119e-11
2.64127e-11
2.64118e-11
2.6413e-11
2.64115e-11
2.64134e-11
2.64115e-11
2.64141e-11
2.64116e-11
2.64156e-11
2.64118e-11
2.64181e-11
2.64128e-11
2.64231e-11
2.64158e-11
2.64277e-11
2.64097e-11
2.63902e-11
2.63006e-11
2.61071e-11
2.5969e-11
2.38188e-11
2.39541e-11
2.41329e-11
2.42178e-11
2.42371e-11
2.4254e-11
2.42431e-11
2.42498e-11
2.42402e-11
2.42449e-11
2.42391e-11
2.42426e-11
2.42388e-11
2.42411e-11
2.42387e-11
2.42404e-11
2.42387e-11
2.42401e-11
2.42389e-11
2.42398e-11
2.42391e-11
2.42395e-11
2.42391e-11
2.42394e-11
2.42392e-11
2.42393e-11
2.42394e-11
2.42391e-11
2.42395e-11
2.42391e-11
2.42398e-11
2.42389e-11
2.424e-11
2.42387e-11
2.42404e-11
2.42387e-11
2.42411e-11
2.42388e-11
2.42425e-11
2.42391e-11
2.4245e-11
2.42402e-11
2.42498e-11
2.42431e-11
2.4254e-11
2.42371e-11
2.42177e-11
2.41329e-11
2.39541e-11
2.38188e-11
2.19261e-11
2.2058e-11
2.22237e-11
2.23039e-11
2.23229e-11
2.23389e-11
2.23289e-11
2.23349e-11
2.2326e-11
2.23302e-11
2.23249e-11
2.23279e-11
2.23245e-11
2.23266e-11
2.23243e-11
2.23259e-11
2.23243e-11
2.23255e-11
2.23245e-11
2.23253e-11
2.23246e-11
2.2325e-11
2.23247e-11
2.23249e-11
2.23248e-11
2.23248e-11
2.23249e-11
2.23247e-11
2.23251e-11
2.23246e-11
2.23253e-11
2.23245e-11
2.23255e-11
2.23243e-11
2.23259e-11
2.23243e-11
2.23266e-11
2.23245e-11
2.23279e-11
2.23249e-11
2.23302e-11
2.2326e-11
2.23349e-11
2.23289e-11
2.23388e-11
2.23229e-11
2.23039e-11
2.22237e-11
2.2058e-11
2.19261e-11
2.02509e-11
2.03789e-11
2.05329e-11
2.06085e-11
2.06272e-11
2.06422e-11
2.0633e-11
2.06384e-11
2.06302e-11
2.06339e-11
2.0629e-11
2.06317e-11
2.06285e-11
2.06304e-11
2.06283e-11
2.06297e-11
2.06283e-11
2.06294e-11
2.06285e-11
2.06292e-11
2.06286e-11
2.0629e-11
2.06286e-11
2.06288e-11
2.06287e-11
2.06287e-11
2.06288e-11
2.06286e-11
2.0629e-11
2.06286e-11
2.06292e-11
2.06285e-11
2.06294e-11
2.06283e-11
2.06298e-11
2.06283e-11
2.06304e-11
2.06285e-11
2.06317e-11
2.0629e-11
2.0634e-11
2.06302e-11
2.06384e-11
2.0633e-11
2.06421e-11
2.06271e-11
2.06085e-11
2.05329e-11
2.03789e-11
2.02509e-11
1.87609e-11
1.88847e-11
1.90281e-11
1.90992e-11
1.91174e-11
1.91316e-11
1.91231e-11
1.9128e-11
1.91203e-11
1.91237e-11
1.91191e-11
1.91215e-11
1.91186e-11
1.91203e-11
1.91184e-11
1.91196e-11
1.91183e-11
1.91193e-11
1.91185e-11
1.91191e-11
1.91185e-11
1.91189e-11
1.91186e-11
1.91188e-11
1.91187e-11
1.91187e-11
1.91188e-11
1.91186e-11
1.91189e-11
1.91185e-11
1.91191e-11
1.91185e-11
1.91193e-11
1.91183e-11
1.91197e-11
1.91184e-11
1.91203e-11
1.91186e-11
1.91215e-11
1.91191e-11
1.91237e-11
1.91203e-11
1.9128e-11
1.91231e-11
1.91316e-11
1.91174e-11
1.90992e-11
1.90281e-11
1.88847e-11
1.87609e-11
1.74296e-11
1.7549e-11
1.76827e-11
1.77497e-11
1.77673e-11
1.77807e-11
1.77729e-11
1.77772e-11
1.77701e-11
1.77731e-11
1.77688e-11
1.7771e-11
1.77682e-11
1.77698e-11
1.7768e-11
1.77692e-11
1.77679e-11
1.77689e-11
1.77681e-11
1.77686e-11
1.77681e-11
1.77685e-11
1.77681e-11
1.77683e-11
1.77682e-11
1.77682e-11
1.77683e-11
1.77681e-11
1.77685e-11
1.77681e-11
1.77686e-11
1.77681e-11
1.77689e-11
1.77679e-11
1.77692e-11
1.7768e-11
1.77698e-11
1.77683e-11
1.7771e-11
1.77688e-11
1.77731e-11
1.77701e-11
1.77772e-11
1.77729e-11
1.77807e-11
1.77673e-11
1.77497e-11
1.76827e-11
1.7549e-11
1.74296e-11
1.62353e-11
1.63503e-11
1.64752e-11
1.65381e-11
1.65552e-11
1.65677e-11
1.65605e-11
1.65644e-11
1.65578e-11
1.65604e-11
1.65564e-11
1.65584e-11
1.65558e-11
1.65572e-11
1.65556e-11
1.65566e-11
1.65554e-11
1.65563e-11
1.65556e-11
1.65561e-11
1.65556e-11
1.65559e-11
1.65556e-11
1.65558e-11
1.65557e-11
1.65557e-11
1.65558e-11
1.65557e-11
1.65559e-11
1.65556e-11
1.65561e-11
1.65556e-11
1.65563e-11
1.65555e-11
1.65566e-11
1.65556e-11
1.65572e-11
1.65558e-11
1.65584e-11
1.65564e-11
1.65604e-11
1.65578e-11
1.65644e-11
1.65605e-11
1.65677e-11
1.65551e-11
1.65381e-11
1.64751e-11
1.63503e-11
1.62354e-11
1.51602e-11
1.52706e-11
1.53873e-11
1.54464e-11
1.54628e-11
1.54747e-11
1.5468e-11
1.54715e-11
1.54653e-11
1.54676e-11
1.54639e-11
1.54657e-11
1.54633e-11
1.54645e-11
1.5463e-11
1.54639e-11
1.54628e-11
1.54636e-11
1.5463e-11
1.54634e-11
1.5463e-11
1.54633e-11
1.5463e-11
1.54632e-11
1.54631e-11
1.54631e-11
1.54632e-11
1.5463e-11
1.54633e-11
1.5463e-11
1.54634e-11
1.5463e-11
1.54636e-11
1.54629e-11
1.54639e-11
1.5463e-11
1.54645e-11
1.54633e-11
1.54656e-11
1.54639e-11
1.54676e-11
1.54653e-11
1.54715e-11
1.5468e-11
1.54747e-11
1.54628e-11
1.54464e-11
1.53873e-11
1.52706e-11
1.51602e-11
1.4189e-11
1.42948e-11
1.44039e-11
1.44595e-11
1.44753e-11
1.44865e-11
1.44802e-11
1.44833e-11
1.44775e-11
1.44796e-11
1.44761e-11
1.44777e-11
1.44754e-11
1.44766e-11
1.44751e-11
1.4476e-11
1.4475e-11
1.44757e-11
1.44751e-11
1.44755e-11
1.44751e-11
1.44754e-11
1.44751e-11
1.44753e-11
1.44752e-11
1.44752e-11
1.44753e-11
1.44751e-11
1.44754e-11
1.44751e-11
1.44755e-11
1.44751e-11
1.44757e-11
1.4475e-11
1.4476e-11
1.44751e-11
1.44766e-11
1.44754e-11
1.44777e-11
1.44761e-11
1.44796e-11
1.44775e-11
1.44833e-11
1.44802e-11
1.44864e-11
1.44753e-11
1.44595e-11
1.44039e-11
1.42948e-11
1.4189e-11
1.3309e-11
1.34103e-11
1.35124e-11
1.35646e-11
1.35797e-11
1.35902e-11
1.35844e-11
1.35872e-11
1.35817e-11
1.35836e-11
1.35803e-11
1.35817e-11
1.35796e-11
1.35806e-11
1.35792e-11
1.358e-11
1.35791e-11
1.35798e-11
1.35792e-11
1.35796e-11
1.35792e-11
1.35794e-11
1.35792e-11
1.35793e-11
1.35793e-11
1.35793e-11
1.35793e-11
1.35792e-11
1.35794e-11
1.35792e-11
1.35796e-11
1.35792e-11
1.35798e-11
1.35791e-11
1.358e-11
1.35792e-11
1.35806e-11
1.35796e-11
1.35817e-11
1.35803e-11
1.35836e-11
1.35817e-11
1.35872e-11
1.35844e-11
1.35902e-11
1.35797e-11
1.35646e-11
1.35123e-11
1.34102e-11
1.3309e-11
1.25094e-11
1.26061e-11
1.27017e-11
1.27509e-11
1.27652e-11
1.27751e-11
1.27696e-11
1.27721e-11
1.2767e-11
1.27686e-11
1.27655e-11
1.27668e-11
1.27648e-11
1.27657e-11
1.27645e-11
1.27652e-11
1.27643e-11
1.27649e-11
1.27644e-11
1.27648e-11
1.27644e-11
1.27646e-11
1.27644e-11
1.27645e-11
1.27645e-11
1.27645e-11
1.27645e-11
1.27644e-11
1.27646e-11
1.27644e-11
1.27647e-11
1.27644e-11
1.27649e-11
1.27643e-11
1.27652e-11
1.27645e-11
1.27657e-11
1.27648e-11
1.27668e-11
1.27655e-11
1.27686e-11
1.2767e-11
1.27721e-11
1.27696e-11
1.27751e-11
1.27652e-11
1.27508e-11
1.27017e-11
1.2606e-11
1.25094e-11
1.1781e-11
1.1873e-11
1.19627e-11
1.20089e-11
1.20225e-11
1.20318e-11
1.20267e-11
1.20289e-11
1.20241e-11
1.20255e-11
1.20226e-11
1.20237e-11
1.20218e-11
1.20226e-11
1.20215e-11
1.20221e-11
1.20213e-11
1.20219e-11
1.20214e-11
1.20217e-11
1.20214e-11
1.20216e-11
1.20214e-11
1.20215e-11
1.20214e-11
1.20214e-11
1.20215e-11
1.20214e-11
1.20216e-11
1.20214e-11
1.20217e-11
1.20214e-11
1.20219e-11
1.20213e-11
1.20221e-11
1.20215e-11
1.20226e-11
1.20218e-11
1.20237e-11
1.20226e-11
1.20255e-11
1.20241e-11
1.20289e-11
1.20267e-11
1.20318e-11
1.20225e-11
1.20089e-11
1.19626e-11
1.18729e-11
1.1781e-11
1.11157e-11
1.1203e-11
1.12872e-11
1.13306e-11
1.13436e-11
1.13523e-11
1.13475e-11
1.13495e-11
1.13449e-11
1.13461e-11
1.13434e-11
1.13444e-11
1.13426e-11
1.13433e-11
1.13422e-11
1.13428e-11
1.13421e-11
1.13426e-11
1.13421e-11
1.13424e-11
1.13421e-11
1.13423e-11
1.13421e-11
1.13422e-11
1.13422e-11
1.13422e-11
1.13422e-11
1.13421e-11
1.13423e-11
1.13421e-11
1.13424e-11
1.13421e-11
1.13426e-11
1.13421e-11
1.13428e-11
1.13422e-11
1.13433e-11
1.13426e-11
1.13443e-11
1.13434e-11
1.13461e-11
1.13449e-11
1.13495e-11
1.13475e-11
1.13523e-11
1.13436e-11
1.13306e-11
1.12872e-11
1.1203e-11
1.11157e-11
1.05066e-11
1.05891e-11
1.06684e-11
1.07092e-11
1.07215e-11
1.07297e-11
1.07251e-11
1.07268e-11
1.07226e-11
1.07236e-11
1.0721e-11
1.07218e-11
1.07202e-11
1.07209e-11
1.07198e-11
1.07204e-11
1.07197e-11
1.07201e-11
1.07197e-11
1.072e-11
1.07197e-11
1.07199e-11
1.07197e-11
1.07198e-11
1.07197e-11
1.07197e-11
1.07198e-11
1.07197e-11
1.07199e-11
1.07197e-11
1.072e-11
1.07197e-11
1.07201e-11
1.07197e-11
1.07204e-11
1.07198e-11
1.07209e-11
1.07202e-11
1.07218e-11
1.0721e-11
1.07236e-11
1.07226e-11
1.07268e-11
1.07251e-11
1.07297e-11
1.07215e-11
1.07092e-11
1.06684e-11
1.05891e-11
1.05066e-11
9.9475e-12
1.00257e-11
1.01001e-11
1.01385e-11
1.01501e-11
1.01578e-11
1.01535e-11
1.0155e-11
1.0151e-11
1.01518e-11
1.01494e-11
1.01501e-11
1.01486e-11
1.01491e-11
1.01482e-11
1.01487e-11
1.0148e-11
1.01484e-11
1.0148e-11
1.01483e-11
1.0148e-11
1.01482e-11
1.0148e-11
1.01481e-11
1.0148e-11
1.0148e-11
1.01481e-11
1.0148e-11
1.01482e-11
1.0148e-11
1.01483e-11
1.0148e-11
1.01484e-11
1.0148e-11
1.01487e-11
1.01482e-11
1.01492e-11
1.01486e-11
1.01501e-11
1.01494e-11
1.01518e-11
1.0151e-11
1.0155e-11
1.01535e-11
1.01578e-11
1.01501e-11
1.01385e-11
1.01001e-11
1.00257e-11
9.9475e-12
)
;

boundaryField
{
    fuel
    {
        type            fixedValue;
        value           uniform 0;
    }
    wall
    {
        type            zeroGradient;
    }
    outlet
    {
        type            zeroGradient;
    }
    frontAndBack
    {
        type            empty;
    }
    procBoundary1to0
    {
        type            processor;
        value           nonuniform List<scalar> 
50
(
9.43315e-12
9.50729e-12
9.57722e-12
9.61327e-12
9.62424e-12
9.6314e-12
9.62733e-12
9.62862e-12
9.62481e-12
9.62553e-12
9.62321e-12
9.62384e-12
9.62238e-12
9.6229e-12
9.62197e-12
9.62243e-12
9.62179e-12
9.6222e-12
9.6218e-12
9.62206e-12
9.62179e-12
9.62195e-12
9.62179e-12
9.62187e-12
9.62183e-12
9.62183e-12
9.62187e-12
9.62179e-12
9.62195e-12
9.62179e-12
9.62205e-12
9.62179e-12
9.6222e-12
9.6218e-12
9.62243e-12
9.62198e-12
9.6229e-12
9.62238e-12
9.62384e-12
9.62322e-12
9.62553e-12
9.62481e-12
9.62862e-12
9.62733e-12
9.63139e-12
9.62424e-12
9.61327e-12
9.57721e-12
9.50729e-12
9.43315e-12
)
;
    }
}


// ************************************************************************* //
