/*--------------------------------*- C++ -*----------------------------------*\
| =========                 |                                                 |
| \\      /  F ield         | OpenFOAM: The Open Source CFD Toolbox           |
|  \\    /   O peration     | Version:  dev                                   |
|   \\  /    A nd           | Web:      www.OpenFOAM.org                      |
|    \\/     M anipulation  |                                                 |
\*---------------------------------------------------------------------------*/
FoamFile
{
    version     2.0;
    format      ascii;
    class       volScalarField;
    location    "0.07";
    object      A2R5-;
}
// * * * * * * * * * * * * * * * * * * * * * * * * * * * * * * * * * * * * * //

dimensions      [0 0 0 0 0 0 0];

internalField   nonuniform List<scalar> 
2000
(
1.70827e-09
1.70521e-09
1.70369e-09
1.70249e-09
1.70232e-09
1.70195e-09
1.70203e-09
1.70187e-09
1.70197e-09
1.70188e-09
1.70195e-09
1.7019e-09
1.70195e-09
1.70191e-09
1.70194e-09
1.70192e-09
1.70194e-09
1.70193e-09
1.70194e-09
1.70193e-09
1.70194e-09
1.70193e-09
1.70194e-09
1.70194e-09
1.70194e-09
1.70194e-09
1.70194e-09
1.70194e-09
1.70193e-09
1.70194e-09
1.70193e-09
1.70194e-09
1.70193e-09
1.70194e-09
1.70192e-09
1.70194e-09
1.70191e-09
1.70195e-09
1.7019e-09
1.70195e-09
1.70188e-09
1.70197e-09
1.70187e-09
1.70203e-09
1.70195e-09
1.70232e-09
1.70249e-09
1.70369e-09
1.70521e-09
1.70827e-09
4.13095e-09
4.12644e-09
4.12457e-09
4.12248e-09
4.12223e-09
4.12148e-09
4.12163e-09
4.12131e-09
4.12149e-09
4.12132e-09
4.12146e-09
4.12135e-09
4.12145e-09
4.12138e-09
4.12144e-09
4.12139e-09
4.12144e-09
4.12141e-09
4.12144e-09
4.12142e-09
4.12144e-09
4.12142e-09
4.12144e-09
4.12143e-09
4.12143e-09
4.12143e-09
4.12143e-09
4.12144e-09
4.12142e-09
4.12144e-09
4.12142e-09
4.12144e-09
4.12141e-09
4.12144e-09
4.12139e-09
4.12144e-09
4.12138e-09
4.12145e-09
4.12135e-09
4.12146e-09
4.12132e-09
4.12149e-09
4.12132e-09
4.12163e-09
4.12149e-09
4.12222e-09
4.12249e-09
4.12457e-09
4.12644e-09
4.13096e-09
8.43721e-09
8.42847e-09
8.42402e-09
8.41961e-09
8.41873e-09
8.41733e-09
8.41747e-09
8.41693e-09
8.4172e-09
8.41692e-09
8.41715e-09
8.41697e-09
8.41713e-09
8.41703e-09
8.41713e-09
8.41706e-09
8.41714e-09
8.41708e-09
8.41713e-09
8.4171e-09
8.41713e-09
8.41711e-09
8.41713e-09
8.41712e-09
8.41713e-09
8.41713e-09
8.41712e-09
8.41713e-09
8.41711e-09
8.41713e-09
8.4171e-09
8.41713e-09
8.41708e-09
8.41714e-09
8.41706e-09
8.41713e-09
8.41703e-09
8.41713e-09
8.41697e-09
8.41714e-09
8.41692e-09
8.4172e-09
8.41693e-09
8.41747e-09
8.41733e-09
8.41873e-09
8.41961e-09
8.42402e-09
8.42847e-09
8.43721e-09
1.32928e-08
1.32797e-08
1.32722e-08
1.3265e-08
1.32631e-08
1.3261e-08
1.3261e-08
1.32603e-08
1.32606e-08
1.32603e-08
1.32605e-08
1.32603e-08
1.32605e-08
1.32604e-08
1.32605e-08
1.32604e-08
1.32605e-08
1.32605e-08
1.32605e-08
1.32605e-08
1.32605e-08
1.32605e-08
1.32605e-08
1.32605e-08
1.32605e-08
1.32605e-08
1.32605e-08
1.32605e-08
1.32605e-08
1.32605e-08
1.32605e-08
1.32605e-08
1.32605e-08
1.32605e-08
1.32604e-08
1.32605e-08
1.32604e-08
1.32605e-08
1.32603e-08
1.32605e-08
1.32603e-08
1.32606e-08
1.32603e-08
1.3261e-08
1.3261e-08
1.32631e-08
1.3265e-08
1.32722e-08
1.32797e-08
1.32928e-08
1.75082e-08
1.74914e-08
1.74809e-08
1.74711e-08
1.74678e-08
1.74653e-08
1.74649e-08
1.74642e-08
1.74643e-08
1.74641e-08
1.74643e-08
1.74641e-08
1.74643e-08
1.74642e-08
1.74643e-08
1.74642e-08
1.74643e-08
1.74643e-08
1.74643e-08
1.74643e-08
1.74643e-08
1.74643e-08
1.74643e-08
1.74643e-08
1.74643e-08
1.74643e-08
1.74643e-08
1.74643e-08
1.74643e-08
1.74643e-08
1.74643e-08
1.74643e-08
1.74643e-08
1.74643e-08
1.74642e-08
1.74643e-08
1.74642e-08
1.74643e-08
1.74641e-08
1.74643e-08
1.74641e-08
1.74643e-08
1.74642e-08
1.74649e-08
1.74653e-08
1.74678e-08
1.74711e-08
1.74809e-08
1.74913e-08
1.75082e-08
2.05456e-08
2.05269e-08
2.05156e-08
2.05041e-08
2.04995e-08
2.04968e-08
2.0496e-08
2.04954e-08
2.04953e-08
2.04952e-08
2.04953e-08
2.04952e-08
2.04953e-08
2.04953e-08
2.04954e-08
2.04954e-08
2.04954e-08
2.04954e-08
2.04954e-08
2.04954e-08
2.04954e-08
2.04954e-08
2.04954e-08
2.04954e-08
2.04954e-08
2.04954e-08
2.04954e-08
2.04954e-08
2.04954e-08
2.04954e-08
2.04954e-08
2.04954e-08
2.04954e-08
2.04954e-08
2.04954e-08
2.04954e-08
2.04953e-08
2.04953e-08
2.04952e-08
2.04953e-08
2.04952e-08
2.04953e-08
2.04954e-08
2.0496e-08
2.04968e-08
2.04995e-08
2.05041e-08
2.05156e-08
2.05269e-08
2.05456e-08
2.24543e-08
2.24362e-08
2.24267e-08
2.24149e-08
2.24095e-08
2.24068e-08
2.24056e-08
2.24052e-08
2.24048e-08
2.24049e-08
2.24048e-08
2.24049e-08
2.24049e-08
2.24049e-08
2.24049e-08
2.2405e-08
2.2405e-08
2.2405e-08
2.2405e-08
2.2405e-08
2.2405e-08
2.2405e-08
2.2405e-08
2.2405e-08
2.2405e-08
2.2405e-08
2.2405e-08
2.2405e-08
2.2405e-08
2.2405e-08
2.2405e-08
2.2405e-08
2.2405e-08
2.2405e-08
2.2405e-08
2.24049e-08
2.24049e-08
2.24049e-08
2.24049e-08
2.24048e-08
2.24049e-08
2.24048e-08
2.24052e-08
2.24056e-08
2.24069e-08
2.24095e-08
2.24149e-08
2.24267e-08
2.24362e-08
2.24543e-08
2.34838e-08
2.34684e-08
2.3463e-08
2.34523e-08
2.34465e-08
2.34441e-08
2.34424e-08
2.34423e-08
2.34416e-08
2.34419e-08
2.34416e-08
2.34418e-08
2.34417e-08
2.34418e-08
2.34418e-08
2.34419e-08
2.34418e-08
2.34419e-08
2.34418e-08
2.34419e-08
2.34419e-08
2.34419e-08
2.34419e-08
2.34419e-08
2.34419e-08
2.34419e-08
2.34419e-08
2.34419e-08
2.34419e-08
2.34419e-08
2.34419e-08
2.34418e-08
2.34419e-08
2.34418e-08
2.34419e-08
2.34418e-08
2.34418e-08
2.34417e-08
2.34418e-08
2.34416e-08
2.34419e-08
2.34416e-08
2.34423e-08
2.34424e-08
2.34441e-08
2.34465e-08
2.34523e-08
2.3463e-08
2.34684e-08
2.34838e-08
2.38776e-08
2.38665e-08
2.38667e-08
2.3858e-08
2.38521e-08
2.38503e-08
2.38481e-08
2.38483e-08
2.38473e-08
2.38478e-08
2.38473e-08
2.38477e-08
2.38474e-08
2.38476e-08
2.38475e-08
2.38477e-08
2.38475e-08
2.38477e-08
2.38476e-08
2.38476e-08
2.38476e-08
2.38476e-08
2.38476e-08
2.38476e-08
2.38476e-08
2.38476e-08
2.38476e-08
2.38476e-08
2.38476e-08
2.38476e-08
2.38476e-08
2.38476e-08
2.38477e-08
2.38475e-08
2.38477e-08
2.38475e-08
2.38476e-08
2.38474e-08
2.38477e-08
2.38473e-08
2.38478e-08
2.38473e-08
2.38483e-08
2.38481e-08
2.38503e-08
2.38521e-08
2.3858e-08
2.38667e-08
2.38665e-08
2.38776e-08
2.38502e-08
2.38443e-08
2.38512e-08
2.38452e-08
2.38396e-08
2.38383e-08
2.38357e-08
2.38362e-08
2.38349e-08
2.38356e-08
2.38349e-08
2.38354e-08
2.3835e-08
2.38354e-08
2.38351e-08
2.38353e-08
2.38352e-08
2.38353e-08
2.38352e-08
2.38353e-08
2.38352e-08
2.38353e-08
2.38353e-08
2.38353e-08
2.38353e-08
2.38353e-08
2.38353e-08
2.38353e-08
2.38353e-08
2.38352e-08
2.38353e-08
2.38352e-08
2.38353e-08
2.38352e-08
2.38353e-08
2.38351e-08
2.38354e-08
2.3835e-08
2.38354e-08
2.38349e-08
2.38356e-08
2.38349e-08
2.38362e-08
2.38357e-08
2.38383e-08
2.38396e-08
2.38452e-08
2.38512e-08
2.38443e-08
2.38502e-08
2.35413e-08
2.35412e-08
2.35548e-08
2.35519e-08
2.35469e-08
2.35462e-08
2.35433e-08
2.35441e-08
2.35425e-08
2.35433e-08
2.35425e-08
2.35431e-08
2.35426e-08
2.3543e-08
2.35427e-08
2.3543e-08
2.35428e-08
2.3543e-08
2.35428e-08
2.3543e-08
2.35429e-08
2.35429e-08
2.35429e-08
2.35429e-08
2.35429e-08
2.35429e-08
2.35429e-08
2.35429e-08
2.35429e-08
2.35429e-08
2.3543e-08
2.35428e-08
2.3543e-08
2.35428e-08
2.3543e-08
2.35427e-08
2.3543e-08
2.35426e-08
2.35431e-08
2.35425e-08
2.35434e-08
2.35425e-08
2.35441e-08
2.35434e-08
2.35462e-08
2.35469e-08
2.35519e-08
2.35548e-08
2.35412e-08
2.35413e-08
2.30341e-08
2.30396e-08
2.30597e-08
2.306e-08
2.30557e-08
2.30556e-08
2.30525e-08
2.30535e-08
2.30517e-08
2.30527e-08
2.30517e-08
2.30524e-08
2.30518e-08
2.30523e-08
2.30519e-08
2.30522e-08
2.30519e-08
2.30522e-08
2.3052e-08
2.30521e-08
2.3052e-08
2.30521e-08
2.30521e-08
2.30521e-08
2.30521e-08
2.30521e-08
2.30521e-08
2.30521e-08
2.30521e-08
2.3052e-08
2.30521e-08
2.3052e-08
2.30522e-08
2.30519e-08
2.30522e-08
2.30519e-08
2.30523e-08
2.30518e-08
2.30524e-08
2.30517e-08
2.30527e-08
2.30517e-08
2.30535e-08
2.30526e-08
2.30556e-08
2.30557e-08
2.306e-08
2.30597e-08
2.30396e-08
2.30341e-08
2.24466e-08
2.24578e-08
2.2484e-08
2.24875e-08
2.24839e-08
2.24845e-08
2.24813e-08
2.24824e-08
2.24804e-08
2.24815e-08
2.24803e-08
2.24812e-08
2.24805e-08
2.2481e-08
2.24805e-08
2.24809e-08
2.24806e-08
2.24809e-08
2.24807e-08
2.24808e-08
2.24807e-08
2.24808e-08
2.24807e-08
2.24808e-08
2.24808e-08
2.24808e-08
2.24808e-08
2.24807e-08
2.24808e-08
2.24807e-08
2.24808e-08
2.24807e-08
2.24809e-08
2.24806e-08
2.24809e-08
2.24805e-08
2.2481e-08
2.24805e-08
2.24812e-08
2.24804e-08
2.24815e-08
2.24804e-08
2.24824e-08
2.24813e-08
2.24845e-08
2.24839e-08
2.24875e-08
2.2484e-08
2.24578e-08
2.24466e-08
2.18073e-08
2.18209e-08
2.185e-08
2.18558e-08
2.18536e-08
2.18546e-08
2.18515e-08
2.18526e-08
2.18506e-08
2.18516e-08
2.18505e-08
2.18513e-08
2.18505e-08
2.18511e-08
2.18506e-08
2.1851e-08
2.18507e-08
2.18509e-08
2.18507e-08
2.18509e-08
2.18508e-08
2.18509e-08
2.18508e-08
2.18508e-08
2.18508e-08
2.18508e-08
2.18508e-08
2.18508e-08
2.18509e-08
2.18508e-08
2.18509e-08
2.18507e-08
2.18509e-08
2.18507e-08
2.1851e-08
2.18506e-08
2.18511e-08
2.18506e-08
2.18513e-08
2.18505e-08
2.18516e-08
2.18506e-08
2.18526e-08
2.18515e-08
2.18546e-08
2.18536e-08
2.18558e-08
2.185e-08
2.18209e-08
2.18073e-08
2.1132e-08
2.11501e-08
2.11832e-08
2.11917e-08
2.11905e-08
2.11918e-08
2.11888e-08
2.11899e-08
2.11879e-08
2.11889e-08
2.11877e-08
2.11885e-08
2.11878e-08
2.11883e-08
2.11878e-08
2.11882e-08
2.11878e-08
2.11881e-08
2.11879e-08
2.11881e-08
2.1188e-08
2.11881e-08
2.1188e-08
2.1188e-08
2.1188e-08
2.1188e-08
2.1188e-08
2.1188e-08
2.11881e-08
2.1188e-08
2.11881e-08
2.11879e-08
2.11881e-08
2.11878e-08
2.11882e-08
2.11878e-08
2.11883e-08
2.11878e-08
2.11885e-08
2.11877e-08
2.11889e-08
2.11879e-08
2.11899e-08
2.11888e-08
2.11918e-08
2.11905e-08
2.11917e-08
2.11832e-08
2.11501e-08
2.1132e-08
2.04902e-08
2.05127e-08
2.05496e-08
2.05606e-08
2.05604e-08
2.05622e-08
2.05591e-08
2.05603e-08
2.05582e-08
2.05593e-08
2.0558e-08
2.05588e-08
2.0558e-08
2.05586e-08
2.05581e-08
2.05585e-08
2.05581e-08
2.05584e-08
2.05582e-08
2.05583e-08
2.05582e-08
2.05583e-08
2.05582e-08
2.05583e-08
2.05582e-08
2.05582e-08
2.05583e-08
2.05582e-08
2.05583e-08
2.05582e-08
2.05583e-08
2.05582e-08
2.05584e-08
2.05581e-08
2.05585e-08
2.05581e-08
2.05586e-08
2.0558e-08
2.05588e-08
2.0558e-08
2.05593e-08
2.05582e-08
2.05603e-08
2.05591e-08
2.05622e-08
2.05604e-08
2.05606e-08
2.05496e-08
2.05127e-08
2.04902e-08
1.98475e-08
1.98753e-08
1.99166e-08
1.99307e-08
1.99318e-08
1.99341e-08
1.99311e-08
1.99324e-08
1.99301e-08
1.99312e-08
1.99299e-08
1.99307e-08
1.99299e-08
1.99304e-08
1.99299e-08
1.99303e-08
1.99299e-08
1.99302e-08
1.993e-08
1.99302e-08
1.993e-08
1.99301e-08
1.993e-08
1.99301e-08
1.99301e-08
1.99301e-08
1.99301e-08
1.993e-08
1.99301e-08
1.993e-08
1.99302e-08
1.993e-08
1.99302e-08
1.99299e-08
1.99303e-08
1.99299e-08
1.99304e-08
1.99299e-08
1.99307e-08
1.99299e-08
1.99312e-08
1.99301e-08
1.99324e-08
1.99311e-08
1.99341e-08
1.99318e-08
1.99307e-08
1.99166e-08
1.98753e-08
1.98475e-08
1.92543e-08
1.92859e-08
1.93299e-08
1.93461e-08
1.93481e-08
1.93508e-08
1.93478e-08
1.93491e-08
1.93468e-08
1.93479e-08
1.93465e-08
1.93474e-08
1.93465e-08
1.9347e-08
1.93465e-08
1.93469e-08
1.93465e-08
1.93468e-08
1.93466e-08
1.93468e-08
1.93466e-08
1.93467e-08
1.93466e-08
1.93467e-08
1.93467e-08
1.93467e-08
1.93467e-08
1.93466e-08
1.93467e-08
1.93466e-08
1.93468e-08
1.93466e-08
1.93468e-08
1.93465e-08
1.93469e-08
1.93465e-08
1.9347e-08
1.93465e-08
1.93474e-08
1.93465e-08
1.93479e-08
1.93468e-08
1.93491e-08
1.93478e-08
1.93508e-08
1.93481e-08
1.93461e-08
1.93299e-08
1.92859e-08
1.92543e-08
1.86702e-08
1.87069e-08
1.87548e-08
1.87737e-08
1.87765e-08
1.87798e-08
1.87767e-08
1.87781e-08
1.87756e-08
1.87768e-08
1.87753e-08
1.87762e-08
1.87753e-08
1.87759e-08
1.87753e-08
1.87757e-08
1.87753e-08
1.87756e-08
1.87753e-08
1.87755e-08
1.87754e-08
1.87755e-08
1.87754e-08
1.87754e-08
1.87754e-08
1.87754e-08
1.87754e-08
1.87754e-08
1.87755e-08
1.87754e-08
1.87755e-08
1.87753e-08
1.87756e-08
1.87753e-08
1.87757e-08
1.87753e-08
1.87759e-08
1.87753e-08
1.87762e-08
1.87753e-08
1.87768e-08
1.87756e-08
1.87781e-08
1.87767e-08
1.87798e-08
1.87765e-08
1.87737e-08
1.87548e-08
1.87069e-08
1.86702e-08
1.81165e-08
1.81568e-08
1.8206e-08
1.82264e-08
1.823e-08
1.82335e-08
1.82305e-08
1.82319e-08
1.82295e-08
1.82306e-08
1.82291e-08
1.82299e-08
1.8229e-08
1.82296e-08
1.8229e-08
1.82294e-08
1.8229e-08
1.82293e-08
1.8229e-08
1.82292e-08
1.82291e-08
1.82292e-08
1.82291e-08
1.82291e-08
1.82291e-08
1.82291e-08
1.82291e-08
1.82291e-08
1.82292e-08
1.82291e-08
1.82292e-08
1.8229e-08
1.82293e-08
1.8229e-08
1.82294e-08
1.8229e-08
1.82296e-08
1.8229e-08
1.82299e-08
1.82291e-08
1.82306e-08
1.82295e-08
1.82319e-08
1.82305e-08
1.82335e-08
1.823e-08
1.82264e-08
1.8206e-08
1.81568e-08
1.81165e-08
1.76127e-08
1.76565e-08
1.77071e-08
1.7729e-08
1.77334e-08
1.77372e-08
1.77343e-08
1.77357e-08
1.77332e-08
1.77343e-08
1.77328e-08
1.77336e-08
1.77326e-08
1.77332e-08
1.77326e-08
1.7733e-08
1.77326e-08
1.77329e-08
1.77326e-08
1.77328e-08
1.77326e-08
1.77328e-08
1.77327e-08
1.77327e-08
1.77327e-08
1.77327e-08
1.77327e-08
1.77327e-08
1.77328e-08
1.77327e-08
1.77328e-08
1.77326e-08
1.77329e-08
1.77326e-08
1.7733e-08
1.77326e-08
1.77332e-08
1.77326e-08
1.77336e-08
1.77328e-08
1.77343e-08
1.77332e-08
1.77357e-08
1.77343e-08
1.77372e-08
1.77334e-08
1.7729e-08
1.77071e-08
1.76565e-08
1.76127e-08
1.71368e-08
1.71842e-08
1.7236e-08
1.72592e-08
1.72643e-08
1.72683e-08
1.72654e-08
1.72668e-08
1.72643e-08
1.72653e-08
1.72638e-08
1.72646e-08
1.72637e-08
1.72642e-08
1.72636e-08
1.7264e-08
1.72636e-08
1.72639e-08
1.72636e-08
1.72638e-08
1.72637e-08
1.72638e-08
1.72637e-08
1.72637e-08
1.72637e-08
1.72637e-08
1.72637e-08
1.72637e-08
1.72638e-08
1.72637e-08
1.72638e-08
1.72636e-08
1.72639e-08
1.72636e-08
1.7264e-08
1.72636e-08
1.72642e-08
1.72637e-08
1.72646e-08
1.72638e-08
1.72654e-08
1.72643e-08
1.72668e-08
1.72654e-08
1.72683e-08
1.72643e-08
1.72592e-08
1.7236e-08
1.71842e-08
1.71368e-08
1.66867e-08
1.67243e-08
1.67755e-08
1.67994e-08
1.68054e-08
1.68097e-08
1.6807e-08
1.68083e-08
1.68058e-08
1.68067e-08
1.68053e-08
1.6806e-08
1.6805e-08
1.68055e-08
1.68049e-08
1.68053e-08
1.68049e-08
1.68052e-08
1.68049e-08
1.68051e-08
1.68049e-08
1.6805e-08
1.68049e-08
1.6805e-08
1.6805e-08
1.6805e-08
1.6805e-08
1.68049e-08
1.6805e-08
1.68049e-08
1.68051e-08
1.68049e-08
1.68052e-08
1.68049e-08
1.68053e-08
1.68049e-08
1.68055e-08
1.6805e-08
1.6806e-08
1.68053e-08
1.68067e-08
1.68058e-08
1.68083e-08
1.6807e-08
1.68097e-08
1.68054e-08
1.67994e-08
1.67755e-08
1.67243e-08
1.66867e-08
1.62599e-08
1.63001e-08
1.63519e-08
1.63768e-08
1.63834e-08
1.63878e-08
1.63852e-08
1.63864e-08
1.6384e-08
1.63849e-08
1.63834e-08
1.6384e-08
1.63831e-08
1.63836e-08
1.6383e-08
1.63833e-08
1.63829e-08
1.63832e-08
1.63829e-08
1.63831e-08
1.6383e-08
1.63831e-08
1.6383e-08
1.6383e-08
1.6383e-08
1.6383e-08
1.6383e-08
1.6383e-08
1.63831e-08
1.6383e-08
1.63831e-08
1.63829e-08
1.63832e-08
1.63829e-08
1.63833e-08
1.6383e-08
1.63836e-08
1.63831e-08
1.6384e-08
1.63834e-08
1.63849e-08
1.6384e-08
1.63864e-08
1.63852e-08
1.63878e-08
1.63834e-08
1.63768e-08
1.63519e-08
1.63001e-08
1.62599e-08
1.58383e-08
1.58812e-08
1.59343e-08
1.59606e-08
1.59679e-08
1.59726e-08
1.597e-08
1.59712e-08
1.59687e-08
1.59696e-08
1.5968e-08
1.59687e-08
1.59677e-08
1.59682e-08
1.59676e-08
1.59679e-08
1.59675e-08
1.59678e-08
1.59675e-08
1.59677e-08
1.59676e-08
1.59677e-08
1.59676e-08
1.59676e-08
1.59676e-08
1.59676e-08
1.59676e-08
1.59676e-08
1.59677e-08
1.59676e-08
1.59677e-08
1.59675e-08
1.59678e-08
1.59675e-08
1.59679e-08
1.59676e-08
1.59682e-08
1.59677e-08
1.59687e-08
1.5968e-08
1.59696e-08
1.59687e-08
1.59712e-08
1.597e-08
1.59726e-08
1.59679e-08
1.59606e-08
1.59343e-08
1.58812e-08
1.58383e-08
1.54355e-08
1.54803e-08
1.55335e-08
1.55603e-08
1.5568e-08
1.55729e-08
1.55704e-08
1.55716e-08
1.55691e-08
1.55698e-08
1.55683e-08
1.55689e-08
1.5568e-08
1.55684e-08
1.55678e-08
1.55681e-08
1.55677e-08
1.5568e-08
1.55677e-08
1.55679e-08
1.55677e-08
1.55678e-08
1.55677e-08
1.55678e-08
1.55678e-08
1.55678e-08
1.55678e-08
1.55677e-08
1.55679e-08
1.55677e-08
1.55679e-08
1.55677e-08
1.5568e-08
1.55677e-08
1.55681e-08
1.55678e-08
1.55684e-08
1.5568e-08
1.55689e-08
1.55683e-08
1.55698e-08
1.55691e-08
1.55716e-08
1.55704e-08
1.55729e-08
1.5568e-08
1.55603e-08
1.55335e-08
1.54803e-08
1.54355e-08
1.50492e-08
1.50958e-08
1.5149e-08
1.51763e-08
1.51844e-08
1.51893e-08
1.51869e-08
1.5188e-08
1.51855e-08
1.51862e-08
1.51847e-08
1.51853e-08
1.51843e-08
1.51847e-08
1.51841e-08
1.51845e-08
1.5184e-08
1.51843e-08
1.51841e-08
1.51842e-08
1.51841e-08
1.51842e-08
1.51841e-08
1.51841e-08
1.51841e-08
1.51841e-08
1.51841e-08
1.51841e-08
1.51842e-08
1.51841e-08
1.51842e-08
1.51841e-08
1.51843e-08
1.5184e-08
1.51845e-08
1.51841e-08
1.51847e-08
1.51843e-08
1.51853e-08
1.51847e-08
1.51863e-08
1.51855e-08
1.5188e-08
1.51869e-08
1.51893e-08
1.51844e-08
1.51762e-08
1.5149e-08
1.50958e-08
1.50492e-08
1.46779e-08
1.4726e-08
1.47791e-08
1.48067e-08
1.48151e-08
1.48202e-08
1.48178e-08
1.48189e-08
1.48164e-08
1.4817e-08
1.48155e-08
1.4816e-08
1.48151e-08
1.48155e-08
1.48149e-08
1.48152e-08
1.48148e-08
1.4815e-08
1.48148e-08
1.48149e-08
1.48148e-08
1.48149e-08
1.48148e-08
1.48148e-08
1.48148e-08
1.48148e-08
1.48148e-08
1.48148e-08
1.48149e-08
1.48148e-08
1.48149e-08
1.48148e-08
1.4815e-08
1.48148e-08
1.48152e-08
1.48149e-08
1.48155e-08
1.48151e-08
1.4816e-08
1.48155e-08
1.4817e-08
1.48164e-08
1.48189e-08
1.48178e-08
1.48202e-08
1.48151e-08
1.48067e-08
1.47791e-08
1.4726e-08
1.46779e-08
1.43198e-08
1.43693e-08
1.44223e-08
1.445e-08
1.44588e-08
1.44639e-08
1.44616e-08
1.44626e-08
1.44601e-08
1.44607e-08
1.44592e-08
1.44597e-08
1.44587e-08
1.44591e-08
1.44585e-08
1.44588e-08
1.44584e-08
1.44586e-08
1.44584e-08
1.44585e-08
1.44584e-08
1.44585e-08
1.44584e-08
1.44584e-08
1.44584e-08
1.44584e-08
1.44584e-08
1.44584e-08
1.44585e-08
1.44584e-08
1.44585e-08
1.44584e-08
1.44586e-08
1.44584e-08
1.44588e-08
1.44585e-08
1.44591e-08
1.44587e-08
1.44597e-08
1.44592e-08
1.44607e-08
1.44601e-08
1.44626e-08
1.44616e-08
1.44639e-08
1.44588e-08
1.445e-08
1.44223e-08
1.43693e-08
1.43198e-08
1.39739e-08
1.40244e-08
1.40773e-08
1.41051e-08
1.41141e-08
1.41193e-08
1.4117e-08
1.41179e-08
1.41154e-08
1.4116e-08
1.41144e-08
1.41149e-08
1.41139e-08
1.41143e-08
1.41137e-08
1.4114e-08
1.41135e-08
1.41138e-08
1.41135e-08
1.41137e-08
1.41135e-08
1.41136e-08
1.41135e-08
1.41136e-08
1.41136e-08
1.41136e-08
1.41136e-08
1.41135e-08
1.41136e-08
1.41135e-08
1.41137e-08
1.41135e-08
1.41138e-08
1.41135e-08
1.4114e-08
1.41137e-08
1.41143e-08
1.41139e-08
1.41149e-08
1.41144e-08
1.4116e-08
1.41154e-08
1.41179e-08
1.4117e-08
1.41193e-08
1.41141e-08
1.41051e-08
1.40773e-08
1.40244e-08
1.39739e-08
1.36388e-08
1.36902e-08
1.3743e-08
1.37707e-08
1.37799e-08
1.37851e-08
1.37829e-08
1.37838e-08
1.37813e-08
1.37817e-08
1.37802e-08
1.37806e-08
1.37797e-08
1.378e-08
1.37794e-08
1.37797e-08
1.37792e-08
1.37795e-08
1.37792e-08
1.37794e-08
1.37792e-08
1.37793e-08
1.37792e-08
1.37793e-08
1.37792e-08
1.37792e-08
1.37793e-08
1.37792e-08
1.37793e-08
1.37792e-08
1.37794e-08
1.37792e-08
1.37795e-08
1.37792e-08
1.37797e-08
1.37794e-08
1.378e-08
1.37797e-08
1.37806e-08
1.37802e-08
1.37817e-08
1.37813e-08
1.37838e-08
1.37829e-08
1.37851e-08
1.37799e-08
1.37707e-08
1.3743e-08
1.36902e-08
1.36388e-08
1.33138e-08
1.33659e-08
1.34184e-08
1.34461e-08
1.34554e-08
1.34606e-08
1.34584e-08
1.34592e-08
1.34567e-08
1.34571e-08
1.34556e-08
1.34559e-08
1.3455e-08
1.34553e-08
1.34547e-08
1.34549e-08
1.34545e-08
1.34548e-08
1.34545e-08
1.34547e-08
1.34545e-08
1.34546e-08
1.34545e-08
1.34545e-08
1.34545e-08
1.34545e-08
1.34545e-08
1.34545e-08
1.34546e-08
1.34545e-08
1.34547e-08
1.34545e-08
1.34548e-08
1.34545e-08
1.34549e-08
1.34547e-08
1.34553e-08
1.3455e-08
1.34559e-08
1.34556e-08
1.34571e-08
1.34567e-08
1.34592e-08
1.34584e-08
1.34606e-08
1.34553e-08
1.34461e-08
1.34184e-08
1.33659e-08
1.33138e-08
1.2998e-08
1.30506e-08
1.31028e-08
1.31303e-08
1.31397e-08
1.31449e-08
1.31427e-08
1.31434e-08
1.31409e-08
1.31413e-08
1.31398e-08
1.31401e-08
1.31391e-08
1.31394e-08
1.31388e-08
1.31391e-08
1.31386e-08
1.31389e-08
1.31386e-08
1.31388e-08
1.31386e-08
1.31387e-08
1.31386e-08
1.31387e-08
1.31386e-08
1.31386e-08
1.31387e-08
1.31386e-08
1.31387e-08
1.31386e-08
1.31388e-08
1.31386e-08
1.31389e-08
1.31386e-08
1.31391e-08
1.31388e-08
1.31394e-08
1.31391e-08
1.31401e-08
1.31398e-08
1.31413e-08
1.31409e-08
1.31434e-08
1.31427e-08
1.31449e-08
1.31396e-08
1.31303e-08
1.31028e-08
1.30506e-08
1.2998e-08
1.26908e-08
1.27438e-08
1.27955e-08
1.28228e-08
1.28322e-08
1.28374e-08
1.28352e-08
1.28359e-08
1.28334e-08
1.28337e-08
1.28321e-08
1.28324e-08
1.28315e-08
1.28317e-08
1.28311e-08
1.28314e-08
1.2831e-08
1.28312e-08
1.28309e-08
1.28311e-08
1.28309e-08
1.2831e-08
1.28309e-08
1.28309e-08
1.28309e-08
1.28309e-08
1.28309e-08
1.28309e-08
1.2831e-08
1.28309e-08
1.28311e-08
1.28309e-08
1.28312e-08
1.2831e-08
1.28314e-08
1.28311e-08
1.28317e-08
1.28315e-08
1.28324e-08
1.28321e-08
1.28337e-08
1.28334e-08
1.28359e-08
1.28352e-08
1.28374e-08
1.28322e-08
1.28228e-08
1.27955e-08
1.27438e-08
1.26908e-08
1.23916e-08
1.24447e-08
1.2496e-08
1.2523e-08
1.25324e-08
1.25376e-08
1.25353e-08
1.2536e-08
1.25335e-08
1.25337e-08
1.25322e-08
1.25324e-08
1.25315e-08
1.25317e-08
1.25311e-08
1.25313e-08
1.25309e-08
1.25311e-08
1.25309e-08
1.2531e-08
1.25309e-08
1.25309e-08
1.25308e-08
1.25309e-08
1.25309e-08
1.25309e-08
1.25309e-08
1.25308e-08
1.25309e-08
1.25309e-08
1.2531e-08
1.25309e-08
1.25311e-08
1.25309e-08
1.25313e-08
1.25311e-08
1.25317e-08
1.25315e-08
1.25324e-08
1.25322e-08
1.25337e-08
1.25335e-08
1.2536e-08
1.25353e-08
1.25376e-08
1.25324e-08
1.2523e-08
1.2496e-08
1.24447e-08
1.23916e-08
1.20999e-08
1.2153e-08
1.22038e-08
1.22305e-08
1.22398e-08
1.22449e-08
1.22427e-08
1.22433e-08
1.22408e-08
1.22409e-08
1.22394e-08
1.22396e-08
1.22386e-08
1.22389e-08
1.22383e-08
1.22385e-08
1.22381e-08
1.22383e-08
1.2238e-08
1.22382e-08
1.2238e-08
1.22381e-08
1.2238e-08
1.2238e-08
1.2238e-08
1.2238e-08
1.2238e-08
1.2238e-08
1.22381e-08
1.2238e-08
1.22382e-08
1.2238e-08
1.22383e-08
1.22381e-08
1.22385e-08
1.22383e-08
1.22389e-08
1.22386e-08
1.22396e-08
1.22394e-08
1.22409e-08
1.22407e-08
1.22433e-08
1.22427e-08
1.22449e-08
1.22398e-08
1.22305e-08
1.22038e-08
1.2153e-08
1.20999e-08
1.18155e-08
1.18683e-08
1.19185e-08
1.19448e-08
1.1954e-08
1.19591e-08
1.19569e-08
1.19574e-08
1.19549e-08
1.1955e-08
1.19534e-08
1.19536e-08
1.19526e-08
1.19528e-08
1.19522e-08
1.19524e-08
1.1952e-08
1.19523e-08
1.1952e-08
1.19521e-08
1.1952e-08
1.19521e-08
1.1952e-08
1.1952e-08
1.1952e-08
1.1952e-08
1.1952e-08
1.1952e-08
1.19521e-08
1.1952e-08
1.19521e-08
1.1952e-08
1.19523e-08
1.1952e-08
1.19524e-08
1.19522e-08
1.19528e-08
1.19526e-08
1.19536e-08
1.19534e-08
1.1955e-08
1.19549e-08
1.19574e-08
1.19569e-08
1.19591e-08
1.1954e-08
1.19448e-08
1.19185e-08
1.18683e-08
1.18155e-08
1.15379e-08
1.15903e-08
1.16398e-08
1.16657e-08
1.16748e-08
1.16798e-08
1.16776e-08
1.1678e-08
1.16755e-08
1.16755e-08
1.1674e-08
1.16741e-08
1.16732e-08
1.16733e-08
1.16727e-08
1.16729e-08
1.16725e-08
1.16727e-08
1.16725e-08
1.16726e-08
1.16724e-08
1.16725e-08
1.16724e-08
1.16725e-08
1.16724e-08
1.16724e-08
1.16725e-08
1.16724e-08
1.16725e-08
1.16724e-08
1.16726e-08
1.16725e-08
1.16727e-08
1.16725e-08
1.16729e-08
1.16727e-08
1.16733e-08
1.16732e-08
1.16741e-08
1.1674e-08
1.16755e-08
1.16755e-08
1.1678e-08
1.16776e-08
1.16798e-08
1.16748e-08
1.16657e-08
1.16398e-08
1.15903e-08
1.15379e-08
1.12668e-08
1.13185e-08
1.13674e-08
1.13929e-08
1.14018e-08
1.14067e-08
1.14045e-08
1.14048e-08
1.14023e-08
1.14023e-08
1.14007e-08
1.14009e-08
1.13999e-08
1.14e-08
1.13994e-08
1.13996e-08
1.13992e-08
1.13994e-08
1.13992e-08
1.13993e-08
1.13991e-08
1.13992e-08
1.13991e-08
1.13992e-08
1.13991e-08
1.13991e-08
1.13992e-08
1.13991e-08
1.13992e-08
1.13991e-08
1.13993e-08
1.13992e-08
1.13994e-08
1.13992e-08
1.13996e-08
1.13994e-08
1.14e-08
1.13999e-08
1.14009e-08
1.14007e-08
1.14023e-08
1.14023e-08
1.14048e-08
1.14045e-08
1.14067e-08
1.14018e-08
1.13929e-08
1.13674e-08
1.13185e-08
1.12668e-08
1.1002e-08
1.1053e-08
1.11011e-08
1.11261e-08
1.11349e-08
1.11397e-08
1.11374e-08
1.11376e-08
1.11351e-08
1.11351e-08
1.11335e-08
1.11336e-08
1.11326e-08
1.11327e-08
1.11321e-08
1.11323e-08
1.11319e-08
1.11321e-08
1.11318e-08
1.1132e-08
1.11318e-08
1.11319e-08
1.11318e-08
1.11318e-08
1.11318e-08
1.11318e-08
1.11318e-08
1.11318e-08
1.11319e-08
1.11318e-08
1.1132e-08
1.11318e-08
1.11321e-08
1.11319e-08
1.11323e-08
1.11321e-08
1.11327e-08
1.11326e-08
1.11336e-08
1.11335e-08
1.11351e-08
1.11351e-08
1.11376e-08
1.11374e-08
1.11396e-08
1.11349e-08
1.11261e-08
1.11011e-08
1.1053e-08
1.1002e-08
)
;

boundaryField
{
    fuel
    {
        type            fixedValue;
        value           uniform 0;
    }
    wall
    {
        type            zeroGradient;
    }
    outlet
    {
        type            zeroGradient;
    }
    frontAndBack
    {
        type            empty;
    }
    procBoundary1to0
    {
        type            processor;
        value           nonuniform List<scalar> 
50
(
1.07431e-08
1.07935e-08
1.08407e-08
1.08652e-08
1.08737e-08
1.08784e-08
1.0876e-08
1.08762e-08
1.08737e-08
1.08736e-08
1.0872e-08
1.08721e-08
1.08711e-08
1.08712e-08
1.08706e-08
1.08708e-08
1.08704e-08
1.08705e-08
1.08703e-08
1.08704e-08
1.08703e-08
1.08703e-08
1.08702e-08
1.08703e-08
1.08703e-08
1.08703e-08
1.08703e-08
1.08702e-08
1.08703e-08
1.08703e-08
1.08704e-08
1.08703e-08
1.08705e-08
1.08704e-08
1.08708e-08
1.08706e-08
1.08712e-08
1.08711e-08
1.08721e-08
1.0872e-08
1.08736e-08
1.08737e-08
1.08762e-08
1.0876e-08
1.08783e-08
1.08737e-08
1.08652e-08
1.08407e-08
1.07935e-08
1.07431e-08
)
;
    }
}


// ************************************************************************* //
