/*--------------------------------*- C++ -*----------------------------------*\
| =========                 |                                                 |
| \\      /  F ield         | OpenFOAM: The Open Source CFD Toolbox           |
|  \\    /   O peration     | Version:  dev                                   |
|   \\  /    A nd           | Web:      www.OpenFOAM.org                      |
|    \\/     M anipulation  |                                                 |
\*---------------------------------------------------------------------------*/
FoamFile
{
    version     2.0;
    format      ascii;
    class       volScalarField;
    location    "0.07";
    object      C5H4O;
}
// * * * * * * * * * * * * * * * * * * * * * * * * * * * * * * * * * * * * * //

dimensions      [0 0 0 0 0 0 0];

internalField   nonuniform List<scalar> 
25
(
5.61683e-17
4.64061e-17
4.66983e-17
5.7534e-17
8.1702e-17
1.24783e-16
1.96144e-16
3.10606e-16
4.909e-16
7.71244e-16
1.20238e-15
1.85853e-15
2.84673e-15
4.31914e-15
6.48888e-15
9.67285e-15
1.43397e-14
2.1009e-14
3.04381e-14
4.36197e-14
6.18389e-14
8.67433e-14
1.20426e-13
1.65522e-13
2.23726e-13
)
;

boundaryField
{
    wall
    {
        type            zeroGradient;
    }
    fuel
    {
        type            fixedValue;
        value           nonuniform 0();
    }
    outlet
    {
        type            inletOutlet;
        inletValue      nonuniform 0();
        value           nonuniform 0();
    }
    procBoundary1to0
    {
        type            processor;
        value           uniform 7.79377e-17;
    }
    procBoundary1to2
    {
        type            processor;
        value           uniform 3.00739e-13;
    }
}


// ************************************************************************* //
