/*--------------------------------*- C++ -*----------------------------------*\
| =========                 |                                                 |
| \\      /  F ield         | OpenFOAM: The Open Source CFD Toolbox           |
|  \\    /   O peration     | Version:  dev                                   |
|   \\  /    A nd           | Web:      www.OpenFOAM.org                      |
|    \\/     M anipulation  |                                                 |
\*---------------------------------------------------------------------------*/
FoamFile
{
    version     2.0;
    format      ascii;
    class       volScalarField;
    location    "0.07";
    object      CH;
}
// * * * * * * * * * * * * * * * * * * * * * * * * * * * * * * * * * * * * * //

dimensions      [0 0 0 0 0 0 0];

internalField   nonuniform List<scalar> 
2000
(
1.24096e-07
1.2461e-07
1.25164e-07
1.25414e-07
1.25444e-07
1.25499e-07
1.25476e-07
1.25502e-07
1.25481e-07
1.25497e-07
1.25483e-07
1.25494e-07
1.25484e-07
1.25491e-07
1.25485e-07
1.2549e-07
1.25485e-07
1.25489e-07
1.25486e-07
1.25488e-07
1.25487e-07
1.25488e-07
1.25487e-07
1.25487e-07
1.25487e-07
1.25487e-07
1.25487e-07
1.25487e-07
1.25488e-07
1.25487e-07
1.25488e-07
1.25486e-07
1.25489e-07
1.25485e-07
1.2549e-07
1.25485e-07
1.25491e-07
1.25484e-07
1.25494e-07
1.25483e-07
1.25497e-07
1.25481e-07
1.25502e-07
1.25476e-07
1.25499e-07
1.25444e-07
1.25414e-07
1.25164e-07
1.2461e-07
1.24096e-07
6.26074e-07
6.285e-07
6.31093e-07
6.32261e-07
6.3239e-07
6.32653e-07
6.32541e-07
6.32663e-07
6.32562e-07
6.32641e-07
6.32571e-07
6.32626e-07
6.32578e-07
6.32613e-07
6.32583e-07
6.32607e-07
6.32584e-07
6.32604e-07
6.3259e-07
6.326e-07
6.32592e-07
6.32598e-07
6.32592e-07
6.32596e-07
6.32594e-07
6.32594e-07
6.32596e-07
6.32592e-07
6.32598e-07
6.32592e-07
6.326e-07
6.3259e-07
6.32603e-07
6.32584e-07
6.32607e-07
6.32583e-07
6.32613e-07
6.32578e-07
6.32625e-07
6.32571e-07
6.32642e-07
6.32562e-07
6.32663e-07
6.32541e-07
6.32653e-07
6.3239e-07
6.32261e-07
6.31092e-07
6.285e-07
6.26073e-07
1.56269e-06
1.5678e-06
1.57297e-06
1.57532e-06
1.57543e-06
1.57603e-06
1.57572e-06
1.57603e-06
1.57578e-06
1.57598e-06
1.5758e-06
1.57594e-06
1.57582e-06
1.57591e-06
1.57583e-06
1.57589e-06
1.57584e-06
1.57589e-06
1.57585e-06
1.57588e-06
1.57586e-06
1.57587e-06
1.57586e-06
1.57587e-06
1.57586e-06
1.57586e-06
1.57587e-06
1.57586e-06
1.57587e-06
1.57586e-06
1.57588e-06
1.57585e-06
1.57589e-06
1.57584e-06
1.5759e-06
1.57583e-06
1.57591e-06
1.57582e-06
1.57594e-06
1.5758e-06
1.57598e-06
1.57577e-06
1.57603e-06
1.57572e-06
1.57603e-06
1.57543e-06
1.57532e-06
1.57297e-06
1.5678e-06
1.56269e-06
2.18046e-06
2.18756e-06
2.1946e-06
2.19774e-06
2.1977e-06
2.19859e-06
2.19808e-06
2.19856e-06
2.19816e-06
2.19848e-06
2.19821e-06
2.19843e-06
2.19824e-06
2.19838e-06
2.19826e-06
2.19836e-06
2.19827e-06
2.19834e-06
2.19829e-06
2.19833e-06
2.19829e-06
2.19832e-06
2.1983e-06
2.19831e-06
2.19831e-06
2.19831e-06
2.19831e-06
2.1983e-06
2.19832e-06
2.19829e-06
2.19833e-06
2.19829e-06
2.19834e-06
2.19827e-06
2.19836e-06
2.19826e-06
2.19838e-06
2.19824e-06
2.19842e-06
2.19821e-06
2.19848e-06
2.19816e-06
2.19856e-06
2.19808e-06
2.19859e-06
2.1977e-06
2.19774e-06
2.1946e-06
2.18756e-06
2.18046e-06
2.21143e-06
2.21868e-06
2.22599e-06
2.22909e-06
2.22888e-06
2.22984e-06
2.22925e-06
2.22979e-06
2.22933e-06
2.22969e-06
2.22938e-06
2.22963e-06
2.22942e-06
2.22958e-06
2.22944e-06
2.22956e-06
2.22945e-06
2.22954e-06
2.22948e-06
2.22952e-06
2.22948e-06
2.22951e-06
2.22949e-06
2.2295e-06
2.2295e-06
2.2295e-06
2.2295e-06
2.22949e-06
2.22951e-06
2.22948e-06
2.22952e-06
2.22948e-06
2.22954e-06
2.22945e-06
2.22956e-06
2.22944e-06
2.22958e-06
2.22942e-06
2.22963e-06
2.22938e-06
2.2297e-06
2.22933e-06
2.22979e-06
2.22925e-06
2.22983e-06
2.22888e-06
2.22909e-06
2.22598e-06
2.21868e-06
2.21143e-06
1.85372e-06
1.86007e-06
1.86679e-06
1.86947e-06
1.8692e-06
1.87007e-06
1.8695e-06
1.87002e-06
1.86958e-06
1.86993e-06
1.86963e-06
1.86987e-06
1.86967e-06
1.86982e-06
1.86969e-06
1.8698e-06
1.8697e-06
1.86978e-06
1.86972e-06
1.86977e-06
1.86973e-06
1.86976e-06
1.86973e-06
1.86975e-06
1.86974e-06
1.86974e-06
1.86975e-06
1.86973e-06
1.86976e-06
1.86973e-06
1.86977e-06
1.86972e-06
1.86978e-06
1.8697e-06
1.8698e-06
1.86969e-06
1.86982e-06
1.86967e-06
1.86987e-06
1.86963e-06
1.86993e-06
1.86958e-06
1.87002e-06
1.86951e-06
1.87007e-06
1.8692e-06
1.86947e-06
1.86679e-06
1.86007e-06
1.85372e-06
1.39717e-06
1.40235e-06
1.40818e-06
1.41039e-06
1.41015e-06
1.41088e-06
1.41039e-06
1.41082e-06
1.41045e-06
1.41075e-06
1.41049e-06
1.4107e-06
1.41052e-06
1.41065e-06
1.41054e-06
1.41063e-06
1.41055e-06
1.41062e-06
1.41057e-06
1.41061e-06
1.41058e-06
1.4106e-06
1.41058e-06
1.41059e-06
1.41059e-06
1.41059e-06
1.41059e-06
1.41058e-06
1.4106e-06
1.41058e-06
1.41061e-06
1.41057e-06
1.41062e-06
1.41055e-06
1.41064e-06
1.41054e-06
1.41065e-06
1.41053e-06
1.41069e-06
1.41049e-06
1.41075e-06
1.41045e-06
1.41082e-06
1.41039e-06
1.41088e-06
1.41015e-06
1.41039e-06
1.40818e-06
1.40235e-06
1.39717e-06
9.92111e-07
9.96159e-07
1.00101e-06
1.00278e-06
1.00259e-06
1.00318e-06
1.00278e-06
1.00313e-06
1.00283e-06
1.00307e-06
1.00286e-06
1.00303e-06
1.00289e-06
1.00299e-06
1.00291e-06
1.00298e-06
1.00291e-06
1.00297e-06
1.00293e-06
1.00296e-06
1.00293e-06
1.00295e-06
1.00293e-06
1.00294e-06
1.00294e-06
1.00294e-06
1.00294e-06
1.00293e-06
1.00295e-06
1.00293e-06
1.00296e-06
1.00293e-06
1.00297e-06
1.00291e-06
1.00298e-06
1.00291e-06
1.003e-06
1.00289e-06
1.00303e-06
1.00286e-06
1.00307e-06
1.00283e-06
1.00313e-06
1.00278e-06
1.00317e-06
1.00259e-06
1.00278e-06
1.00101e-06
9.9616e-07
9.92111e-07
6.83395e-07
6.86482e-07
6.90385e-07
6.91777e-07
6.91659e-07
6.92108e-07
6.91806e-07
6.92074e-07
6.91842e-07
6.92025e-07
6.91867e-07
6.91994e-07
6.91887e-07
6.91968e-07
6.91899e-07
6.91955e-07
6.91903e-07
6.91946e-07
6.91914e-07
6.91938e-07
6.91919e-07
6.91932e-07
6.9192e-07
6.91928e-07
6.91925e-07
6.91925e-07
6.91928e-07
6.9192e-07
6.91932e-07
6.91919e-07
6.91938e-07
6.91914e-07
6.91946e-07
6.91904e-07
6.91955e-07
6.91899e-07
6.91968e-07
6.91888e-07
6.91993e-07
6.91868e-07
6.92026e-07
6.91841e-07
6.92074e-07
6.91806e-07
6.92107e-07
6.9166e-07
6.91777e-07
6.90385e-07
6.86482e-07
6.83395e-07
4.66085e-07
4.68415e-07
4.71492e-07
4.7258e-07
4.72515e-07
4.72856e-07
4.72629e-07
4.72831e-07
4.72655e-07
4.72793e-07
4.72674e-07
4.72769e-07
4.72688e-07
4.72749e-07
4.72697e-07
4.72739e-07
4.727e-07
4.72732e-07
4.72709e-07
4.72726e-07
4.72712e-07
4.72722e-07
4.72713e-07
4.72719e-07
4.72716e-07
4.72716e-07
4.72719e-07
4.72713e-07
4.72722e-07
4.72712e-07
4.72726e-07
4.72709e-07
4.72732e-07
4.727e-07
4.7274e-07
4.72697e-07
4.72749e-07
4.72689e-07
4.72768e-07
4.72674e-07
4.72794e-07
4.72655e-07
4.72831e-07
4.72629e-07
4.72855e-07
4.72515e-07
4.72579e-07
4.71492e-07
4.68416e-07
4.66085e-07
3.19454e-07
3.21221e-07
3.23629e-07
3.24481e-07
3.24453e-07
3.24711e-07
3.24543e-07
3.24694e-07
3.24561e-07
3.24665e-07
3.24575e-07
3.24646e-07
3.24585e-07
3.24631e-07
3.24592e-07
3.24623e-07
3.24594e-07
3.24618e-07
3.246e-07
3.24614e-07
3.24603e-07
3.24611e-07
3.24604e-07
3.24608e-07
3.24606e-07
3.24606e-07
3.24608e-07
3.24604e-07
3.24611e-07
3.24603e-07
3.24614e-07
3.246e-07
3.24618e-07
3.24594e-07
3.24624e-07
3.24592e-07
3.24631e-07
3.24586e-07
3.24646e-07
3.24575e-07
3.24665e-07
3.24561e-07
3.24694e-07
3.24543e-07
3.24711e-07
3.24453e-07
3.24481e-07
3.23629e-07
3.21221e-07
3.19454e-07
2.18862e-07
2.20159e-07
2.21943e-07
2.22583e-07
2.22579e-07
2.22766e-07
2.22647e-07
2.22755e-07
2.22659e-07
2.22733e-07
2.22669e-07
2.22719e-07
2.22676e-07
2.22708e-07
2.22681e-07
2.22703e-07
2.22682e-07
2.22699e-07
2.22686e-07
2.22696e-07
2.22688e-07
2.22694e-07
2.22689e-07
2.22692e-07
2.22691e-07
2.22691e-07
2.22692e-07
2.22689e-07
2.22694e-07
2.22688e-07
2.22696e-07
2.22686e-07
2.22699e-07
2.22682e-07
2.22703e-07
2.2268e-07
2.22708e-07
2.22676e-07
2.22719e-07
2.22669e-07
2.22733e-07
2.22659e-07
2.22754e-07
2.22647e-07
2.22766e-07
2.22579e-07
2.22583e-07
2.21943e-07
2.2016e-07
2.18862e-07
1.55111e-07
1.56129e-07
1.5753e-07
1.5804e-07
1.58046e-07
1.58191e-07
1.581e-07
1.58183e-07
1.58109e-07
1.58166e-07
1.58116e-07
1.58155e-07
1.58122e-07
1.58146e-07
1.58125e-07
1.58142e-07
1.58126e-07
1.58139e-07
1.58129e-07
1.58137e-07
1.58131e-07
1.58135e-07
1.58131e-07
1.58134e-07
1.58133e-07
1.58133e-07
1.58134e-07
1.58131e-07
1.58135e-07
1.58131e-07
1.58137e-07
1.58129e-07
1.58139e-07
1.58126e-07
1.58142e-07
1.58125e-07
1.58146e-07
1.58122e-07
1.58155e-07
1.58116e-07
1.58166e-07
1.58109e-07
1.58182e-07
1.581e-07
1.58191e-07
1.58046e-07
1.5804e-07
1.5753e-07
1.56129e-07
1.55111e-07
1.128e-07
1.13451e-07
1.14421e-07
1.14787e-07
1.14822e-07
1.14921e-07
1.14868e-07
1.1492e-07
1.14874e-07
1.14909e-07
1.14878e-07
1.14902e-07
1.14881e-07
1.14896e-07
1.14882e-07
1.14893e-07
1.14883e-07
1.14891e-07
1.14885e-07
1.14889e-07
1.14885e-07
1.14888e-07
1.14886e-07
1.14887e-07
1.14886e-07
1.14886e-07
1.14887e-07
1.14886e-07
1.14888e-07
1.14885e-07
1.14889e-07
1.14885e-07
1.14891e-07
1.14883e-07
1.14893e-07
1.14882e-07
1.14896e-07
1.14881e-07
1.14901e-07
1.14878e-07
1.14909e-07
1.14874e-07
1.1492e-07
1.14868e-07
1.14921e-07
1.14822e-07
1.14787e-07
1.1442e-07
1.13451e-07
1.128e-07
8.3733e-08
8.42288e-08
8.49585e-08
8.52424e-08
8.52772e-08
8.53512e-08
8.53143e-08
8.53517e-08
8.53184e-08
8.53434e-08
8.53207e-08
8.53377e-08
8.53225e-08
8.53334e-08
8.53236e-08
8.53311e-08
8.53239e-08
8.53297e-08
8.53253e-08
8.53286e-08
8.53258e-08
8.53276e-08
8.53259e-08
8.53269e-08
8.53265e-08
8.53265e-08
8.53269e-08
8.53259e-08
8.53276e-08
8.53258e-08
8.53285e-08
8.53253e-08
8.53297e-08
8.53239e-08
8.53312e-08
8.53235e-08
8.53334e-08
8.53226e-08
8.53376e-08
8.53208e-08
8.53434e-08
8.53184e-08
8.53517e-08
8.53143e-08
8.53511e-08
8.52772e-08
8.52424e-08
8.49584e-08
8.42288e-08
8.3733e-08
6.47601e-08
6.51567e-08
6.57324e-08
6.59619e-08
6.59956e-08
6.60539e-08
6.60265e-08
6.60551e-08
6.60296e-08
6.60485e-08
6.60311e-08
6.60439e-08
6.60323e-08
6.60405e-08
6.6033e-08
6.60387e-08
6.60332e-08
6.60376e-08
6.60342e-08
6.60367e-08
6.60346e-08
6.6036e-08
6.60347e-08
6.60355e-08
6.60351e-08
6.60351e-08
6.60355e-08
6.60347e-08
6.6036e-08
6.60346e-08
6.60367e-08
6.60342e-08
6.60376e-08
6.60332e-08
6.60388e-08
6.6033e-08
6.60405e-08
6.60324e-08
6.60439e-08
6.60312e-08
6.60485e-08
6.60295e-08
6.6055e-08
6.60265e-08
6.60538e-08
6.59956e-08
6.59619e-08
6.57324e-08
6.51567e-08
6.47601e-08
5.12392e-08
5.15794e-08
5.20588e-08
5.22609e-08
5.22981e-08
5.23473e-08
5.23267e-08
5.23491e-08
5.23287e-08
5.23433e-08
5.23295e-08
5.23394e-08
5.23301e-08
5.23364e-08
5.23305e-08
5.23349e-08
5.23305e-08
5.2334e-08
5.23313e-08
5.23333e-08
5.23316e-08
5.23327e-08
5.23316e-08
5.23322e-08
5.2332e-08
5.2332e-08
5.23322e-08
5.23316e-08
5.23327e-08
5.23316e-08
5.23333e-08
5.23313e-08
5.2334e-08
5.23305e-08
5.2335e-08
5.23304e-08
5.23365e-08
5.23302e-08
5.23393e-08
5.23295e-08
5.23434e-08
5.23287e-08
5.23491e-08
5.23267e-08
5.23472e-08
5.22981e-08
5.22608e-08
5.20588e-08
5.15794e-08
5.12392e-08
4.20336e-08
4.23191e-08
4.271e-08
4.28796e-08
4.2915e-08
4.29554e-08
4.29401e-08
4.29576e-08
4.29416e-08
4.29528e-08
4.29419e-08
4.29495e-08
4.29422e-08
4.29471e-08
4.29424e-08
4.29458e-08
4.29423e-08
4.29451e-08
4.29429e-08
4.29445e-08
4.29431e-08
4.2944e-08
4.29432e-08
4.29436e-08
4.29434e-08
4.29434e-08
4.29436e-08
4.29432e-08
4.2944e-08
4.29431e-08
4.29445e-08
4.29429e-08
4.29451e-08
4.29424e-08
4.29458e-08
4.29424e-08
4.29471e-08
4.29422e-08
4.29495e-08
4.29419e-08
4.29528e-08
4.29415e-08
4.29576e-08
4.29401e-08
4.29554e-08
4.2915e-08
4.28796e-08
4.271e-08
4.23191e-08
4.20336e-08
3.51842e-08
3.54423e-08
3.57827e-08
3.59355e-08
3.59679e-08
3.60037e-08
3.59902e-08
3.60055e-08
3.59914e-08
3.60011e-08
3.59916e-08
3.59982e-08
3.59918e-08
3.59961e-08
3.59919e-08
3.59949e-08
3.59919e-08
3.59943e-08
3.59924e-08
3.59938e-08
3.59926e-08
3.59933e-08
3.59926e-08
3.5993e-08
3.59929e-08
3.59929e-08
3.5993e-08
3.59926e-08
3.59934e-08
3.59926e-08
3.59938e-08
3.59924e-08
3.59943e-08
3.59919e-08
3.5995e-08
3.59919e-08
3.59961e-08
3.59918e-08
3.59982e-08
3.59916e-08
3.60011e-08
3.59913e-08
3.60054e-08
3.59902e-08
3.60036e-08
3.59679e-08
3.59355e-08
3.57827e-08
3.54423e-08
3.51842e-08
3.01546e-08
3.03797e-08
3.06618e-08
3.07925e-08
3.0823e-08
3.0853e-08
3.08428e-08
3.08549e-08
3.08437e-08
3.08513e-08
3.08436e-08
3.08488e-08
3.08437e-08
3.0847e-08
3.08437e-08
3.0846e-08
3.08436e-08
3.08455e-08
3.0844e-08
3.08451e-08
3.08441e-08
3.08447e-08
3.08441e-08
3.08445e-08
3.08443e-08
3.08443e-08
3.08445e-08
3.08441e-08
3.08447e-08
3.08441e-08
3.08451e-08
3.0844e-08
3.08455e-08
3.08436e-08
3.0846e-08
3.08437e-08
3.0847e-08
3.08437e-08
3.08487e-08
3.08437e-08
3.08513e-08
3.08437e-08
3.08549e-08
3.08428e-08
3.08529e-08
3.0823e-08
3.07925e-08
3.06618e-08
3.03797e-08
3.01546e-08
2.6524e-08
2.67294e-08
2.69716e-08
2.70871e-08
2.71161e-08
2.71422e-08
2.71342e-08
2.71443e-08
2.71349e-08
2.7141e-08
2.71346e-08
2.71388e-08
2.71345e-08
2.71372e-08
2.71345e-08
2.71364e-08
2.71344e-08
2.71359e-08
2.71347e-08
2.71356e-08
2.71348e-08
2.71352e-08
2.71348e-08
2.7135e-08
2.71349e-08
2.71349e-08
2.7135e-08
2.71348e-08
2.71353e-08
2.71348e-08
2.71355e-08
2.71347e-08
2.71359e-08
2.71344e-08
2.71364e-08
2.71345e-08
2.71372e-08
2.71346e-08
2.71388e-08
2.71347e-08
2.71411e-08
2.71348e-08
2.71442e-08
2.71342e-08
2.71422e-08
2.71161e-08
2.70871e-08
2.69716e-08
2.67294e-08
2.6524e-08
2.37579e-08
2.39507e-08
2.41624e-08
2.42658e-08
2.42933e-08
2.43165e-08
2.43101e-08
2.43186e-08
2.43106e-08
2.43157e-08
2.43103e-08
2.43137e-08
2.43101e-08
2.43123e-08
2.43099e-08
2.43115e-08
2.43098e-08
2.43111e-08
2.43101e-08
2.43108e-08
2.43101e-08
2.43105e-08
2.43101e-08
2.43103e-08
2.43102e-08
2.43102e-08
2.43103e-08
2.43101e-08
2.43105e-08
2.43101e-08
2.43108e-08
2.43101e-08
2.43111e-08
2.43098e-08
2.43115e-08
2.43099e-08
2.43123e-08
2.43101e-08
2.43137e-08
2.43103e-08
2.43157e-08
2.43106e-08
2.43186e-08
2.43101e-08
2.43165e-08
2.42933e-08
2.42658e-08
2.41624e-08
2.39507e-08
2.37579e-08
2.16165e-08
2.17404e-08
2.19198e-08
2.20112e-08
2.20389e-08
2.20594e-08
2.2055e-08
2.20617e-08
2.20553e-08
2.20591e-08
2.20546e-08
2.20571e-08
2.20541e-08
2.20558e-08
2.20539e-08
2.20551e-08
2.20537e-08
2.20547e-08
2.20538e-08
2.20544e-08
2.20538e-08
2.20541e-08
2.20538e-08
2.2054e-08
2.20539e-08
2.20539e-08
2.2054e-08
2.20538e-08
2.20541e-08
2.20538e-08
2.20544e-08
2.20538e-08
2.20547e-08
2.20537e-08
2.20551e-08
2.20538e-08
2.20558e-08
2.20541e-08
2.20571e-08
2.20546e-08
2.20591e-08
2.20553e-08
2.20617e-08
2.2055e-08
2.20593e-08
2.20388e-08
2.20112e-08
2.19198e-08
2.17404e-08
2.16165e-08
1.99351e-08
2.00515e-08
2.02115e-08
2.02949e-08
2.03214e-08
2.034e-08
2.03366e-08
2.03424e-08
2.03367e-08
2.03399e-08
2.0336e-08
2.03381e-08
2.03355e-08
2.03368e-08
2.03351e-08
2.03361e-08
2.03349e-08
2.03358e-08
2.0335e-08
2.03355e-08
2.0335e-08
2.03353e-08
2.0335e-08
2.03352e-08
2.03351e-08
2.03351e-08
2.03352e-08
2.0335e-08
2.03353e-08
2.0335e-08
2.03355e-08
2.0335e-08
2.03358e-08
2.03349e-08
2.03361e-08
2.03351e-08
2.03368e-08
2.03355e-08
2.03381e-08
2.0336e-08
2.03399e-08
2.03367e-08
2.03424e-08
2.03366e-08
2.034e-08
2.03213e-08
2.02949e-08
2.02115e-08
2.00515e-08
1.99351e-08
1.85465e-08
1.86573e-08
1.88035e-08
1.88818e-08
1.89077e-08
1.89251e-08
1.89223e-08
1.89274e-08
1.89223e-08
1.89249e-08
1.89214e-08
1.89232e-08
1.89208e-08
1.8922e-08
1.89205e-08
1.89213e-08
1.89202e-08
1.8921e-08
1.89203e-08
1.89207e-08
1.89203e-08
1.89205e-08
1.89203e-08
1.89204e-08
1.89203e-08
1.89203e-08
1.89204e-08
1.89203e-08
1.89205e-08
1.89203e-08
1.89207e-08
1.89203e-08
1.8921e-08
1.89202e-08
1.89213e-08
1.89205e-08
1.8922e-08
1.89208e-08
1.89232e-08
1.89214e-08
1.8925e-08
1.89223e-08
1.89274e-08
1.89223e-08
1.8925e-08
1.89077e-08
1.88817e-08
1.88035e-08
1.86573e-08
1.85465e-08
1.7425e-08
1.75294e-08
1.76614e-08
1.77335e-08
1.77584e-08
1.77744e-08
1.77723e-08
1.77766e-08
1.77722e-08
1.77743e-08
1.77712e-08
1.77726e-08
1.77706e-08
1.77715e-08
1.77702e-08
1.77709e-08
1.77699e-08
1.77705e-08
1.777e-08
1.77703e-08
1.77699e-08
1.77701e-08
1.77699e-08
1.777e-08
1.777e-08
1.777e-08
1.777e-08
1.77699e-08
1.77701e-08
1.77699e-08
1.77703e-08
1.777e-08
1.77705e-08
1.77699e-08
1.77709e-08
1.77702e-08
1.77715e-08
1.77706e-08
1.77726e-08
1.77712e-08
1.77743e-08
1.77722e-08
1.77766e-08
1.77723e-08
1.77743e-08
1.77584e-08
1.77334e-08
1.76614e-08
1.75294e-08
1.7425e-08
1.65067e-08
1.66059e-08
1.67261e-08
1.6793e-08
1.6817e-08
1.68318e-08
1.68303e-08
1.68341e-08
1.68301e-08
1.68319e-08
1.68291e-08
1.68302e-08
1.68283e-08
1.68291e-08
1.68279e-08
1.68285e-08
1.68277e-08
1.68282e-08
1.68277e-08
1.6828e-08
1.68276e-08
1.68278e-08
1.68276e-08
1.68277e-08
1.68276e-08
1.68276e-08
1.68277e-08
1.68276e-08
1.68278e-08
1.68276e-08
1.6828e-08
1.68277e-08
1.68282e-08
1.68277e-08
1.68285e-08
1.68279e-08
1.68291e-08
1.68283e-08
1.68302e-08
1.68291e-08
1.68319e-08
1.68301e-08
1.6834e-08
1.68303e-08
1.68318e-08
1.6817e-08
1.6793e-08
1.67261e-08
1.66059e-08
1.65067e-08
1.57452e-08
1.58397e-08
1.59503e-08
1.60126e-08
1.60358e-08
1.60497e-08
1.60486e-08
1.60518e-08
1.60483e-08
1.60497e-08
1.60472e-08
1.60481e-08
1.60464e-08
1.6047e-08
1.60459e-08
1.60464e-08
1.60457e-08
1.60461e-08
1.60456e-08
1.60459e-08
1.60456e-08
1.60457e-08
1.60456e-08
1.60456e-08
1.60456e-08
1.60456e-08
1.60456e-08
1.60456e-08
1.60457e-08
1.60456e-08
1.60459e-08
1.60456e-08
1.60461e-08
1.60457e-08
1.60464e-08
1.60459e-08
1.6047e-08
1.60464e-08
1.60481e-08
1.60472e-08
1.60497e-08
1.60483e-08
1.60518e-08
1.60486e-08
1.60497e-08
1.60358e-08
1.60126e-08
1.59503e-08
1.58397e-08
1.57452e-08
1.51054e-08
1.51957e-08
1.52984e-08
1.53567e-08
1.53792e-08
1.53922e-08
1.53915e-08
1.53943e-08
1.53911e-08
1.53922e-08
1.53898e-08
1.53906e-08
1.5389e-08
1.53895e-08
1.53885e-08
1.53889e-08
1.53882e-08
1.53886e-08
1.53882e-08
1.53884e-08
1.53882e-08
1.53883e-08
1.53881e-08
1.53882e-08
1.53881e-08
1.53881e-08
1.53882e-08
1.53881e-08
1.53883e-08
1.53882e-08
1.53884e-08
1.53882e-08
1.53886e-08
1.53882e-08
1.53889e-08
1.53885e-08
1.53895e-08
1.5389e-08
1.53906e-08
1.53899e-08
1.53922e-08
1.5391e-08
1.53943e-08
1.53915e-08
1.53922e-08
1.53792e-08
1.53567e-08
1.52984e-08
1.51957e-08
1.51054e-08
1.4561e-08
1.46474e-08
1.47436e-08
1.47984e-08
1.48201e-08
1.48325e-08
1.4832e-08
1.48344e-08
1.48315e-08
1.48323e-08
1.48302e-08
1.48307e-08
1.48293e-08
1.48297e-08
1.48288e-08
1.48291e-08
1.48285e-08
1.48288e-08
1.48284e-08
1.48286e-08
1.48284e-08
1.48285e-08
1.48283e-08
1.48284e-08
1.48283e-08
1.48283e-08
1.48284e-08
1.48283e-08
1.48285e-08
1.48284e-08
1.48286e-08
1.48284e-08
1.48288e-08
1.48285e-08
1.48291e-08
1.48288e-08
1.48297e-08
1.48293e-08
1.48307e-08
1.48302e-08
1.48323e-08
1.48315e-08
1.48344e-08
1.4832e-08
1.48325e-08
1.48201e-08
1.47984e-08
1.47436e-08
1.46474e-08
1.4561e-08
1.40918e-08
1.41748e-08
1.42654e-08
1.43171e-08
1.43381e-08
1.43498e-08
1.43495e-08
1.43517e-08
1.43489e-08
1.43496e-08
1.43476e-08
1.4348e-08
1.43466e-08
1.43469e-08
1.43461e-08
1.43463e-08
1.43458e-08
1.4346e-08
1.43457e-08
1.43459e-08
1.43456e-08
1.43457e-08
1.43456e-08
1.43456e-08
1.43456e-08
1.43456e-08
1.43456e-08
1.43456e-08
1.43457e-08
1.43456e-08
1.43458e-08
1.43457e-08
1.4346e-08
1.43458e-08
1.43463e-08
1.43461e-08
1.43469e-08
1.43466e-08
1.4348e-08
1.43476e-08
1.43496e-08
1.43489e-08
1.43517e-08
1.43495e-08
1.43498e-08
1.43381e-08
1.43171e-08
1.42654e-08
1.41748e-08
1.40918e-08
1.36824e-08
1.37622e-08
1.3848e-08
1.38969e-08
1.39173e-08
1.39285e-08
1.39283e-08
1.39302e-08
1.39276e-08
1.3928e-08
1.39261e-08
1.39264e-08
1.39251e-08
1.39253e-08
1.39245e-08
1.39248e-08
1.39242e-08
1.39245e-08
1.39241e-08
1.39243e-08
1.39241e-08
1.39241e-08
1.3924e-08
1.3924e-08
1.3924e-08
1.3924e-08
1.3924e-08
1.3924e-08
1.39241e-08
1.39241e-08
1.39243e-08
1.39241e-08
1.39244e-08
1.39242e-08
1.39248e-08
1.39245e-08
1.39253e-08
1.39251e-08
1.39264e-08
1.39261e-08
1.3928e-08
1.39276e-08
1.39302e-08
1.39283e-08
1.39284e-08
1.39173e-08
1.38969e-08
1.38479e-08
1.37622e-08
1.36824e-08
1.33206e-08
1.33975e-08
1.3479e-08
1.35255e-08
1.35453e-08
1.35559e-08
1.35559e-08
1.35575e-08
1.3555e-08
1.35553e-08
1.35535e-08
1.35536e-08
1.35524e-08
1.35526e-08
1.35518e-08
1.3552e-08
1.35515e-08
1.35517e-08
1.35514e-08
1.35515e-08
1.35513e-08
1.35514e-08
1.35512e-08
1.35513e-08
1.35512e-08
1.35512e-08
1.35513e-08
1.35512e-08
1.35514e-08
1.35513e-08
1.35515e-08
1.35514e-08
1.35517e-08
1.35515e-08
1.3552e-08
1.35518e-08
1.35526e-08
1.35524e-08
1.35536e-08
1.35535e-08
1.35553e-08
1.3555e-08
1.35575e-08
1.35558e-08
1.35559e-08
1.35453e-08
1.35255e-08
1.3479e-08
1.33975e-08
1.33206e-08
1.2997e-08
1.30712e-08
1.3149e-08
1.31932e-08
1.32124e-08
1.32226e-08
1.32225e-08
1.3224e-08
1.32216e-08
1.32217e-08
1.32199e-08
1.322e-08
1.32188e-08
1.32189e-08
1.32182e-08
1.32183e-08
1.32178e-08
1.3218e-08
1.32177e-08
1.32178e-08
1.32176e-08
1.32177e-08
1.32176e-08
1.32176e-08
1.32176e-08
1.32176e-08
1.32176e-08
1.32176e-08
1.32177e-08
1.32176e-08
1.32178e-08
1.32177e-08
1.3218e-08
1.32178e-08
1.32183e-08
1.32182e-08
1.32189e-08
1.32188e-08
1.322e-08
1.32199e-08
1.32217e-08
1.32216e-08
1.3224e-08
1.32225e-08
1.32226e-08
1.32124e-08
1.31932e-08
1.3149e-08
1.30712e-08
1.2997e-08
1.27041e-08
1.27757e-08
1.28502e-08
1.28924e-08
1.29109e-08
1.29207e-08
1.29207e-08
1.29219e-08
1.29196e-08
1.29196e-08
1.29179e-08
1.29179e-08
1.29167e-08
1.29168e-08
1.2916e-08
1.29161e-08
1.29157e-08
1.29158e-08
1.29155e-08
1.29156e-08
1.29154e-08
1.29155e-08
1.29154e-08
1.29154e-08
1.29154e-08
1.29154e-08
1.29154e-08
1.29154e-08
1.29155e-08
1.29154e-08
1.29156e-08
1.29155e-08
1.29158e-08
1.29157e-08
1.29161e-08
1.2916e-08
1.29168e-08
1.29167e-08
1.29179e-08
1.29179e-08
1.29196e-08
1.29196e-08
1.29219e-08
1.29207e-08
1.29207e-08
1.29109e-08
1.28924e-08
1.28502e-08
1.27757e-08
1.27041e-08
1.2436e-08
1.25051e-08
1.25767e-08
1.2617e-08
1.26349e-08
1.26443e-08
1.26442e-08
1.26453e-08
1.2643e-08
1.26429e-08
1.26412e-08
1.26411e-08
1.264e-08
1.264e-08
1.26392e-08
1.26393e-08
1.26389e-08
1.2639e-08
1.26387e-08
1.26388e-08
1.26386e-08
1.26387e-08
1.26386e-08
1.26386e-08
1.26386e-08
1.26386e-08
1.26386e-08
1.26386e-08
1.26387e-08
1.26386e-08
1.26388e-08
1.26387e-08
1.2639e-08
1.26389e-08
1.26393e-08
1.26392e-08
1.264e-08
1.264e-08
1.26411e-08
1.26412e-08
1.26429e-08
1.2643e-08
1.26453e-08
1.26442e-08
1.26442e-08
1.26349e-08
1.2617e-08
1.25767e-08
1.25051e-08
1.24359e-08
1.21879e-08
1.22546e-08
1.23235e-08
1.23621e-08
1.23794e-08
1.23884e-08
1.23883e-08
1.23892e-08
1.23869e-08
1.23867e-08
1.2385e-08
1.23848e-08
1.23837e-08
1.23837e-08
1.2383e-08
1.2383e-08
1.23826e-08
1.23827e-08
1.23824e-08
1.23825e-08
1.23823e-08
1.23824e-08
1.23823e-08
1.23823e-08
1.23823e-08
1.23823e-08
1.23823e-08
1.23823e-08
1.23824e-08
1.23823e-08
1.23825e-08
1.23824e-08
1.23827e-08
1.23826e-08
1.2383e-08
1.2383e-08
1.23837e-08
1.23837e-08
1.23848e-08
1.2385e-08
1.23867e-08
1.23869e-08
1.23892e-08
1.23883e-08
1.23883e-08
1.23794e-08
1.23621e-08
1.23235e-08
1.22546e-08
1.21879e-08
1.19561e-08
1.20204e-08
1.20869e-08
1.21239e-08
1.21406e-08
1.21491e-08
1.2149e-08
1.21497e-08
1.21474e-08
1.21471e-08
1.21454e-08
1.21452e-08
1.21441e-08
1.2144e-08
1.21433e-08
1.21434e-08
1.21429e-08
1.2143e-08
1.21427e-08
1.21428e-08
1.21426e-08
1.21427e-08
1.21426e-08
1.21426e-08
1.21426e-08
1.21426e-08
1.21426e-08
1.21426e-08
1.21427e-08
1.21426e-08
1.21428e-08
1.21427e-08
1.2143e-08
1.21429e-08
1.21434e-08
1.21433e-08
1.2144e-08
1.21441e-08
1.21452e-08
1.21454e-08
1.21471e-08
1.21474e-08
1.21497e-08
1.2149e-08
1.21491e-08
1.21406e-08
1.21239e-08
1.20869e-08
1.20204e-08
1.19561e-08
1.17375e-08
1.17994e-08
1.18637e-08
1.18992e-08
1.19152e-08
1.19234e-08
1.19232e-08
1.19237e-08
1.19214e-08
1.1921e-08
1.19193e-08
1.19191e-08
1.1918e-08
1.19178e-08
1.19172e-08
1.19172e-08
1.19167e-08
1.19168e-08
1.19165e-08
1.19166e-08
1.19164e-08
1.19165e-08
1.19164e-08
1.19164e-08
1.19164e-08
1.19164e-08
1.19164e-08
1.19164e-08
1.19165e-08
1.19164e-08
1.19166e-08
1.19165e-08
1.19168e-08
1.19167e-08
1.19172e-08
1.19172e-08
1.19178e-08
1.1918e-08
1.19191e-08
1.19193e-08
1.1921e-08
1.19214e-08
1.19237e-08
1.19232e-08
1.19234e-08
1.19152e-08
1.18992e-08
1.18637e-08
1.17994e-08
1.17375e-08
1.15296e-08
1.15892e-08
1.16514e-08
1.16855e-08
1.17009e-08
1.17086e-08
1.17083e-08
1.17087e-08
1.17064e-08
1.17059e-08
1.17042e-08
1.17039e-08
1.17027e-08
1.17026e-08
1.17019e-08
1.17019e-08
1.17015e-08
1.17015e-08
1.17013e-08
1.17013e-08
1.17012e-08
1.17012e-08
1.17011e-08
1.17011e-08
1.17011e-08
1.17011e-08
1.17011e-08
1.17011e-08
1.17012e-08
1.17011e-08
1.17013e-08
1.17013e-08
1.17015e-08
1.17015e-08
1.17019e-08
1.17019e-08
1.17026e-08
1.17027e-08
1.17038e-08
1.17042e-08
1.17059e-08
1.17064e-08
1.17087e-08
1.17083e-08
1.17086e-08
1.17009e-08
1.16854e-08
1.16514e-08
1.15892e-08
1.15296e-08
)
;

boundaryField
{
    fuel
    {
        type            fixedValue;
        value           uniform 0;
    }
    wall
    {
        type            zeroGradient;
    }
    outlet
    {
        type            zeroGradient;
    }
    frontAndBack
    {
        type            empty;
    }
    procBoundary1to0
    {
        type            processor;
        value           nonuniform List<scalar> 
50
(
1.13302e-08
1.13879e-08
1.14479e-08
1.14806e-08
1.14954e-08
1.15028e-08
1.15023e-08
1.15025e-08
1.15002e-08
1.14996e-08
1.14979e-08
1.14975e-08
1.14964e-08
1.14962e-08
1.14955e-08
1.14955e-08
1.14951e-08
1.14951e-08
1.14949e-08
1.14949e-08
1.14947e-08
1.14948e-08
1.14947e-08
1.14947e-08
1.14946e-08
1.14946e-08
1.14947e-08
1.14947e-08
1.14947e-08
1.14947e-08
1.14949e-08
1.14949e-08
1.14951e-08
1.14951e-08
1.14955e-08
1.14955e-08
1.14962e-08
1.14964e-08
1.14975e-08
1.14979e-08
1.14996e-08
1.15002e-08
1.15025e-08
1.15023e-08
1.15028e-08
1.14954e-08
1.14806e-08
1.14479e-08
1.13879e-08
1.13302e-08
)
;
    }
}


// ************************************************************************* //
