/*--------------------------------*- C++ -*----------------------------------*\
| =========                 |                                                 |
| \\      /  F ield         | OpenFOAM: The Open Source CFD Toolbox           |
|  \\    /   O peration     | Version:  dev                                   |
|   \\  /    A nd           | Web:      www.OpenFOAM.org                      |
|    \\/     M anipulation  |                                                 |
\*---------------------------------------------------------------------------*/
FoamFile
{
    version     2.0;
    format      ascii;
    class       volScalarField;
    location    "0.07";
    object      CH2(S);
}
// * * * * * * * * * * * * * * * * * * * * * * * * * * * * * * * * * * * * * //

dimensions      [0 0 0 0 0 0 0];

internalField   nonuniform List<scalar> 
25
(
9.57944e-10
7.81237e-10
6.38946e-10
5.23365e-10
4.29559e-10
3.54094e-10
2.94365e-10
2.48169e-10
2.13563e-10
1.88802e-10
1.72316e-10
1.62707e-10
1.58743e-10
1.59348e-10
1.63588e-10
1.70706e-10
1.80107e-10
1.91043e-10
2.02967e-10
2.15397e-10
2.279e-10
2.40093e-10
2.51633e-10
2.62225e-10
2.71377e-10
)
;

boundaryField
{
    wall
    {
        type            zeroGradient;
    }
    fuel
    {
        type            fixedValue;
        value           nonuniform 0();
    }
    outlet
    {
        type            inletOutlet;
        inletValue      nonuniform 0();
        value           nonuniform 0();
    }
    procBoundary1to0
    {
        type            processor;
        value           uniform 1.19837e-09;
    }
    procBoundary1to2
    {
        type            processor;
        value           uniform 2.79156e-10;
    }
}


// ************************************************************************* //
