/*--------------------------------*- C++ -*----------------------------------*\
| =========                 |                                                 |
| \\      /  F ield         | OpenFOAM: The Open Source CFD Toolbox           |
|  \\    /   O peration     | Version:  dev                                   |
|   \\  /    A nd           | Web:      www.OpenFOAM.org                      |
|    \\/     M anipulation  |                                                 |
\*---------------------------------------------------------------------------*/
FoamFile
{
    version     2.0;
    format      ascii;
    class       volScalarField;
    location    "0.07";
    object      CH2OH;
}
// * * * * * * * * * * * * * * * * * * * * * * * * * * * * * * * * * * * * * //

dimensions      [0 0 0 0 0 0 0];

internalField   nonuniform List<scalar> 
250
(
8.41421e-10
7.7529e-10
1.01993e-09
8.52584e-10
8.94223e-10
8.38595e-10
8.56243e-10
8.33327e-10
8.44771e-10
8.37581e-10
6.00983e-10
5.27282e-10
6.87205e-10
5.67462e-10
5.95499e-10
5.567e-10
5.69322e-10
5.53136e-10
5.61376e-10
5.56195e-10
5.4591e-10
5.75258e-10
5.3848e-10
5.94019e-10
5.40304e-10
6.29151e-10
5.72986e-10
6.78922e-10
6.47297e-10
6.11811e-10
4.13096e-10
3.48599e-10
4.49032e-10
3.68076e-10
3.86123e-10
3.60235e-10
3.68853e-10
3.57909e-10
3.63591e-10
3.60015e-10
3.53071e-10
3.72987e-10
3.48023e-10
3.85483e-10
3.49175e-10
4.08934e-10
3.7123e-10
4.43901e-10
4.2651e-10
4.14093e-10
2.74544e-10
2.25483e-10
2.86198e-10
2.3432e-10
2.45596e-10
2.2875e-10
2.34392e-10
2.2728e-10
2.31049e-10
2.2867e-10
2.24159e-10
2.37164e-10
2.20857e-10
2.45171e-10
2.21549e-10
2.60418e-10
2.36013e-10
2.8368e-10
2.74018e-10
2.7317e-10
1.77904e-10
1.44127e-10
1.79517e-10
1.46742e-10
1.53605e-10
1.44001e-10
1.47555e-10
1.43095e-10
1.4551e-10
1.43975e-10
1.41148e-10
1.49348e-10
1.39062e-10
1.54305e-10
1.39459e-10
1.63087e-10
1.47157e-10
1.78762e-10
1.73188e-10
1.77216e-10
1.14006e-10
9.25064e-11
1.12484e-10
9.30804e-11
9.71369e-11
9.1347e-11
9.35064e-11
9.07937e-11
9.22957e-11
9.13283e-11
8.96115e-11
9.4625e-11
8.83376e-11
9.76041e-11
8.85623e-11
1.02916e-10
9.30976e-11
1.12723e-10
1.0928e-10
1.13358e-10
7.39497e-11
6.11003e-11
7.21073e-11
6.09666e-11
6.32388e-11
5.98774e-11
6.115e-11
5.9535e-11
6.04512e-11
5.98445e-11
5.88268e-11
6.1826e-11
5.80714e-11
6.35806e-11
5.82042e-11
6.67448e-11
6.08296e-11
7.27752e-11
7.05057e-11
7.43128e-11
5.02062e-11
4.28384e-11
4.88876e-11
4.2551e-11
4.37846e-11
4.18524e-11
4.25932e-11
4.16289e-11
4.2191e-11
4.17992e-11
4.11973e-11
4.29951e-11
4.07553e-11
4.40303e-11
4.08436e-11
4.5928e-11
4.23759e-11
4.96493e-11
4.80671e-11
5.10224e-11
3.70372e-11
3.28448e-11
3.63109e-11
3.26062e-11
3.32799e-11
3.21326e-11
3.25727e-11
3.19721e-11
3.23331e-11
3.20599e-11
3.16915e-11
3.28145e-11
3.14295e-11
3.34501e-11
3.14984e-11
3.46399e-11
3.24354e-11
3.70202e-11
3.58397e-11
3.79403e-11
3.11344e-11
2.88282e-11
3.09522e-11
2.87096e-11
2.9063e-11
2.83558e-11
2.86174e-11
2.82217e-11
2.84697e-11
2.82561e-11
2.802e-11
2.8765e-11
2.78662e-11
2.91809e-11
2.79311e-11
2.99881e-11
2.85425e-11
3.16157e-11
3.06188e-11
3.20255e-11
3.25343e-11
3.12751e-11
3.26128e-11
3.10804e-11
3.11874e-11
3.06979e-11
3.08581e-11
3.0541e-11
3.07613e-11
3.05315e-11
3.03524e-11
3.09631e-11
3.02576e-11
3.12894e-11
3.03364e-11
3.19791e-11
3.08249e-11
3.34326e-11
3.23803e-11
3.3668e-11
3.9701e-11
3.84374e-11
3.91223e-11
3.7636e-11
3.74709e-11
3.70133e-11
3.71373e-11
3.67683e-11
3.70698e-11
3.67056e-11
3.65257e-11
3.72374e-11
3.64581e-11
3.75704e-11
3.65795e-11
3.83846e-11
3.71279e-11
4.0391e-11
3.90879e-11
4.15556e-11
4.22271e-11
4.11417e-11
4.11841e-11
3.99903e-11
3.95884e-11
3.92395e-11
3.92857e-11
3.89406e-11
3.92678e-11
3.8813e-11
3.86876e-11
3.933e-11
3.86893e-11
3.95777e-11
3.88608e-11
4.03236e-11
3.94034e-11
4.2455e-11
4.1315e-11
4.41341e-11
)
;

boundaryField
{
    fuel
    {
        type            fixedValue;
        value           nonuniform 0();
    }
    wall
    {
        type            zeroGradient;
    }
    outlet
    {
        type            zeroGradient;
    }
    frontAndBack
    {
        type            empty;
    }
    procBoundary1to0
    {
        type            processor;
        value           nonuniform List<scalar> 
21
(
1.13395e-09
1.10242e-09
1.46485e-09
1.24185e-09
1.30228e-09
1.22562e-09
1.24942e-09
1.21828e-09
1.23347e-09
1.22395e-09
8.22955e-10
8.22955e-10
8.64438e-10
8.12496e-10
8.91328e-10
8.15393e-10
9.41707e-10
8.62189e-10
1.00764e-09
9.53836e-10
8.76036e-10
)
;
    }
}


// ************************************************************************* //
