/*--------------------------------*- C++ -*----------------------------------*\
| =========                 |                                                 |
| \\      /  F ield         | OpenFOAM: The Open Source CFD Toolbox           |
|  \\    /   O peration     | Version:  dev                                   |
|   \\  /    A nd           | Web:      www.OpenFOAM.org                      |
|    \\/     M anipulation  |                                                 |
\*---------------------------------------------------------------------------*/
FoamFile
{
    version     2.0;
    format      ascii;
    class       volScalarField;
    location    "0.07";
    object      dQ;
}
// * * * * * * * * * * * * * * * * * * * * * * * * * * * * * * * * * * * * * //

dimensions      [1 2 -3 0 0 0 0];

internalField   nonuniform List<scalar> 
250
(
0.00329922
0.003615
0.00343473
0.00353947
0.0034241
0.00338366
0.00339946
0.00333579
0.00338688
0.00333258
0.00311888
0.00337044
0.00311186
0.00320617
0.00308003
0.00303967
0.00305569
0.00299038
0.0030441
0.00298656
0.00300338
0.00302089
0.00300415
0.00302925
0.00304033
0.00303961
0.00316751
0.00311867
0.00317356
0.00295515
0.00286429
0.00304561
0.00277175
0.00284801
0.00273204
0.00269685
0.00271121
0.00265368
0.00270168
0.00265017
0.00266513
0.00268091
0.00266594
0.00268786
0.00269759
0.00269755
0.00281392
0.00277988
0.00286998
0.00273663
0.00263126
0.00275385
0.00251594
0.00257258
0.00247923
0.00245117
0.00246258
0.00241793
0.00245522
0.00241518
0.00242675
0.00243915
0.00242733
0.00244454
0.00245189
0.00245234
0.002547
0.002523
0.00261459
0.00254124
0.00249473
0.00258219
0.00240092
0.00243633
0.00237197
0.00235042
0.00235886
0.00232627
0.002353
0.0023242
0.00233247
0.00234155
0.0023328
0.00234588
0.00235091
0.00235172
0.00241726
0.00240603
0.00248079
0.00243977
0.00248105
0.00255855
0.00242289
0.00245075
0.00240082
0.00238287
0.00238948
0.00236358
0.00238423
0.00236173
0.00236819
0.00237542
0.00236842
0.00237934
0.00238305
0.00238413
0.00243627
0.00242702
0.00248492
0.00244371
0.00256604
0.0026502
0.00252845
0.00255759
0.0025092
0.00249137
0.00249793
0.00247146
0.00249269
0.00246924
0.00247608
0.00248356
0.00247647
0.00248754
0.0024914
0.00249253
0.00254393
0.00253357
0.00258808
0.00254826
0.0026826
0.00277681
0.00262636
0.00266475
0.00260409
0.00258339
0.00259188
0.00255719
0.00258665
0.00255402
0.00256373
0.00257379
0.00256461
0.00257784
0.00258363
0.00258445
0.00264839
0.00263498
0.0027072
0.00267549
0.00269292
0.00278786
0.00256614
0.00261971
0.00253554
0.00251072
0.00252261
0.00247393
0.00251819
0.00246945
0.00248414
0.00249862
0.00248584
0.00250212
0.00251167
0.00251155
0.002598
0.00258089
0.00269201
0.00268589
0.00237476
0.00245263
0.00216998
0.00223319
0.00213358
0.00210813
0.00212218
0.0020649
0.00211976
0.00205974
0.00207796
0.00209522
0.00208033
0.00209725
0.00211
0.00210857
0.00220823
0.00218964
0.00233186
0.00236053
0.00167779
0.00172197
0.00146611
0.00151895
0.00143338
0.00141344
0.00142581
0.0013762
0.00142551
0.00137187
0.00138826
0.0014033
0.0013906
0.00140365
0.00141584
0.00141384
0.00149823
0.00148381
0.00161233
0.00165864
0.000807935
0.000817554
0.00067374
0.000699994
0.000654355
0.000644116
0.000651021
0.000624084
0.000651598
0.000621796
0.000630912
0.000639151
0.000632374
0.000638752
0.000645908
0.000644632
0.000689421
0.000683172
0.00075578
0.000792381
0.00024682
0.000243348
0.000203024
0.000208797
0.000196603
0.00019334
0.000195596
0.000187642
0.00019581
0.000186977
0.000189691
0.000192126
0.000190209
0.000191944
0.000194126
0.000193811
0.000206321
0.000205113
0.000226282
0.000239393
)
;

boundaryField
{
    fuel
    {
        type            calculated;
        value           nonuniform 0();
    }
    wall
    {
        type            calculated;
        value           uniform 0;
    }
    outlet
    {
        type            calculated;
        value           uniform 0;
    }
    frontAndBack
    {
        type            empty;
    }
    procBoundary1to0
    {
        type            processor;
        value           uniform 0;
    }
}


// ************************************************************************* //
