/*--------------------------------*- C++ -*----------------------------------*\
| =========                 |                                                 |
| \\      /  F ield         | OpenFOAM: The Open Source CFD Toolbox           |
|  \\    /   O peration     | Version:  dev                                   |
|   \\  /    A nd           | Web:      www.OpenFOAM.org                      |
|    \\/     M anipulation  |                                                 |
\*---------------------------------------------------------------------------*/
FoamFile
{
    version     2.0;
    format      ascii;
    class       volScalarField;
    location    "0.07";
    object      H2O2;
}
// * * * * * * * * * * * * * * * * * * * * * * * * * * * * * * * * * * * * * //

dimensions      [0 0 0 0 0 0 0];

internalField   nonuniform List<scalar> 
250
(
9.0271e-12
4.29212e-12
5.29818e-12
4.55951e-12
4.76549e-12
4.50809e-12
4.59088e-12
4.48375e-12
4.53693e-12
4.50342e-12
6.57721e-12
3.11939e-12
3.80098e-12
3.23324e-12
3.38066e-12
3.18903e-12
3.25209e-12
3.17141e-12
3.21221e-12
3.18649e-12
3.13496e-12
3.28149e-12
3.0979e-12
3.37555e-12
3.10691e-12
3.54857e-12
3.26233e-12
3.7644e-12
3.73736e-12
5.82122e-12
4.779e-12
2.22236e-12
2.6628e-12
2.24667e-12
2.34857e-12
2.21081e-12
2.25715e-12
2.19841e-12
2.22868e-12
2.20958e-12
2.17208e-12
2.27914e-12
2.14498e-12
2.34666e-12
2.15117e-12
2.47122e-12
2.26507e-12
2.64031e-12
2.69945e-12
4.77485e-12
3.48312e-12
1.56021e-12
1.82876e-12
1.5363e-12
1.60544e-12
1.50761e-12
1.54066e-12
1.49907e-12
1.52093e-12
1.50711e-12
1.48056e-12
1.55671e-12
1.46125e-12
1.60385e-12
1.46533e-12
1.69226e-12
1.54768e-12
1.81877e-12
1.92692e-12
3.94864e-12
2.57496e-12
1.08595e-12
1.23556e-12
1.02901e-12
1.07568e-12
1.01398e-12
1.03705e-12
1.00822e-12
1.02369e-12
1.01388e-12
9.95462e-13
1.04853e-12
9.81961e-13
1.08075e-12
9.84539e-13
1.13683e-12
1.033e-12
1.23486e-12
1.37204e-12
3.34733e-12
1.96561e-12
7.54733e-13
8.22914e-13
6.8342e-13
7.14633e-13
6.72768e-13
6.88611e-13
6.68931e-13
6.79719e-13
6.72837e-13
6.60274e-13
6.96681e-13
6.5097e-13
7.18345e-13
6.52535e-13
7.56082e-13
6.84653e-13
8.28366e-13
9.87627e-13
2.96121e-12
1.59161e-12
5.30399e-13
5.40152e-13
4.47172e-13
4.67154e-13
4.39719e-13
4.50373e-13
4.37204e-13
4.44583e-13
4.39834e-13
4.31447e-13
4.55923e-13
4.25166e-13
4.70206e-13
4.26078e-13
4.95155e-13
4.47019e-13
5.49408e-13
7.35527e-13
2.84149e-12
1.4129e-12
3.91196e-13
3.53212e-13
2.93308e-13
3.04921e-13
2.88234e-13
2.94876e-13
2.86601e-13
2.91349e-13
2.88218e-13
2.8297e-13
2.9845e-13
2.7904e-13
3.07386e-13
2.7958e-13
3.23194e-13
2.92601e-13
3.65438e-13
5.92222e-13
3.03557e-12
1.3573e-12
3.27396e-13
2.50843e-13
2.15544e-13
2.20352e-13
2.11882e-13
2.15156e-13
2.10665e-13
2.13372e-13
2.11348e-13
2.08539e-13
2.17086e-13
2.06575e-13
2.22073e-13
2.07046e-13
2.31443e-13
2.14531e-13
2.66347e-13
5.33755e-13
3.44301e-12
1.21922e-12
3.07878e-13
2.20143e-13
1.98837e-13
1.99053e-13
1.9511e-13
1.96303e-13
1.93797e-13
1.95539e-13
1.93726e-13
1.92311e-13
1.97177e-13
1.91585e-13
1.99967e-13
1.92252e-13
2.06094e-13
1.97127e-13
2.36815e-13
4.87388e-13
3.36026e-12
9.19441e-13
2.88497e-13
2.16042e-13
2.01109e-13
1.99133e-13
1.96905e-13
1.97169e-13
1.95385e-13
1.96858e-13
1.94787e-13
1.94048e-13
1.97428e-13
1.93979e-13
1.99147e-13
1.94896e-13
2.03737e-13
1.98828e-13
2.28954e-13
4.025e-13
2.45159e-12
6.45199e-13
2.68054e-13
2.13828e-13
2.02662e-13
1.9976e-13
1.98304e-13
1.98074e-13
1.96689e-13
1.97998e-13
1.95717e-13
1.95416e-13
1.97892e-13
1.95775e-13
1.98887e-13
1.96877e-13
2.0223e-13
2.00272e-13
2.20889e-13
3.2103e-13
1.47569e-12
4.99244e-13
2.5667e-13
2.12508e-13
2.03238e-13
1.99989e-13
1.98877e-13
1.98392e-13
1.97232e-13
1.98431e-13
1.96035e-13
1.95987e-13
1.97954e-13
1.96586e-13
1.98521e-13
1.97788e-13
2.01017e-13
2.00895e-13
2.15187e-13
2.75003e-13
9.14969e-13
)
;

boundaryField
{
    fuel
    {
        type            fixedValue;
        value           nonuniform 0();
    }
    wall
    {
        type            zeroGradient;
    }
    outlet
    {
        type            zeroGradient;
    }
    frontAndBack
    {
        type            empty;
    }
    procBoundary1to0
    {
        type            processor;
        value           nonuniform List<scalar> 
21
(
1.24027e-11
5.76213e-12
7.19793e-12
6.27427e-12
6.55798e-12
6.22279e-12
6.32858e-12
6.19085e-12
6.25769e-12
6.21564e-12
4.43466e-12
4.43466e-12
4.6289e-12
4.38572e-12
4.75518e-12
4.39906e-12
4.98741e-12
4.60609e-12
5.24378e-12
5.08233e-12
7.0382e-12
)
;
    }
}


// ************************************************************************* //
