/*--------------------------------*- C++ -*----------------------------------*\
| =========                 |                                                 |
| \\      /  F ield         | OpenFOAM: The Open Source CFD Toolbox           |
|  \\    /   O peration     | Version:  dev                                   |
|   \\  /    A nd           | Web:      www.OpenFOAM.org                      |
|    \\/     M anipulation  |                                                 |
\*---------------------------------------------------------------------------*/
FoamFile
{
    version     2.0;
    format      ascii;
    class       volScalarField;
    location    "0.07";
    object      H2O2;
}
// * * * * * * * * * * * * * * * * * * * * * * * * * * * * * * * * * * * * * //

dimensions      [0 0 0 0 0 0 0];

internalField   nonuniform List<scalar> 
250
(
4.86885e-12
5.56463e-12
4.81139e-12
5.07257e-12
4.7236e-12
4.62377e-12
4.65494e-12
4.49048e-12
4.62557e-12
4.47635e-12
3.56856e-12
4.01811e-12
3.41854e-12
3.60838e-12
3.34759e-12
3.27615e-12
3.29995e-12
3.17773e-12
3.27977e-12
3.1671e-12
3.19885e-12
3.23363e-12
3.20286e-12
3.2487e-12
3.27222e-12
3.27422e-12
3.52364e-12
3.44212e-12
3.61178e-12
3.45155e-12
2.56319e-12
2.83101e-12
2.37603e-12
2.51077e-12
2.32266e-12
2.27299e-12
2.29073e-12
2.20264e-12
2.27733e-12
2.19491e-12
2.21825e-12
2.24359e-12
2.22115e-12
2.25375e-12
2.27057e-12
2.27153e-12
2.45145e-12
2.39694e-12
2.54959e-12
2.48181e-12
1.82512e-12
1.95641e-12
1.6221e-12
1.71574e-12
1.58383e-12
1.54999e-12
1.56285e-12
1.501e-12
1.55425e-12
1.49552e-12
1.51226e-12
1.53023e-12
1.51432e-12
1.53684e-12
1.54863e-12
1.54893e-12
1.67599e-12
1.63843e-12
1.76188e-12
1.74642e-12
1.314e-12
1.33534e-12
1.09162e-12
1.15024e-12
1.06452e-12
1.04193e-12
1.05106e-12
1.00849e-12
1.04572e-12
1.00467e-12
1.01646e-12
1.02894e-12
1.0179e-12
1.03311e-12
1.04125e-12
1.04118e-12
1.12324e-12
1.10284e-12
1.19662e-12
1.20985e-12
9.92611e-13
9.09286e-13
7.25995e-13
7.62866e-13
7.05804e-13
6.90969e-13
6.97358e-13
6.68475e-13
6.9414e-13
6.65844e-13
6.74041e-13
6.82573e-13
6.75052e-13
6.85121e-13
6.90711e-13
6.90472e-13
7.45334e-13
7.32132e-13
8.01138e-13
8.21628e-13
8.49107e-13
6.31335e-13
4.78535e-13
4.9875e-13
4.61301e-13
4.51719e-13
4.56108e-13
4.36844e-13
4.5424e-13
4.35061e-13
4.40665e-13
4.46398e-13
4.41371e-13
4.47896e-13
4.51696e-13
4.51415e-13
4.87443e-13
4.79327e-13
5.30423e-13
5.63966e-13
9.45216e-13
4.80135e-13
3.20868e-13
3.25628e-13
3.01977e-13
2.95941e-13
2.98836e-13
2.86578e-13
2.97768e-13
2.85413e-13
2.89042e-13
2.92727e-13
2.8953e-13
2.93583e-13
2.96045e-13
2.95836e-13
3.18439e-13
3.1464e-13
3.5604e-13
4.12826e-13
1.45128e-12
4.70477e-13
2.46383e-13
2.33323e-13
2.19553e-13
2.15601e-13
2.17456e-13
2.10222e-13
2.16719e-13
2.09463e-13
2.11561e-13
2.13848e-13
2.11946e-13
2.14401e-13
2.15822e-13
2.15868e-13
2.28954e-13
2.3042e-13
2.77494e-13
4.01526e-13
2.22094e-12
5.63341e-13
2.36247e-13
2.08046e-13
1.99444e-13
1.95959e-13
1.97466e-13
1.92477e-13
1.96742e-13
1.91837e-13
1.93135e-13
1.95017e-13
1.93626e-13
1.95485e-13
1.96408e-13
1.96862e-13
2.05502e-13
2.13427e-13
2.89079e-13
5.53341e-13
2.49941e-12
5.94462e-13
2.37859e-13
2.05784e-13
1.99608e-13
1.96005e-13
1.9749e-13
1.93183e-13
1.96736e-13
1.92522e-13
1.93451e-13
1.95505e-13
1.94145e-13
1.95922e-13
1.96685e-13
1.97508e-13
2.04617e-13
2.17166e-13
3.20569e-13
7.16221e-13
2.22678e-12
5.36839e-13
2.32154e-13
2.03945e-13
1.99647e-13
1.96086e-13
1.97486e-13
1.93721e-13
1.96731e-13
1.93037e-13
1.93638e-13
1.95904e-13
1.94503e-13
1.96265e-13
1.96885e-13
1.97968e-13
2.03906e-13
2.18202e-13
3.31512e-13
7.86135e-13
1.90555e-12
4.74524e-13
2.26086e-13
2.0229e-13
1.99216e-13
1.95776e-13
1.97065e-13
1.93725e-13
1.96323e-13
1.9303e-13
1.93376e-13
1.95797e-13
1.94353e-13
1.96114e-13
1.96613e-13
1.97849e-13
2.02948e-13
2.17632e-13
3.32607e-13
8.09564e-13
)
;

boundaryField
{
    fuel
    {
        type            fixedValue;
        value           nonuniform 0();
    }
    wall
    {
        type            zeroGradient;
    }
    outlet
    {
        type            zeroGradient;
    }
    frontAndBack
    {
        type            empty;
    }
    procBoundary1to0
    {
        type            processor;
        value           nonuniform List<scalar> 
21
(
6.4661e-12
7.49171e-12
6.60167e-12
6.95295e-12
6.50271e-12
6.36924e-12
6.40801e-12
6.19502e-12
6.36717e-12
6.17679e-12
4.51814e-12
4.51814e-12
4.56436e-12
4.52353e-12
4.58583e-12
4.61768e-12
4.62129e-12
4.95515e-12
4.83412e-12
4.98526e-12
4.68402e-12
)
;
    }
}


// ************************************************************************* //
