/*--------------------------------*- C++ -*----------------------------------*\
| =========                 |                                                 |
| \\      /  F ield         | OpenFOAM: The Open Source CFD Toolbox           |
|  \\    /   O peration     | Version:  dev                                   |
|   \\  /    A nd           | Web:      www.OpenFOAM.org                      |
|    \\/     M anipulation  |                                                 |
\*---------------------------------------------------------------------------*/
FoamFile
{
    version     2.0;
    format      ascii;
    class       volScalarField;
    location    "0.07";
    object      HCCO;
}
// * * * * * * * * * * * * * * * * * * * * * * * * * * * * * * * * * * * * * //

dimensions      [0 0 0 0 0 0 0];

internalField   nonuniform List<scalar> 
250
(
9.63961e-08
1.01727e-07
8.57532e-08
8.78326e-08
8.21239e-08
8.04641e-08
8.08821e-08
7.84486e-08
8.04592e-08
7.82536e-08
7.25322e-08
7.60416e-08
6.33224e-08
6.50082e-08
6.05804e-08
5.93398e-08
5.96834e-08
5.77774e-08
5.93815e-08
5.76223e-08
5.81202e-08
5.8657e-08
5.81762e-08
5.88879e-08
5.92893e-08
5.94496e-08
6.36993e-08
6.35671e-08
6.89565e-08
6.72645e-08
5.28876e-08
5.51136e-08
4.53993e-08
4.67215e-08
4.34062e-08
4.25102e-08
4.27822e-08
4.1341e-08
4.25768e-08
4.12222e-08
4.16078e-08
4.202e-08
4.16521e-08
4.21802e-08
4.24824e-08
4.25885e-08
4.57767e-08
4.56746e-08
5.01069e-08
4.98356e-08
3.73199e-08
3.86577e-08
3.15488e-08
3.25513e-08
3.01606e-08
2.95341e-08
2.97404e-08
2.86912e-08
2.96081e-08
2.86037e-08
2.88913e-08
2.91959e-08
2.89252e-08
2.93012e-08
2.95215e-08
2.95882e-08
3.19026e-08
3.18042e-08
3.5221e-08
3.56425e-08
2.54392e-08
2.61828e-08
2.12051e-08
2.1854e-08
2.02795e-08
1.98595e-08
2.00093e-08
1.92754e-08
1.99292e-08
1.92134e-08
1.94197e-08
1.96358e-08
1.94447e-08
1.97008e-08
1.98563e-08
1.98953e-08
2.14096e-08
2.1414e-08
2.38967e-08
2.45743e-08
1.67004e-08
1.70674e-08
1.37401e-08
1.41832e-08
1.31487e-08
1.28795e-08
1.29834e-08
1.24907e-08
1.29383e-08
1.24486e-08
1.25906e-08
1.27378e-08
1.26084e-08
1.27751e-08
1.28811e-08
1.29022e-08
1.3901e-08
1.3896e-08
1.55966e-08
1.61127e-08
1.04895e-08
1.06347e-08
8.51487e-09
8.80466e-09
8.15426e-09
7.99005e-09
8.0587e-09
7.74197e-09
8.03573e-09
7.71447e-09
7.80817e-09
7.9042e-09
7.82052e-09
7.92375e-09
7.99355e-09
8.00349e-09
8.63277e-09
8.62282e-09
9.72142e-09
1.01474e-08
6.20768e-09
6.23366e-09
4.95459e-09
5.1354e-09
4.74726e-09
4.6531e-09
4.69589e-09
4.50261e-09
4.68582e-09
4.48558e-09
4.54433e-09
4.60376e-09
4.55247e-09
4.61268e-09
4.65668e-09
4.66021e-09
5.03551e-09
5.02413e-09
5.68902e-09
5.9938e-09
3.35782e-09
3.32557e-09
2.61289e-09
2.71743e-09
2.50398e-09
2.45498e-09
2.4793e-09
2.37095e-09
2.47604e-09
2.36128e-09
2.39515e-09
2.42887e-09
2.40006e-09
2.43205e-09
2.45773e-09
2.45807e-09
2.66348e-09
2.65356e-09
3.02005e-09
3.21072e-09
1.60291e-09
1.54164e-09
1.19445e-09
1.24612e-09
1.14463e-09
1.12284e-09
1.13465e-09
1.08233e-09
1.13425e-09
1.07761e-09
1.09442e-09
1.11086e-09
1.09696e-09
1.1115e-09
1.1245e-09
1.12385e-09
1.22072e-09
1.21441e-09
1.38777e-09
1.48901e-09
6.71695e-10
5.8689e-10
4.40959e-10
4.60366e-10
4.20949e-10
4.13044e-10
4.17721e-10
3.97094e-10
4.18058e-10
3.95226e-10
4.02047e-10
4.08579e-10
4.03131e-10
4.08452e-10
4.13877e-10
4.13341e-10
4.50615e-10
4.48218e-10
5.16672e-10
5.65717e-10
2.88575e-10
1.66166e-10
1.10972e-10
1.14053e-10
1.04094e-10
1.02199e-10
1.03394e-10
9.81573e-11
1.03588e-10
9.76785e-11
9.94481e-11
1.01128e-10
9.97522e-11
1.01011e-10
1.02462e-10
1.02293e-10
1.11589e-10
1.11572e-10
1.32158e-10
1.59087e-10
3.35117e-10
7.63092e-11
2.5497e-11
2.22234e-11
2.04721e-11
2.01052e-11
2.03263e-11
1.94449e-11
2.03563e-11
1.93629e-11
1.96574e-11
1.99513e-11
1.97213e-11
1.99294e-11
2.01759e-11
2.01716e-11
2.17582e-11
2.30016e-11
3.53024e-11
7.67414e-11
)
;

boundaryField
{
    fuel
    {
        type            fixedValue;
        value           nonuniform 0();
    }
    wall
    {
        type            zeroGradient;
    }
    outlet
    {
        type            zeroGradient;
    }
    frontAndBack
    {
        type            empty;
    }
    procBoundary1to0
    {
        type            processor;
        value           nonuniform List<scalar> 
21
(
1.24282e-07
1.32175e-07
1.1293e-07
1.15426e-07
1.08302e-07
1.06157e-07
1.06648e-07
1.03642e-07
1.0608e-07
1.03405e-07
7.88742e-08
7.88742e-08
7.95485e-08
7.89425e-08
7.98653e-08
8.03827e-08
8.06143e-08
8.60871e-08
8.58903e-08
9.1965e-08
8.77621e-08
)
;
    }
}


// ************************************************************************* //
