/*--------------------------------*- C++ -*----------------------------------*\
| =========                 |                                                 |
| \\      /  F ield         | OpenFOAM: The Open Source CFD Toolbox           |
|  \\    /   O peration     | Version:  dev                                   |
|   \\  /    A nd           | Web:      www.OpenFOAM.org                      |
|    \\/     M anipulation  |                                                 |
\*---------------------------------------------------------------------------*/
FoamFile
{
    version     2.0;
    format      ascii;
    class       volScalarField;
    location    "0.04";
    object      A1C2H3*;
}
// * * * * * * * * * * * * * * * * * * * * * * * * * * * * * * * * * * * * * //

dimensions      [0 0 0 0 0 0 0];

internalField   nonuniform List<scalar> 
25
(
1.182e-17
1.43529e-17
1.73534e-17
2.08805e-17
2.508e-17
2.99864e-17
3.57072e-17
4.24214e-17
5.0425e-17
6.02361e-17
7.27782e-17
8.92845e-17
1.12709e-16
1.47932e-16
2.02632e-16
2.85818e-16
4.14886e-16
6.1253e-16
9.09272e-16
1.34388e-15
1.97643e-15
2.84115e-15
4.0135e-15
5.58307e-15
7.59117e-15
)
;

boundaryField
{
    wall
    {
        type            zeroGradient;
    }
    fuel
    {
        type            fixedValue;
        value           nonuniform 0();
    }
    outlet
    {
        type            inletOutlet;
        inletValue      nonuniform 0();
        value           nonuniform 0();
    }
    procBoundary1to0
    {
        type            processor;
        value           uniform 9.69525e-18;
    }
    procBoundary1to2
    {
        type            processor;
        value           uniform 1.01284e-14;
    }
}


// ************************************************************************* //
