/*--------------------------------*- C++ -*----------------------------------*\
| =========                 |                                                 |
| \\      /  F ield         | OpenFOAM: The Open Source CFD Toolbox           |
|  \\    /   O peration     | Version:  dev                                   |
|   \\  /    A nd           | Web:      www.OpenFOAM.org                      |
|    \\/     M anipulation  |                                                 |
\*---------------------------------------------------------------------------*/
FoamFile
{
    version     2.0;
    format      ascii;
    class       volScalarField;
    location    "0.04";
    object      A1C2H3*;
}
// * * * * * * * * * * * * * * * * * * * * * * * * * * * * * * * * * * * * * //

dimensions      [0 0 0 0 0 0 0];

internalField   nonuniform List<scalar> 
2000
(
1.35798e-08
1.35781e-08
1.35819e-08
1.35816e-08
1.35809e-08
1.35809e-08
1.35805e-08
1.35807e-08
1.35804e-08
1.35806e-08
1.35805e-08
1.35806e-08
1.35805e-08
1.35806e-08
1.35805e-08
1.35805e-08
1.35805e-08
1.35805e-08
1.35805e-08
1.35805e-08
1.35805e-08
1.35805e-08
1.35805e-08
1.35805e-08
1.35805e-08
1.35805e-08
1.35805e-08
1.35805e-08
1.35805e-08
1.35805e-08
1.35805e-08
1.35805e-08
1.35805e-08
1.35805e-08
1.35806e-08
1.35805e-08
1.35806e-08
1.35805e-08
1.35806e-08
1.35805e-08
1.35806e-08
1.35804e-08
1.35807e-08
1.35805e-08
1.35809e-08
1.35809e-08
1.35816e-08
1.35819e-08
1.35781e-08
1.35798e-08
3.31351e-08
3.31169e-08
3.31057e-08
3.30956e-08
3.30921e-08
3.30903e-08
3.30899e-08
3.30896e-08
3.30896e-08
3.30895e-08
3.30896e-08
3.30896e-08
3.30896e-08
3.30896e-08
3.30897e-08
3.30896e-08
3.30897e-08
3.30896e-08
3.30897e-08
3.30897e-08
3.30897e-08
3.30897e-08
3.30897e-08
3.30897e-08
3.30897e-08
3.30897e-08
3.30897e-08
3.30897e-08
3.30897e-08
3.30897e-08
3.30897e-08
3.30897e-08
3.30897e-08
3.30897e-08
3.30896e-08
3.30897e-08
3.30896e-08
3.30896e-08
3.30896e-08
3.30896e-08
3.30895e-08
3.30896e-08
3.30896e-08
3.30899e-08
3.30903e-08
3.30921e-08
3.30956e-08
3.31057e-08
3.31169e-08
3.31351e-08
2.83521e-08
2.83235e-08
2.82975e-08
2.82808e-08
2.82755e-08
2.82729e-08
2.82725e-08
2.8272e-08
2.82721e-08
2.8272e-08
2.82721e-08
2.8272e-08
2.82722e-08
2.82721e-08
2.82722e-08
2.82722e-08
2.82722e-08
2.82722e-08
2.82722e-08
2.82722e-08
2.82722e-08
2.82722e-08
2.82722e-08
2.82722e-08
2.82722e-08
2.82722e-08
2.82722e-08
2.82722e-08
2.82722e-08
2.82722e-08
2.82722e-08
2.82722e-08
2.82722e-08
2.82722e-08
2.82722e-08
2.82722e-08
2.82721e-08
2.82722e-08
2.8272e-08
2.82721e-08
2.8272e-08
2.82721e-08
2.8272e-08
2.82725e-08
2.82729e-08
2.82755e-08
2.82809e-08
2.82975e-08
2.83235e-08
2.83521e-08
1.83218e-08
1.82977e-08
1.8275e-08
1.82604e-08
1.82555e-08
1.82534e-08
1.82529e-08
1.82527e-08
1.82527e-08
1.82526e-08
1.82527e-08
1.82527e-08
1.82528e-08
1.82528e-08
1.82528e-08
1.82528e-08
1.82528e-08
1.82528e-08
1.82528e-08
1.82528e-08
1.82528e-08
1.82528e-08
1.82528e-08
1.82528e-08
1.82528e-08
1.82528e-08
1.82528e-08
1.82528e-08
1.82528e-08
1.82528e-08
1.82528e-08
1.82528e-08
1.82528e-08
1.82528e-08
1.82528e-08
1.82528e-08
1.82528e-08
1.82528e-08
1.82527e-08
1.82527e-08
1.82526e-08
1.82527e-08
1.82527e-08
1.82529e-08
1.82534e-08
1.82555e-08
1.82604e-08
1.8275e-08
1.82977e-08
1.83218e-08
1.08383e-08
1.08234e-08
1.08103e-08
1.0801e-08
1.07974e-08
1.07962e-08
1.07957e-08
1.07957e-08
1.07955e-08
1.07956e-08
1.07956e-08
1.07956e-08
1.07956e-08
1.07957e-08
1.07956e-08
1.07957e-08
1.07957e-08
1.07957e-08
1.07956e-08
1.07957e-08
1.07957e-08
1.07957e-08
1.07957e-08
1.07957e-08
1.07957e-08
1.07957e-08
1.07957e-08
1.07957e-08
1.07957e-08
1.07957e-08
1.07957e-08
1.07956e-08
1.07957e-08
1.07957e-08
1.07957e-08
1.07956e-08
1.07957e-08
1.07956e-08
1.07956e-08
1.07956e-08
1.07956e-08
1.07955e-08
1.07957e-08
1.07957e-08
1.07962e-08
1.07974e-08
1.0801e-08
1.08103e-08
1.08234e-08
1.08383e-08
6.36282e-09
6.35471e-09
6.34889e-09
6.34355e-09
6.34116e-09
6.34062e-09
6.34008e-09
6.34021e-09
6.34e-09
6.34016e-09
6.34004e-09
6.34015e-09
6.34008e-09
6.34016e-09
6.34011e-09
6.34016e-09
6.34012e-09
6.34014e-09
6.34012e-09
6.34014e-09
6.34013e-09
6.34014e-09
6.34013e-09
6.34014e-09
6.34014e-09
6.34014e-09
6.34014e-09
6.34013e-09
6.34014e-09
6.34013e-09
6.34014e-09
6.34012e-09
6.34014e-09
6.34012e-09
6.34016e-09
6.34011e-09
6.34016e-09
6.34008e-09
6.34015e-09
6.34004e-09
6.34016e-09
6.34e-09
6.34021e-09
6.34008e-09
6.34062e-09
6.34116e-09
6.34355e-09
6.34889e-09
6.35472e-09
6.36282e-09
3.839e-09
3.83491e-09
3.83312e-09
3.83022e-09
3.82863e-09
3.82844e-09
3.82796e-09
3.82815e-09
3.82792e-09
3.8281e-09
3.82796e-09
3.82808e-09
3.82799e-09
3.82807e-09
3.82802e-09
3.82807e-09
3.82803e-09
3.82806e-09
3.82803e-09
3.82805e-09
3.82804e-09
3.82805e-09
3.82804e-09
3.82805e-09
3.82805e-09
3.82805e-09
3.82805e-09
3.82804e-09
3.82805e-09
3.82804e-09
3.82805e-09
3.82803e-09
3.82806e-09
3.82803e-09
3.82807e-09
3.82802e-09
3.82808e-09
3.828e-09
3.82808e-09
3.82796e-09
3.8281e-09
3.82792e-09
3.82816e-09
3.82796e-09
3.82844e-09
3.82863e-09
3.83022e-09
3.83312e-09
3.83491e-09
3.839e-09
2.40967e-09
2.40776e-09
2.40795e-09
2.40643e-09
2.40537e-09
2.40535e-09
2.40495e-09
2.40514e-09
2.40493e-09
2.40509e-09
2.40496e-09
2.40507e-09
2.40499e-09
2.40506e-09
2.405e-09
2.40505e-09
2.40501e-09
2.40504e-09
2.40502e-09
2.40504e-09
2.40502e-09
2.40504e-09
2.40503e-09
2.40503e-09
2.40503e-09
2.40503e-09
2.40503e-09
2.40503e-09
2.40504e-09
2.40502e-09
2.40504e-09
2.40502e-09
2.40505e-09
2.40501e-09
2.40505e-09
2.405e-09
2.40506e-09
2.40499e-09
2.40507e-09
2.40496e-09
2.40509e-09
2.40493e-09
2.40514e-09
2.40495e-09
2.40535e-09
2.40537e-09
2.40643e-09
2.40795e-09
2.40776e-09
2.40967e-09
1.58361e-09
1.58286e-09
1.58394e-09
1.58319e-09
1.58246e-09
1.58252e-09
1.58219e-09
1.58237e-09
1.58217e-09
1.58232e-09
1.5822e-09
1.5823e-09
1.58222e-09
1.58229e-09
1.58224e-09
1.58228e-09
1.58224e-09
1.58227e-09
1.58225e-09
1.58227e-09
1.58225e-09
1.58226e-09
1.58226e-09
1.58226e-09
1.58226e-09
1.58226e-09
1.58226e-09
1.58226e-09
1.58226e-09
1.58225e-09
1.58227e-09
1.58225e-09
1.58227e-09
1.58224e-09
1.58228e-09
1.58224e-09
1.58229e-09
1.58222e-09
1.5823e-09
1.5822e-09
1.58232e-09
1.58217e-09
1.58237e-09
1.58219e-09
1.58252e-09
1.58246e-09
1.58319e-09
1.58394e-09
1.58286e-09
1.58361e-09
1.0885e-09
1.08836e-09
1.08977e-09
1.08944e-09
1.08893e-09
1.08902e-09
1.08875e-09
1.0889e-09
1.08873e-09
1.08886e-09
1.08876e-09
1.08884e-09
1.08878e-09
1.08883e-09
1.08879e-09
1.08883e-09
1.08879e-09
1.08882e-09
1.0888e-09
1.08881e-09
1.0888e-09
1.08881e-09
1.0888e-09
1.08881e-09
1.08881e-09
1.08881e-09
1.08881e-09
1.0888e-09
1.08881e-09
1.0888e-09
1.08881e-09
1.0888e-09
1.08882e-09
1.08879e-09
1.08883e-09
1.08879e-09
1.08883e-09
1.08878e-09
1.08884e-09
1.08876e-09
1.08886e-09
1.08873e-09
1.0889e-09
1.08875e-09
1.08902e-09
1.08893e-09
1.08944e-09
1.08977e-09
1.08836e-09
1.0885e-09
7.83183e-10
7.83373e-10
7.8488e-10
7.84801e-10
7.84433e-10
7.84533e-10
7.843e-10
7.84437e-10
7.84291e-10
7.844e-10
7.84308e-10
7.84384e-10
7.84324e-10
7.84373e-10
7.84334e-10
7.84367e-10
7.84338e-10
7.84362e-10
7.84344e-10
7.84358e-10
7.84347e-10
7.84356e-10
7.84349e-10
7.84353e-10
7.84352e-10
7.84352e-10
7.84353e-10
7.84349e-10
7.84356e-10
7.84347e-10
7.84358e-10
7.84344e-10
7.84362e-10
7.84338e-10
7.84367e-10
7.84334e-10
7.84373e-10
7.84325e-10
7.84384e-10
7.84309e-10
7.84401e-10
7.84291e-10
7.84437e-10
7.843e-10
7.84533e-10
7.84433e-10
7.84802e-10
7.8488e-10
7.83373e-10
7.83183e-10
5.80929e-10
5.81235e-10
5.8257e-10
5.82591e-10
5.8232e-10
5.82407e-10
5.82218e-10
5.82329e-10
5.8221e-10
5.82298e-10
5.82223e-10
5.82285e-10
5.82236e-10
5.82275e-10
5.82243e-10
5.8227e-10
5.82247e-10
5.82266e-10
5.82252e-10
5.82263e-10
5.82254e-10
5.82261e-10
5.82256e-10
5.82259e-10
5.82258e-10
5.82258e-10
5.82259e-10
5.82256e-10
5.82261e-10
5.82254e-10
5.82263e-10
5.82252e-10
5.82267e-10
5.82247e-10
5.82271e-10
5.82243e-10
5.82275e-10
5.82236e-10
5.82285e-10
5.82224e-10
5.82299e-10
5.8221e-10
5.82329e-10
5.82219e-10
5.82407e-10
5.8232e-10
5.82591e-10
5.8257e-10
5.81235e-10
5.80929e-10
4.51176e-10
4.5163e-10
4.52941e-10
4.53056e-10
4.52844e-10
4.52933e-10
4.52766e-10
4.52866e-10
4.52758e-10
4.52837e-10
4.52769e-10
4.52825e-10
4.5278e-10
4.52816e-10
4.52787e-10
4.52811e-10
4.5279e-10
4.52808e-10
4.52794e-10
4.52805e-10
4.52797e-10
4.52803e-10
4.52798e-10
4.52801e-10
4.528e-10
4.528e-10
4.52801e-10
4.52798e-10
4.52803e-10
4.52797e-10
4.52805e-10
4.52794e-10
4.52808e-10
4.5279e-10
4.52812e-10
4.52787e-10
4.52816e-10
4.52781e-10
4.52825e-10
4.5277e-10
4.52838e-10
4.52758e-10
4.52866e-10
4.52766e-10
4.52933e-10
4.52844e-10
4.53056e-10
4.52941e-10
4.5163e-10
4.51176e-10
3.60847e-10
3.61034e-10
3.61983e-10
3.62063e-10
3.61944e-10
3.62001e-10
3.61889e-10
3.61954e-10
3.61881e-10
3.61934e-10
3.61888e-10
3.61924e-10
3.61895e-10
3.61918e-10
3.61899e-10
3.61915e-10
3.61901e-10
3.61912e-10
3.61903e-10
3.6191e-10
3.61905e-10
3.61909e-10
3.61906e-10
3.61908e-10
3.61907e-10
3.61907e-10
3.61908e-10
3.61906e-10
3.61909e-10
3.61905e-10
3.61911e-10
3.61904e-10
3.61913e-10
3.61901e-10
3.61915e-10
3.61899e-10
3.61918e-10
3.61895e-10
3.61924e-10
3.61888e-10
3.61934e-10
3.61881e-10
3.61955e-10
3.61889e-10
3.62001e-10
3.61944e-10
3.62064e-10
3.61983e-10
3.61034e-10
3.60847e-10
2.93866e-10
2.94093e-10
2.9493e-10
2.95029e-10
2.94938e-10
2.94987e-10
2.94892e-10
2.94948e-10
2.94885e-10
2.94929e-10
2.9489e-10
2.94921e-10
2.94896e-10
2.94916e-10
2.94899e-10
2.94913e-10
2.94901e-10
2.94911e-10
2.94903e-10
2.94909e-10
2.94905e-10
2.94908e-10
2.94905e-10
2.94907e-10
2.94906e-10
2.94906e-10
2.94907e-10
2.94905e-10
2.94908e-10
2.94905e-10
2.94909e-10
2.94903e-10
2.94911e-10
2.94901e-10
2.94913e-10
2.94899e-10
2.94916e-10
2.94896e-10
2.94921e-10
2.9489e-10
2.94929e-10
2.94885e-10
2.94948e-10
2.94893e-10
2.94987e-10
2.94938e-10
2.95029e-10
2.9493e-10
2.94093e-10
2.93866e-10
2.45857e-10
2.4613e-10
2.46909e-10
2.47029e-10
2.46959e-10
2.47007e-10
2.46922e-10
2.46971e-10
2.46914e-10
2.46954e-10
2.46919e-10
2.46947e-10
2.46924e-10
2.46942e-10
2.46927e-10
2.46939e-10
2.46928e-10
2.46938e-10
2.46931e-10
2.46936e-10
2.46932e-10
2.46935e-10
2.46932e-10
2.46934e-10
2.46933e-10
2.46933e-10
2.46934e-10
2.46932e-10
2.46935e-10
2.46932e-10
2.46936e-10
2.46931e-10
2.46938e-10
2.46928e-10
2.46939e-10
2.46927e-10
2.46942e-10
2.46924e-10
2.46947e-10
2.46919e-10
2.46954e-10
2.46914e-10
2.46971e-10
2.46922e-10
2.47007e-10
2.46959e-10
2.47029e-10
2.46909e-10
2.4613e-10
2.45857e-10
2.07862e-10
2.08222e-10
2.09006e-10
2.09181e-10
2.09143e-10
2.09197e-10
2.0912e-10
2.09166e-10
2.09112e-10
2.09148e-10
2.09115e-10
2.09141e-10
2.09119e-10
2.09135e-10
2.09121e-10
2.09133e-10
2.09122e-10
2.09131e-10
2.09124e-10
2.09129e-10
2.09125e-10
2.09128e-10
2.09126e-10
2.09127e-10
2.09127e-10
2.09127e-10
2.09127e-10
2.09126e-10
2.09128e-10
2.09125e-10
2.09129e-10
2.09124e-10
2.09131e-10
2.09122e-10
2.09133e-10
2.09121e-10
2.09135e-10
2.09119e-10
2.0914e-10
2.09115e-10
2.09148e-10
2.09112e-10
2.09166e-10
2.0912e-10
2.09197e-10
2.09143e-10
2.09182e-10
2.09006e-10
2.08222e-10
2.07862e-10
1.79047e-10
1.79428e-10
1.80152e-10
1.80332e-10
1.80308e-10
1.80358e-10
1.80289e-10
1.8033e-10
1.80282e-10
1.80314e-10
1.80284e-10
1.80307e-10
1.80287e-10
1.80302e-10
1.80289e-10
1.80299e-10
1.8029e-10
1.80298e-10
1.80292e-10
1.80296e-10
1.80293e-10
1.80295e-10
1.80293e-10
1.80295e-10
1.80294e-10
1.80294e-10
1.80295e-10
1.80293e-10
1.80296e-10
1.80293e-10
1.80297e-10
1.80292e-10
1.80298e-10
1.8029e-10
1.803e-10
1.80289e-10
1.80302e-10
1.80287e-10
1.80307e-10
1.80284e-10
1.80314e-10
1.80282e-10
1.8033e-10
1.8029e-10
1.80358e-10
1.80308e-10
1.80332e-10
1.80152e-10
1.79428e-10
1.79047e-10
1.55142e-10
1.5559e-10
1.56322e-10
1.56534e-10
1.56516e-10
1.5657e-10
1.56502e-10
1.56543e-10
1.56494e-10
1.56527e-10
1.56497e-10
1.5652e-10
1.565e-10
1.56515e-10
1.56502e-10
1.56512e-10
1.56503e-10
1.56511e-10
1.56505e-10
1.56509e-10
1.56506e-10
1.56508e-10
1.56506e-10
1.56507e-10
1.56507e-10
1.56507e-10
1.56507e-10
1.56506e-10
1.56508e-10
1.56506e-10
1.56509e-10
1.56505e-10
1.56511e-10
1.56503e-10
1.56512e-10
1.56502e-10
1.56515e-10
1.565e-10
1.5652e-10
1.56497e-10
1.56527e-10
1.56494e-10
1.56543e-10
1.56502e-10
1.5657e-10
1.56516e-10
1.56534e-10
1.56322e-10
1.5559e-10
1.55142e-10
1.35659e-10
1.36114e-10
1.36774e-10
1.36977e-10
1.36967e-10
1.37016e-10
1.36955e-10
1.36991e-10
1.36948e-10
1.36977e-10
1.3695e-10
1.3697e-10
1.36953e-10
1.36965e-10
1.36954e-10
1.36963e-10
1.36955e-10
1.36962e-10
1.36957e-10
1.36961e-10
1.36957e-10
1.3696e-10
1.36958e-10
1.36959e-10
1.36958e-10
1.36958e-10
1.36959e-10
1.36958e-10
1.3696e-10
1.36957e-10
1.36961e-10
1.36957e-10
1.36962e-10
1.36955e-10
1.36963e-10
1.36954e-10
1.36966e-10
1.36953e-10
1.3697e-10
1.3695e-10
1.36977e-10
1.36948e-10
1.36992e-10
1.36956e-10
1.37016e-10
1.36967e-10
1.36977e-10
1.36774e-10
1.36114e-10
1.35659e-10
1.20154e-10
1.2063e-10
1.21243e-10
1.21443e-10
1.2144e-10
1.21486e-10
1.21431e-10
1.21463e-10
1.21423e-10
1.21449e-10
1.21425e-10
1.21443e-10
1.21427e-10
1.21439e-10
1.21429e-10
1.21437e-10
1.21429e-10
1.21436e-10
1.21431e-10
1.21434e-10
1.21431e-10
1.21434e-10
1.21432e-10
1.21433e-10
1.21432e-10
1.21432e-10
1.21433e-10
1.21432e-10
1.21434e-10
1.21432e-10
1.21435e-10
1.21431e-10
1.21436e-10
1.21429e-10
1.21437e-10
1.21429e-10
1.21439e-10
1.21427e-10
1.21443e-10
1.21425e-10
1.21449e-10
1.21423e-10
1.21463e-10
1.21431e-10
1.21486e-10
1.2144e-10
1.21443e-10
1.21243e-10
1.2063e-10
1.20154e-10
1.0721e-10
1.07711e-10
1.08283e-10
1.0848e-10
1.08481e-10
1.08525e-10
1.08474e-10
1.08504e-10
1.08467e-10
1.08491e-10
1.08468e-10
1.08485e-10
1.0847e-10
1.08481e-10
1.08471e-10
1.08479e-10
1.08472e-10
1.08478e-10
1.08473e-10
1.08477e-10
1.08474e-10
1.08476e-10
1.08474e-10
1.08475e-10
1.08475e-10
1.08475e-10
1.08475e-10
1.08474e-10
1.08476e-10
1.08474e-10
1.08477e-10
1.08473e-10
1.08478e-10
1.08472e-10
1.08479e-10
1.08471e-10
1.08481e-10
1.0847e-10
1.08485e-10
1.08468e-10
1.08491e-10
1.08467e-10
1.08504e-10
1.08474e-10
1.08525e-10
1.08481e-10
1.0848e-10
1.08283e-10
1.07711e-10
1.0721e-10
9.62998e-11
9.65304e-11
9.70232e-11
9.72049e-11
9.72181e-11
9.72589e-11
9.72162e-11
9.72411e-11
9.72089e-11
9.72283e-11
9.72087e-11
9.72223e-11
9.72096e-11
9.72184e-11
9.72101e-11
9.72165e-11
9.72104e-11
9.72153e-11
9.72115e-11
9.72144e-11
9.7212e-11
9.72136e-11
9.72122e-11
9.72131e-11
9.72127e-11
9.72127e-11
9.72131e-11
9.72122e-11
9.72137e-11
9.7212e-11
9.72144e-11
9.72115e-11
9.72154e-11
9.72105e-11
9.72166e-11
9.72102e-11
9.72185e-11
9.72097e-11
9.72223e-11
9.72089e-11
9.72283e-11
9.7209e-11
9.72412e-11
9.72162e-11
9.72589e-11
9.72181e-11
9.7205e-11
9.70232e-11
9.65304e-11
9.62998e-11
8.70292e-11
8.72753e-11
8.77327e-11
8.79089e-11
8.79252e-11
8.7964e-11
8.79247e-11
8.79475e-11
8.79177e-11
8.79353e-11
8.79172e-11
8.79296e-11
8.79179e-11
8.79259e-11
8.79183e-11
8.79241e-11
8.79185e-11
8.7923e-11
8.79195e-11
8.79221e-11
8.79199e-11
8.79214e-11
8.79201e-11
8.79209e-11
8.79206e-11
8.79206e-11
8.79209e-11
8.79201e-11
8.79215e-11
8.79199e-11
8.79222e-11
8.79195e-11
8.79231e-11
8.79186e-11
8.79242e-11
8.79184e-11
8.7926e-11
8.7918e-11
8.79296e-11
8.79174e-11
8.79354e-11
8.79177e-11
8.79476e-11
8.79248e-11
8.7964e-11
8.79252e-11
8.7909e-11
8.77327e-11
8.72753e-11
8.70292e-11
7.87983e-11
7.9057e-11
7.94963e-11
7.96766e-11
7.96983e-11
7.9737e-11
7.97001e-11
7.97213e-11
7.9693e-11
7.97091e-11
7.9692e-11
7.97034e-11
7.96923e-11
7.96997e-11
7.96925e-11
7.96979e-11
7.96926e-11
7.96968e-11
7.96934e-11
7.96959e-11
7.96938e-11
7.96953e-11
7.9694e-11
7.96948e-11
7.96944e-11
7.96944e-11
7.96948e-11
7.9694e-11
7.96953e-11
7.96939e-11
7.9696e-11
7.96935e-11
7.96969e-11
7.96926e-11
7.9698e-11
7.96925e-11
7.96998e-11
7.96924e-11
7.97035e-11
7.96922e-11
7.97092e-11
7.9693e-11
7.97214e-11
7.97002e-11
7.9737e-11
7.96983e-11
7.96767e-11
7.94964e-11
7.90571e-11
7.87983e-11
7.16992e-11
7.19583e-11
7.23619e-11
7.25336e-11
7.25569e-11
7.25931e-11
7.25595e-11
7.25786e-11
7.25525e-11
7.2567e-11
7.25514e-11
7.25616e-11
7.25514e-11
7.25581e-11
7.25515e-11
7.25564e-11
7.25515e-11
7.25554e-11
7.25523e-11
7.25546e-11
7.25526e-11
7.25539e-11
7.25528e-11
7.25535e-11
7.25532e-11
7.25532e-11
7.25535e-11
7.25528e-11
7.2554e-11
7.25527e-11
7.25546e-11
7.25523e-11
7.25554e-11
7.25516e-11
7.25565e-11
7.25516e-11
7.25582e-11
7.25515e-11
7.25616e-11
7.25515e-11
7.25671e-11
7.25526e-11
7.25786e-11
7.25596e-11
7.25931e-11
7.25569e-11
7.25336e-11
7.2362e-11
7.19584e-11
7.16993e-11
6.55389e-11
6.5797e-11
6.61684e-11
6.63315e-11
6.6356e-11
6.639e-11
6.63593e-11
6.63764e-11
6.63525e-11
6.63655e-11
6.63511e-11
6.63603e-11
6.6351e-11
6.6357e-11
6.6351e-11
6.63554e-11
6.63509e-11
6.63545e-11
6.63516e-11
6.63537e-11
6.63519e-11
6.63531e-11
6.6352e-11
6.63527e-11
6.63524e-11
6.63524e-11
6.63527e-11
6.63521e-11
6.63532e-11
6.6352e-11
6.63538e-11
6.63517e-11
6.63545e-11
6.6351e-11
6.63555e-11
6.6351e-11
6.63571e-11
6.63511e-11
6.63604e-11
6.63513e-11
6.63656e-11
6.63526e-11
6.63765e-11
6.63594e-11
6.639e-11
6.6356e-11
6.63316e-11
6.61684e-11
6.5797e-11
6.55389e-11
6.01644e-11
6.04196e-11
6.07625e-11
6.09172e-11
6.09425e-11
6.09744e-11
6.09464e-11
6.09617e-11
6.09398e-11
6.09513e-11
6.09382e-11
6.09465e-11
6.09379e-11
6.09433e-11
6.09377e-11
6.09417e-11
6.09377e-11
6.09409e-11
6.09383e-11
6.09402e-11
6.09385e-11
6.09396e-11
6.09386e-11
6.09392e-11
6.0939e-11
6.0939e-11
6.09392e-11
6.09387e-11
6.09397e-11
6.09386e-11
6.09402e-11
6.09383e-11
6.09409e-11
6.09378e-11
6.09418e-11
6.09378e-11
6.09434e-11
6.0938e-11
6.09465e-11
6.09383e-11
6.09514e-11
6.09398e-11
6.09618e-11
6.09464e-11
6.09744e-11
6.09425e-11
6.09173e-11
6.07625e-11
6.04196e-11
6.01644e-11
5.54525e-11
5.57032e-11
5.6021e-11
5.61674e-11
5.61932e-11
5.62232e-11
5.61975e-11
5.62113e-11
5.61911e-11
5.62014e-11
5.61893e-11
5.61967e-11
5.61888e-11
5.61938e-11
5.61886e-11
5.61922e-11
5.61885e-11
5.61914e-11
5.61891e-11
5.61908e-11
5.61893e-11
5.61903e-11
5.61893e-11
5.61899e-11
5.61897e-11
5.61897e-11
5.61899e-11
5.61894e-11
5.61903e-11
5.61893e-11
5.61908e-11
5.61891e-11
5.61915e-11
5.61886e-11
5.61923e-11
5.61887e-11
5.61938e-11
5.61889e-11
5.61967e-11
5.61894e-11
5.62015e-11
5.61911e-11
5.62113e-11
5.61975e-11
5.62232e-11
5.61932e-11
5.61675e-11
5.6021e-11
5.57032e-11
5.54525e-11
5.13031e-11
5.15482e-11
5.18434e-11
5.19819e-11
5.20079e-11
5.20361e-11
5.20125e-11
5.2025e-11
5.20063e-11
5.20155e-11
5.20044e-11
5.2011e-11
5.20038e-11
5.20082e-11
5.20035e-11
5.20068e-11
5.20034e-11
5.2006e-11
5.20038e-11
5.20054e-11
5.2004e-11
5.20049e-11
5.20041e-11
5.20046e-11
5.20043e-11
5.20044e-11
5.20046e-11
5.20041e-11
5.2005e-11
5.20041e-11
5.20054e-11
5.20039e-11
5.20061e-11
5.20034e-11
5.20069e-11
5.20036e-11
5.20083e-11
5.20039e-11
5.20111e-11
5.20045e-11
5.20156e-11
5.20064e-11
5.2025e-11
5.20126e-11
5.20361e-11
5.20079e-11
5.19819e-11
5.18435e-11
5.15482e-11
5.13031e-11
4.7634e-11
4.78728e-11
4.81477e-11
4.82785e-11
4.83045e-11
4.83311e-11
4.83095e-11
4.83206e-11
4.83034e-11
4.83116e-11
4.83013e-11
4.83073e-11
4.83006e-11
4.83046e-11
4.83002e-11
4.83032e-11
4.83001e-11
4.83025e-11
4.83005e-11
4.83019e-11
4.83006e-11
4.83015e-11
4.83007e-11
4.83011e-11
4.83009e-11
4.83009e-11
4.83012e-11
4.83007e-11
4.83015e-11
4.83007e-11
4.8302e-11
4.83005e-11
4.83026e-11
4.83002e-11
4.83033e-11
4.83003e-11
4.83047e-11
4.83007e-11
4.83073e-11
4.83015e-11
4.83117e-11
4.83035e-11
4.83207e-11
4.83095e-11
4.83311e-11
4.83046e-11
4.82785e-11
4.81477e-11
4.78728e-11
4.7634e-11
4.43773e-11
4.46092e-11
4.48657e-11
4.49892e-11
4.50152e-11
4.50402e-11
4.50203e-11
4.50303e-11
4.50144e-11
4.50217e-11
4.50122e-11
4.50176e-11
4.50114e-11
4.5015e-11
4.50109e-11
4.50137e-11
4.50107e-11
4.5013e-11
4.50111e-11
4.50124e-11
4.50112e-11
4.5012e-11
4.50113e-11
4.50117e-11
4.50115e-11
4.50115e-11
4.50117e-11
4.50113e-11
4.5012e-11
4.50113e-11
4.50125e-11
4.50111e-11
4.5013e-11
4.50108e-11
4.50137e-11
4.5011e-11
4.50151e-11
4.50115e-11
4.50176e-11
4.50123e-11
4.50218e-11
4.50144e-11
4.50304e-11
4.50203e-11
4.50402e-11
4.50152e-11
4.49893e-11
4.48658e-11
4.46093e-11
4.43774e-11
4.14765e-11
4.1701e-11
4.19408e-11
4.20574e-11
4.20831e-11
4.21067e-11
4.20884e-11
4.20974e-11
4.20826e-11
4.20892e-11
4.20804e-11
4.20852e-11
4.20794e-11
4.20827e-11
4.20789e-11
4.20814e-11
4.20787e-11
4.20807e-11
4.2079e-11
4.20802e-11
4.20791e-11
4.20798e-11
4.20791e-11
4.20795e-11
4.20794e-11
4.20794e-11
4.20795e-11
4.20792e-11
4.20798e-11
4.20792e-11
4.20803e-11
4.2079e-11
4.20808e-11
4.20788e-11
4.20815e-11
4.2079e-11
4.20827e-11
4.20795e-11
4.20852e-11
4.20805e-11
4.20892e-11
4.20827e-11
4.20975e-11
4.20884e-11
4.21068e-11
4.20831e-11
4.20575e-11
4.19408e-11
4.17011e-11
4.14766e-11
3.8884e-11
3.91008e-11
3.93253e-11
3.94355e-11
3.94608e-11
3.94831e-11
3.94661e-11
3.94742e-11
3.94605e-11
3.94663e-11
3.94582e-11
3.94625e-11
3.94571e-11
3.94601e-11
3.94566e-11
3.94588e-11
3.94564e-11
3.94582e-11
3.94566e-11
3.94577e-11
3.94567e-11
3.94573e-11
3.94567e-11
3.94571e-11
3.94569e-11
3.94569e-11
3.94571e-11
3.94567e-11
3.94574e-11
3.94567e-11
3.94578e-11
3.94566e-11
3.94583e-11
3.94564e-11
3.94589e-11
3.94567e-11
3.94601e-11
3.94572e-11
3.94625e-11
3.94583e-11
3.94664e-11
3.94606e-11
3.94743e-11
3.94662e-11
3.94831e-11
3.94608e-11
3.94355e-11
3.93253e-11
3.91008e-11
3.8884e-11
3.65596e-11
3.67684e-11
3.6979e-11
3.70831e-11
3.7108e-11
3.7129e-11
3.71133e-11
3.71206e-11
3.71079e-11
3.7113e-11
3.71054e-11
3.71093e-11
3.71043e-11
3.7107e-11
3.71037e-11
3.71058e-11
3.71035e-11
3.71051e-11
3.71037e-11
3.71047e-11
3.71037e-11
3.71043e-11
3.71037e-11
3.71041e-11
3.71039e-11
3.71039e-11
3.71041e-11
3.71038e-11
3.71044e-11
3.71038e-11
3.71047e-11
3.71037e-11
3.71052e-11
3.71035e-11
3.71058e-11
3.71038e-11
3.7107e-11
3.71044e-11
3.71093e-11
3.71055e-11
3.71131e-11
3.71079e-11
3.71207e-11
3.71133e-11
3.7129e-11
3.7108e-11
3.70832e-11
3.6979e-11
3.67684e-11
3.65596e-11
3.44692e-11
3.46696e-11
3.48677e-11
3.49661e-11
3.49904e-11
3.50102e-11
3.49957e-11
3.50023e-11
3.49904e-11
3.4995e-11
3.49879e-11
3.49913e-11
3.49868e-11
3.49891e-11
3.49861e-11
3.4988e-11
3.49858e-11
3.49874e-11
3.4986e-11
3.49869e-11
3.49861e-11
3.49866e-11
3.49861e-11
3.49864e-11
3.49862e-11
3.49862e-11
3.49864e-11
3.49861e-11
3.49866e-11
3.49861e-11
3.4987e-11
3.4986e-11
3.49874e-11
3.49859e-11
3.4988e-11
3.49862e-11
3.49892e-11
3.49868e-11
3.49914e-11
3.4988e-11
3.49951e-11
3.49905e-11
3.50023e-11
3.49958e-11
3.50103e-11
3.49904e-11
3.49662e-11
3.48677e-11
3.46697e-11
3.44693e-11
3.25837e-11
3.27755e-11
3.29621e-11
3.30553e-11
3.30789e-11
3.30976e-11
3.30842e-11
3.30901e-11
3.3079e-11
3.30831e-11
3.30765e-11
3.30795e-11
3.30752e-11
3.30774e-11
3.30746e-11
3.30762e-11
3.30743e-11
3.30757e-11
3.30744e-11
3.30753e-11
3.30744e-11
3.30749e-11
3.30744e-11
3.30747e-11
3.30746e-11
3.30746e-11
3.30747e-11
3.30744e-11
3.3075e-11
3.30745e-11
3.30753e-11
3.30744e-11
3.30757e-11
3.30743e-11
3.30763e-11
3.30746e-11
3.30774e-11
3.30753e-11
3.30796e-11
3.30766e-11
3.30831e-11
3.30791e-11
3.30901e-11
3.30842e-11
3.30977e-11
3.30789e-11
3.30553e-11
3.29622e-11
3.27756e-11
3.25838e-11
3.08782e-11
3.1061e-11
3.12373e-11
3.13255e-11
3.13484e-11
3.13661e-11
3.13536e-11
3.13589e-11
3.13486e-11
3.13521e-11
3.1346e-11
3.13487e-11
3.13447e-11
3.13466e-11
3.1344e-11
3.13455e-11
3.13437e-11
3.1345e-11
3.13438e-11
3.13446e-11
3.13438e-11
3.13443e-11
3.13438e-11
3.1344e-11
3.13439e-11
3.13439e-11
3.13441e-11
3.13438e-11
3.13443e-11
3.13438e-11
3.13446e-11
3.13438e-11
3.1345e-11
3.13437e-11
3.13456e-11
3.13441e-11
3.13467e-11
3.13448e-11
3.13487e-11
3.13461e-11
3.13522e-11
3.13486e-11
3.13589e-11
3.13537e-11
3.13661e-11
3.13484e-11
3.13255e-11
3.12374e-11
3.1061e-11
3.08782e-11
2.93306e-11
2.9505e-11
2.96717e-11
2.97552e-11
2.97773e-11
2.97941e-11
2.97825e-11
2.97872e-11
2.97775e-11
2.97807e-11
2.97749e-11
2.97773e-11
2.97736e-11
2.97753e-11
2.97729e-11
2.97742e-11
2.97725e-11
2.97737e-11
2.97726e-11
2.97733e-11
2.97726e-11
2.9773e-11
2.97726e-11
2.97728e-11
2.97727e-11
2.97727e-11
2.97728e-11
2.97726e-11
2.97731e-11
2.97726e-11
2.97734e-11
2.97726e-11
2.97738e-11
2.97726e-11
2.97743e-11
2.97729e-11
2.97754e-11
2.97737e-11
2.97774e-11
2.9775e-11
2.97807e-11
2.97776e-11
2.97872e-11
2.97825e-11
2.97941e-11
2.97773e-11
2.97552e-11
2.96717e-11
2.95051e-11
2.93307e-11
2.79225e-11
2.80891e-11
2.82465e-11
2.83257e-11
2.8347e-11
2.83629e-11
2.83521e-11
2.83563e-11
2.83473e-11
2.835e-11
2.83446e-11
2.83468e-11
2.83433e-11
2.83448e-11
2.83425e-11
2.83438e-11
2.83422e-11
2.83433e-11
2.83422e-11
2.83429e-11
2.83422e-11
2.83426e-11
2.83422e-11
2.83424e-11
2.83423e-11
2.83423e-11
2.83424e-11
2.83422e-11
2.83426e-11
2.83423e-11
2.83429e-11
2.83423e-11
2.83433e-11
2.83422e-11
2.83439e-11
2.83426e-11
2.83449e-11
2.83433e-11
2.83468e-11
2.83447e-11
2.83501e-11
2.83474e-11
2.83564e-11
2.83521e-11
2.83629e-11
2.8347e-11
2.83258e-11
2.82466e-11
2.80892e-11
2.79225e-11
)
;

boundaryField
{
    fuel
    {
        type            fixedValue;
        value           uniform 0;
    }
    wall
    {
        type            zeroGradient;
    }
    outlet
    {
        type            zeroGradient;
    }
    frontAndBack
    {
        type            empty;
    }
    procBoundary1to0
    {
        type            processor;
        value           nonuniform List<scalar> 
50
(
2.66377e-11
2.67972e-11
2.69459e-11
2.7021e-11
2.70414e-11
2.70564e-11
2.70464e-11
2.70502e-11
2.70417e-11
2.70441e-11
2.7039e-11
2.70409e-11
2.70376e-11
2.7039e-11
2.70369e-11
2.7038e-11
2.70365e-11
2.70375e-11
2.70365e-11
2.70372e-11
2.70365e-11
2.70369e-11
2.70365e-11
2.70367e-11
2.70366e-11
2.70366e-11
2.70367e-11
2.70365e-11
2.70369e-11
2.70366e-11
2.70372e-11
2.70366e-11
2.70376e-11
2.70366e-11
2.70381e-11
2.70369e-11
2.70391e-11
2.70377e-11
2.7041e-11
2.70391e-11
2.70442e-11
2.70418e-11
2.70502e-11
2.70464e-11
2.70565e-11
2.70414e-11
2.7021e-11
2.69459e-11
2.67973e-11
2.66377e-11
)
;
    }
}


// ************************************************************************* //
