/*--------------------------------*- C++ -*----------------------------------*\
| =========                 |                                                 |
| \\      /  F ield         | OpenFOAM: The Open Source CFD Toolbox           |
|  \\    /   O peration     | Version:  dev                                   |
|   \\  /    A nd           | Web:      www.OpenFOAM.org                      |
|    \\/     M anipulation  |                                                 |
\*---------------------------------------------------------------------------*/
FoamFile
{
    version     2.0;
    format      ascii;
    class       volScalarField;
    location    "0.04";
    object      A2-1;
}
// * * * * * * * * * * * * * * * * * * * * * * * * * * * * * * * * * * * * * //

dimensions      [0 0 0 0 0 0 0];

internalField   nonuniform List<scalar> 
2000
(
6.86223e-09
6.86149e-09
6.86704e-09
6.86789e-09
6.86812e-09
6.86807e-09
6.86799e-09
6.86798e-09
6.86792e-09
6.86794e-09
6.86792e-09
6.86793e-09
6.86792e-09
6.86793e-09
6.86792e-09
6.86793e-09
6.86792e-09
6.86793e-09
6.86793e-09
6.86793e-09
6.86793e-09
6.86793e-09
6.86793e-09
6.86793e-09
6.86793e-09
6.86793e-09
6.86793e-09
6.86793e-09
6.86793e-09
6.86793e-09
6.86793e-09
6.86793e-09
6.86793e-09
6.86792e-09
6.86793e-09
6.86792e-09
6.86793e-09
6.86792e-09
6.86793e-09
6.86792e-09
6.86794e-09
6.86792e-09
6.86798e-09
6.86799e-09
6.86807e-09
6.86812e-09
6.86789e-09
6.86704e-09
6.86149e-09
6.86223e-09
1.7105e-08
1.71023e-08
1.71111e-08
1.71106e-08
1.71108e-08
1.71101e-08
1.71101e-08
1.71098e-08
1.71099e-08
1.71098e-08
1.71098e-08
1.71098e-08
1.71098e-08
1.71098e-08
1.71098e-08
1.71098e-08
1.71098e-08
1.71098e-08
1.71098e-08
1.71098e-08
1.71098e-08
1.71098e-08
1.71098e-08
1.71098e-08
1.71098e-08
1.71098e-08
1.71098e-08
1.71098e-08
1.71098e-08
1.71098e-08
1.71098e-08
1.71098e-08
1.71098e-08
1.71098e-08
1.71098e-08
1.71098e-08
1.71098e-08
1.71098e-08
1.71098e-08
1.71098e-08
1.71098e-08
1.71099e-08
1.71098e-08
1.71101e-08
1.71101e-08
1.71108e-08
1.71106e-08
1.71111e-08
1.71023e-08
1.7105e-08
3.10361e-08
3.10237e-08
3.10281e-08
3.1022e-08
3.10203e-08
3.10185e-08
3.10183e-08
3.10178e-08
3.10179e-08
3.10177e-08
3.10178e-08
3.10177e-08
3.10178e-08
3.10178e-08
3.10178e-08
3.10178e-08
3.10179e-08
3.10178e-08
3.10179e-08
3.10178e-08
3.10179e-08
3.10179e-08
3.10179e-08
3.10179e-08
3.10179e-08
3.10179e-08
3.10179e-08
3.10179e-08
3.10179e-08
3.10179e-08
3.10179e-08
3.10179e-08
3.10178e-08
3.10179e-08
3.10178e-08
3.10179e-08
3.10178e-08
3.10178e-08
3.10177e-08
3.10178e-08
3.10177e-08
3.10179e-08
3.10178e-08
3.10183e-08
3.10185e-08
3.10203e-08
3.1022e-08
3.10281e-08
3.10237e-08
3.10361e-08
3.98356e-08
3.98045e-08
3.97919e-08
3.97745e-08
3.97691e-08
3.97655e-08
3.97649e-08
3.97642e-08
3.97643e-08
3.97641e-08
3.97643e-08
3.97641e-08
3.97643e-08
3.97642e-08
3.97644e-08
3.97643e-08
3.97644e-08
3.97643e-08
3.97644e-08
3.97643e-08
3.97644e-08
3.97644e-08
3.97644e-08
3.97644e-08
3.97644e-08
3.97644e-08
3.97644e-08
3.97644e-08
3.97644e-08
3.97644e-08
3.97644e-08
3.97644e-08
3.97643e-08
3.97644e-08
3.97643e-08
3.97644e-08
3.97643e-08
3.97643e-08
3.97642e-08
3.97643e-08
3.97641e-08
3.97643e-08
3.97642e-08
3.97649e-08
3.97655e-08
3.97691e-08
3.97745e-08
3.97919e-08
3.98045e-08
3.98356e-08
4.04522e-08
4.04041e-08
4.03755e-08
4.03479e-08
4.03391e-08
4.03341e-08
4.03332e-08
4.03322e-08
4.03324e-08
4.03321e-08
4.03324e-08
4.03322e-08
4.03325e-08
4.03324e-08
4.03325e-08
4.03325e-08
4.03326e-08
4.03325e-08
4.03325e-08
4.03325e-08
4.03325e-08
4.03325e-08
4.03326e-08
4.03325e-08
4.03326e-08
4.03326e-08
4.03325e-08
4.03326e-08
4.03325e-08
4.03325e-08
4.03325e-08
4.03325e-08
4.03325e-08
4.03326e-08
4.03325e-08
4.03325e-08
4.03324e-08
4.03325e-08
4.03322e-08
4.03324e-08
4.03321e-08
4.03324e-08
4.03322e-08
4.03332e-08
4.03341e-08
4.03391e-08
4.03479e-08
4.03755e-08
4.04041e-08
4.04522e-08
3.59709e-08
3.59174e-08
3.58845e-08
3.58532e-08
3.58427e-08
3.58374e-08
3.58361e-08
3.58353e-08
3.58353e-08
3.58352e-08
3.58353e-08
3.58353e-08
3.58354e-08
3.58354e-08
3.58355e-08
3.58355e-08
3.58356e-08
3.58355e-08
3.58355e-08
3.58355e-08
3.58355e-08
3.58355e-08
3.58356e-08
3.58356e-08
3.58356e-08
3.58356e-08
3.58356e-08
3.58356e-08
3.58355e-08
3.58355e-08
3.58355e-08
3.58355e-08
3.58355e-08
3.58356e-08
3.58355e-08
3.58355e-08
3.58354e-08
3.58354e-08
3.58353e-08
3.58353e-08
3.58352e-08
3.58353e-08
3.58353e-08
3.58361e-08
3.58375e-08
3.58427e-08
3.58532e-08
3.58845e-08
3.59174e-08
3.59709e-08
2.98072e-08
2.97577e-08
2.97299e-08
2.97006e-08
2.96898e-08
2.96852e-08
2.96833e-08
2.9683e-08
2.96826e-08
2.96828e-08
2.96827e-08
2.96829e-08
2.96829e-08
2.9683e-08
2.96829e-08
2.9683e-08
2.9683e-08
2.9683e-08
2.9683e-08
2.9683e-08
2.9683e-08
2.9683e-08
2.9683e-08
2.9683e-08
2.9683e-08
2.9683e-08
2.9683e-08
2.9683e-08
2.9683e-08
2.9683e-08
2.9683e-08
2.9683e-08
2.9683e-08
2.9683e-08
2.9683e-08
2.9683e-08
2.9683e-08
2.96829e-08
2.96829e-08
2.96827e-08
2.96828e-08
2.96826e-08
2.9683e-08
2.96834e-08
2.96852e-08
2.96898e-08
2.97006e-08
2.973e-08
2.97577e-08
2.98072e-08
2.38317e-08
2.3791e-08
2.37722e-08
2.37474e-08
2.37373e-08
2.37338e-08
2.37315e-08
2.37317e-08
2.37309e-08
2.37314e-08
2.3731e-08
2.37314e-08
2.37312e-08
2.37314e-08
2.37313e-08
2.37315e-08
2.37314e-08
2.37314e-08
2.37314e-08
2.37314e-08
2.37314e-08
2.37314e-08
2.37314e-08
2.37314e-08
2.37314e-08
2.37314e-08
2.37314e-08
2.37314e-08
2.37314e-08
2.37314e-08
2.37314e-08
2.37314e-08
2.37314e-08
2.37314e-08
2.37315e-08
2.37313e-08
2.37314e-08
2.37312e-08
2.37314e-08
2.3731e-08
2.37314e-08
2.37309e-08
2.37317e-08
2.37315e-08
2.37338e-08
2.37373e-08
2.37474e-08
2.37722e-08
2.3791e-08
2.38317e-08
1.87613e-08
1.87303e-08
1.87206e-08
1.87013e-08
1.86922e-08
1.86898e-08
1.86873e-08
1.86878e-08
1.86868e-08
1.86875e-08
1.86869e-08
1.86874e-08
1.86871e-08
1.86875e-08
1.86872e-08
1.86875e-08
1.86873e-08
1.86874e-08
1.86873e-08
1.86874e-08
1.86873e-08
1.86874e-08
1.86874e-08
1.86874e-08
1.86874e-08
1.86874e-08
1.86874e-08
1.86874e-08
1.86874e-08
1.86873e-08
1.86874e-08
1.86873e-08
1.86874e-08
1.86873e-08
1.86875e-08
1.86872e-08
1.86875e-08
1.86871e-08
1.86874e-08
1.86869e-08
1.86875e-08
1.86868e-08
1.86878e-08
1.86873e-08
1.86898e-08
1.86923e-08
1.87013e-08
1.87206e-08
1.87303e-08
1.87613e-08
1.47304e-08
1.47084e-08
1.47065e-08
1.46921e-08
1.46844e-08
1.46828e-08
1.46802e-08
1.4681e-08
1.46798e-08
1.46807e-08
1.468e-08
1.46806e-08
1.46801e-08
1.46805e-08
1.46803e-08
1.46805e-08
1.46803e-08
1.46805e-08
1.46804e-08
1.46805e-08
1.46804e-08
1.46805e-08
1.46804e-08
1.46804e-08
1.46804e-08
1.46804e-08
1.46805e-08
1.46804e-08
1.46805e-08
1.46804e-08
1.46805e-08
1.46804e-08
1.46805e-08
1.46803e-08
1.46805e-08
1.46803e-08
1.46806e-08
1.46802e-08
1.46806e-08
1.468e-08
1.46807e-08
1.46798e-08
1.4681e-08
1.46802e-08
1.46828e-08
1.46844e-08
1.46921e-08
1.47065e-08
1.47084e-08
1.47304e-08
1.16255e-08
1.16112e-08
1.16153e-08
1.16052e-08
1.15987e-08
1.15979e-08
1.15952e-08
1.15962e-08
1.15949e-08
1.15958e-08
1.1595e-08
1.15957e-08
1.15952e-08
1.15957e-08
1.15953e-08
1.15956e-08
1.15954e-08
1.15956e-08
1.15954e-08
1.15956e-08
1.15955e-08
1.15956e-08
1.15955e-08
1.15955e-08
1.15955e-08
1.15955e-08
1.15955e-08
1.15955e-08
1.15956e-08
1.15955e-08
1.15956e-08
1.15954e-08
1.15956e-08
1.15954e-08
1.15956e-08
1.15953e-08
1.15957e-08
1.15952e-08
1.15957e-08
1.15951e-08
1.15959e-08
1.15949e-08
1.15962e-08
1.15953e-08
1.15979e-08
1.15987e-08
1.16053e-08
1.16153e-08
1.16112e-08
1.16255e-08
9.17438e-09
9.16539e-09
9.17181e-09
9.16475e-09
9.15925e-09
9.15883e-09
9.1564e-09
9.15739e-09
9.15608e-09
9.15701e-09
9.15623e-09
9.15689e-09
9.1564e-09
9.15682e-09
9.1565e-09
9.15679e-09
9.15655e-09
9.15675e-09
9.1566e-09
9.15672e-09
9.15663e-09
9.1567e-09
9.15665e-09
9.15669e-09
9.15667e-09
9.15667e-09
9.15669e-09
9.15665e-09
9.1567e-09
9.15663e-09
9.15672e-09
9.1566e-09
9.15675e-09
9.15655e-09
9.15679e-09
9.1565e-09
9.15683e-09
9.1564e-09
9.15689e-09
9.15624e-09
9.15701e-09
9.15608e-09
9.1574e-09
9.15641e-09
9.15883e-09
9.15926e-09
9.16476e-09
9.17181e-09
9.16539e-09
9.17438e-09
7.38473e-09
7.38082e-09
7.39034e-09
7.38603e-09
7.38137e-09
7.38138e-09
7.379e-09
7.38007e-09
7.37872e-09
7.37968e-09
7.37887e-09
7.37955e-09
7.37903e-09
7.37946e-09
7.37913e-09
7.37943e-09
7.37918e-09
7.37939e-09
7.37923e-09
7.37935e-09
7.37926e-09
7.37933e-09
7.37928e-09
7.37932e-09
7.3793e-09
7.3793e-09
7.37932e-09
7.37928e-09
7.37934e-09
7.37926e-09
7.37935e-09
7.37923e-09
7.37939e-09
7.37918e-09
7.37943e-09
7.37913e-09
7.37947e-09
7.37903e-09
7.37955e-09
7.37888e-09
7.37968e-09
7.37872e-09
7.38007e-09
7.37901e-09
7.38138e-09
7.38137e-09
7.38603e-09
7.39034e-09
7.38082e-09
7.38474e-09
6.0168e-09
6.01104e-09
6.0176e-09
6.0139e-09
6.01074e-09
6.01056e-09
6.00889e-09
6.00958e-09
6.00863e-09
6.00928e-09
6.00872e-09
6.00918e-09
6.00883e-09
6.00913e-09
6.00889e-09
6.0091e-09
6.00893e-09
6.00907e-09
6.00896e-09
6.00905e-09
6.00898e-09
6.00903e-09
6.009e-09
6.00902e-09
6.00901e-09
6.00901e-09
6.00902e-09
6.009e-09
6.00904e-09
6.00898e-09
6.00905e-09
6.00896e-09
6.00907e-09
6.00893e-09
6.0091e-09
6.0089e-09
6.00913e-09
6.00883e-09
6.00918e-09
6.00873e-09
6.00928e-09
6.00863e-09
6.00958e-09
6.0089e-09
6.01056e-09
6.01075e-09
6.0139e-09
6.0176e-09
6.01104e-09
6.0168e-09
4.93547e-09
4.93216e-09
4.93888e-09
4.93642e-09
4.93384e-09
4.93378e-09
4.93228e-09
4.93291e-09
4.93205e-09
4.93263e-09
4.93212e-09
4.93254e-09
4.93222e-09
4.93249e-09
4.93227e-09
4.93246e-09
4.9323e-09
4.93243e-09
4.93233e-09
4.93241e-09
4.93235e-09
4.9324e-09
4.93237e-09
4.93239e-09
4.93238e-09
4.93238e-09
4.93239e-09
4.93237e-09
4.9324e-09
4.93235e-09
4.93241e-09
4.93234e-09
4.93244e-09
4.93231e-09
4.93246e-09
4.93228e-09
4.93249e-09
4.93222e-09
4.93254e-09
4.93213e-09
4.93264e-09
4.93205e-09
4.93292e-09
4.93229e-09
4.93378e-09
4.93384e-09
4.93643e-09
4.93889e-09
4.93216e-09
4.93548e-09
4.1294e-09
4.12821e-09
4.13543e-09
4.13404e-09
4.13192e-09
4.13199e-09
4.13061e-09
4.13122e-09
4.1304e-09
4.13095e-09
4.13047e-09
4.13086e-09
4.13055e-09
4.1308e-09
4.1306e-09
4.13078e-09
4.13063e-09
4.13075e-09
4.13066e-09
4.13073e-09
4.13068e-09
4.13072e-09
4.13069e-09
4.13071e-09
4.1307e-09
4.1307e-09
4.13071e-09
4.13069e-09
4.13072e-09
4.13068e-09
4.13073e-09
4.13066e-09
4.13076e-09
4.13063e-09
4.13078e-09
4.1306e-09
4.13081e-09
4.13055e-09
4.13086e-09
4.13047e-09
4.13095e-09
4.1304e-09
4.13122e-09
4.13061e-09
4.132e-09
4.13192e-09
4.13405e-09
4.13543e-09
4.12821e-09
4.1294e-09
3.47705e-09
3.47844e-09
3.48691e-09
3.48707e-09
3.48561e-09
3.48591e-09
3.48462e-09
3.48522e-09
3.48441e-09
3.48494e-09
3.48446e-09
3.48483e-09
3.48453e-09
3.48477e-09
3.48457e-09
3.48474e-09
3.48459e-09
3.48471e-09
3.48462e-09
3.48469e-09
3.48463e-09
3.48468e-09
3.48464e-09
3.48466e-09
3.48465e-09
3.48465e-09
3.48466e-09
3.48464e-09
3.48468e-09
3.48463e-09
3.48469e-09
3.48462e-09
3.48471e-09
3.48459e-09
3.48474e-09
3.48457e-09
3.48477e-09
3.48453e-09
3.48483e-09
3.48447e-09
3.48494e-09
3.48441e-09
3.48522e-09
3.48463e-09
3.48591e-09
3.48561e-09
3.48708e-09
3.48691e-09
3.47844e-09
3.47705e-09
2.97727e-09
2.97986e-09
2.98817e-09
2.98887e-09
2.98773e-09
2.98807e-09
2.9869e-09
2.98745e-09
2.98671e-09
2.98719e-09
2.98675e-09
2.98708e-09
2.9868e-09
2.98702e-09
2.98684e-09
2.98699e-09
2.98686e-09
2.98697e-09
2.98688e-09
2.98695e-09
2.9869e-09
2.98694e-09
2.98691e-09
2.98693e-09
2.98692e-09
2.98692e-09
2.98693e-09
2.98691e-09
2.98694e-09
2.9869e-09
2.98695e-09
2.98688e-09
2.98697e-09
2.98686e-09
2.98699e-09
2.98684e-09
2.98702e-09
2.98681e-09
2.98709e-09
2.98675e-09
2.98719e-09
2.98671e-09
2.98745e-09
2.98691e-09
2.98807e-09
2.98773e-09
2.98887e-09
2.98817e-09
2.97987e-09
2.97727e-09
2.5616e-09
2.56604e-09
2.57518e-09
2.57681e-09
2.57587e-09
2.57636e-09
2.57518e-09
2.57576e-09
2.57499e-09
2.57549e-09
2.57503e-09
2.57539e-09
2.57509e-09
2.57532e-09
2.57513e-09
2.57529e-09
2.57514e-09
2.57526e-09
2.57517e-09
2.57524e-09
2.57519e-09
2.57523e-09
2.5752e-09
2.57522e-09
2.57521e-09
2.57521e-09
2.57522e-09
2.5752e-09
2.57523e-09
2.57519e-09
2.57524e-09
2.57517e-09
2.57527e-09
2.57515e-09
2.57529e-09
2.57513e-09
2.57532e-09
2.57509e-09
2.57539e-09
2.57504e-09
2.57549e-09
2.57499e-09
2.57576e-09
2.57518e-09
2.57636e-09
2.57587e-09
2.57681e-09
2.57518e-09
2.56604e-09
2.56161e-09
2.22355e-09
2.22863e-09
2.23708e-09
2.23887e-09
2.23813e-09
2.2386e-09
2.23754e-09
2.23806e-09
2.23737e-09
2.23781e-09
2.2374e-09
2.23771e-09
2.23745e-09
2.23765e-09
2.23748e-09
2.23762e-09
2.23749e-09
2.2376e-09
2.23752e-09
2.23758e-09
2.23753e-09
2.23757e-09
2.23754e-09
2.23756e-09
2.23755e-09
2.23755e-09
2.23756e-09
2.23754e-09
2.23757e-09
2.23754e-09
2.23759e-09
2.23752e-09
2.2376e-09
2.2375e-09
2.23763e-09
2.23748e-09
2.23765e-09
2.23745e-09
2.23771e-09
2.2374e-09
2.23781e-09
2.23737e-09
2.23806e-09
2.23754e-09
2.2386e-09
2.23813e-09
2.23887e-09
2.23708e-09
2.22864e-09
2.22355e-09
1.95573e-09
1.96159e-09
1.96965e-09
1.97163e-09
1.97106e-09
1.97154e-09
1.97056e-09
1.97104e-09
1.9704e-09
1.9708e-09
1.97042e-09
1.97071e-09
1.97047e-09
1.97065e-09
1.97049e-09
1.97063e-09
1.97051e-09
1.97061e-09
1.97053e-09
1.97059e-09
1.97054e-09
1.97058e-09
1.97055e-09
1.97057e-09
1.97056e-09
1.97056e-09
1.97057e-09
1.97055e-09
1.97058e-09
1.97055e-09
1.97059e-09
1.97053e-09
1.97061e-09
1.97051e-09
1.97063e-09
1.9705e-09
1.97066e-09
1.97047e-09
1.97071e-09
1.97043e-09
1.97081e-09
1.9704e-09
1.97104e-09
1.97056e-09
1.97154e-09
1.97106e-09
1.97163e-09
1.96965e-09
1.96159e-09
1.95573e-09
1.73339e-09
1.74002e-09
1.74771e-09
1.74983e-09
1.7494e-09
1.74987e-09
1.74897e-09
1.74941e-09
1.74881e-09
1.74919e-09
1.74883e-09
1.7491e-09
1.74887e-09
1.74905e-09
1.7489e-09
1.74902e-09
1.74891e-09
1.749e-09
1.74893e-09
1.74899e-09
1.74894e-09
1.74898e-09
1.74895e-09
1.74897e-09
1.74896e-09
1.74896e-09
1.74897e-09
1.74895e-09
1.74898e-09
1.74894e-09
1.74899e-09
1.74893e-09
1.749e-09
1.74891e-09
1.74902e-09
1.7489e-09
1.74905e-09
1.74888e-09
1.7491e-09
1.74884e-09
1.74919e-09
1.74881e-09
1.74941e-09
1.74897e-09
1.74987e-09
1.7494e-09
1.74983e-09
1.74771e-09
1.74002e-09
1.73339e-09
1.54706e-09
1.54935e-09
1.55599e-09
1.55801e-09
1.55783e-09
1.55829e-09
1.55753e-09
1.55789e-09
1.55737e-09
1.55768e-09
1.55737e-09
1.55759e-09
1.55739e-09
1.55753e-09
1.5574e-09
1.5575e-09
1.55741e-09
1.55749e-09
1.55742e-09
1.55747e-09
1.55743e-09
1.55746e-09
1.55744e-09
1.55745e-09
1.55745e-09
1.55745e-09
1.55745e-09
1.55744e-09
1.55746e-09
1.55743e-09
1.55747e-09
1.55743e-09
1.55749e-09
1.55741e-09
1.55751e-09
1.5574e-09
1.55753e-09
1.55739e-09
1.55759e-09
1.55737e-09
1.55768e-09
1.55737e-09
1.55789e-09
1.55753e-09
1.55829e-09
1.55783e-09
1.55802e-09
1.55599e-09
1.54935e-09
1.54706e-09
1.38959e-09
1.39237e-09
1.39864e-09
1.4007e-09
1.40061e-09
1.40106e-09
1.40036e-09
1.4007e-09
1.40021e-09
1.40049e-09
1.40021e-09
1.40041e-09
1.40022e-09
1.40035e-09
1.40023e-09
1.40033e-09
1.40024e-09
1.40031e-09
1.40025e-09
1.4003e-09
1.40026e-09
1.40029e-09
1.40026e-09
1.40028e-09
1.40027e-09
1.40027e-09
1.40028e-09
1.40026e-09
1.40029e-09
1.40026e-09
1.4003e-09
1.40025e-09
1.40031e-09
1.40024e-09
1.40033e-09
1.40023e-09
1.40035e-09
1.40022e-09
1.40041e-09
1.40021e-09
1.40049e-09
1.40021e-09
1.4007e-09
1.40036e-09
1.40106e-09
1.40061e-09
1.4007e-09
1.39864e-09
1.39237e-09
1.38959e-09
1.25046e-09
1.25365e-09
1.25981e-09
1.26205e-09
1.26209e-09
1.26256e-09
1.2619e-09
1.26222e-09
1.26175e-09
1.26201e-09
1.26174e-09
1.26193e-09
1.26175e-09
1.26187e-09
1.26176e-09
1.26185e-09
1.26176e-09
1.26183e-09
1.26178e-09
1.26182e-09
1.26178e-09
1.26181e-09
1.26179e-09
1.2618e-09
1.26179e-09
1.26179e-09
1.2618e-09
1.26179e-09
1.26181e-09
1.26178e-09
1.26182e-09
1.26178e-09
1.26183e-09
1.26176e-09
1.26185e-09
1.26176e-09
1.26187e-09
1.26175e-09
1.26193e-09
1.26174e-09
1.26202e-09
1.26176e-09
1.26222e-09
1.2619e-09
1.26256e-09
1.26209e-09
1.26206e-09
1.25981e-09
1.25365e-09
1.25047e-09
1.13097e-09
1.13432e-09
1.14004e-09
1.14224e-09
1.14234e-09
1.14278e-09
1.14218e-09
1.14247e-09
1.14204e-09
1.14227e-09
1.14202e-09
1.14219e-09
1.14203e-09
1.14214e-09
1.14203e-09
1.14211e-09
1.14204e-09
1.1421e-09
1.14205e-09
1.14209e-09
1.14205e-09
1.14208e-09
1.14206e-09
1.14207e-09
1.14206e-09
1.14206e-09
1.14207e-09
1.14206e-09
1.14208e-09
1.14206e-09
1.14209e-09
1.14205e-09
1.1421e-09
1.14204e-09
1.14211e-09
1.14203e-09
1.14214e-09
1.14203e-09
1.14219e-09
1.14202e-09
1.14227e-09
1.14204e-09
1.14247e-09
1.14218e-09
1.14278e-09
1.14234e-09
1.14224e-09
1.14004e-09
1.13433e-09
1.13098e-09
1.02765e-09
1.03111e-09
1.03641e-09
1.03855e-09
1.0387e-09
1.03912e-09
1.03857e-09
1.03883e-09
1.03844e-09
1.03865e-09
1.03842e-09
1.03857e-09
1.03842e-09
1.03852e-09
1.03842e-09
1.0385e-09
1.03842e-09
1.03848e-09
1.03844e-09
1.03847e-09
1.03844e-09
1.03846e-09
1.03844e-09
1.03845e-09
1.03845e-09
1.03845e-09
1.03845e-09
1.03844e-09
1.03846e-09
1.03844e-09
1.03847e-09
1.03844e-09
1.03848e-09
1.03843e-09
1.0385e-09
1.03842e-09
1.03852e-09
1.03842e-09
1.03857e-09
1.03842e-09
1.03865e-09
1.03844e-09
1.03883e-09
1.03857e-09
1.03912e-09
1.0387e-09
1.03855e-09
1.03642e-09
1.03111e-09
1.02765e-09
9.37754e-10
9.41271e-10
9.46213e-10
9.4828e-10
9.48464e-10
9.48869e-10
9.48364e-10
9.48596e-10
9.48234e-10
9.48423e-10
9.48211e-10
9.48348e-10
9.48211e-10
9.48302e-10
9.48212e-10
9.48278e-10
9.48213e-10
9.48265e-10
9.48223e-10
9.48255e-10
9.48228e-10
9.48246e-10
9.4823e-10
9.4824e-10
9.48236e-10
9.48236e-10
9.4824e-10
9.48231e-10
9.48247e-10
9.48229e-10
9.48255e-10
9.48224e-10
9.48267e-10
9.48215e-10
9.4828e-10
9.48214e-10
9.48303e-10
9.48213e-10
9.48349e-10
9.48214e-10
9.48424e-10
9.48235e-10
9.48598e-10
9.48366e-10
9.4887e-10
9.48465e-10
9.48282e-10
9.46214e-10
9.41272e-10
9.37755e-10
8.59127e-10
8.62658e-10
8.67269e-10
8.69257e-10
8.6947e-10
8.69856e-10
8.69392e-10
8.69602e-10
8.69267e-10
8.69437e-10
8.69242e-10
8.69365e-10
8.69239e-10
8.69321e-10
8.69239e-10
8.69299e-10
8.69239e-10
8.69287e-10
8.69248e-10
8.69277e-10
8.69253e-10
8.69269e-10
8.69254e-10
8.69264e-10
8.6926e-10
8.6926e-10
8.69264e-10
8.69255e-10
8.6927e-10
8.69254e-10
8.69278e-10
8.69249e-10
8.69288e-10
8.69241e-10
8.69301e-10
8.69241e-10
8.69323e-10
8.69241e-10
8.69366e-10
8.69245e-10
8.69439e-10
8.69269e-10
8.69603e-10
8.69394e-10
8.69856e-10
8.69471e-10
8.69258e-10
8.67269e-10
8.62659e-10
8.59128e-10
7.90016e-10
7.93528e-10
7.97837e-10
7.99742e-10
7.99978e-10
8.00345e-10
7.99919e-10
8.00108e-10
7.99799e-10
7.99951e-10
7.99772e-10
7.99883e-10
7.99767e-10
7.99841e-10
7.99765e-10
7.9982e-10
7.99765e-10
7.99808e-10
7.99773e-10
7.99799e-10
7.99776e-10
7.99792e-10
7.99778e-10
7.99786e-10
7.99783e-10
7.99783e-10
7.99787e-10
7.99779e-10
7.99792e-10
7.99777e-10
7.998e-10
7.99774e-10
7.9981e-10
7.99766e-10
7.99822e-10
7.99767e-10
7.99843e-10
7.99769e-10
7.99884e-10
7.99774e-10
7.99953e-10
7.998e-10
8.00109e-10
7.9992e-10
8.00345e-10
7.99979e-10
7.99743e-10
7.97838e-10
7.93529e-10
7.90017e-10
7.29004e-10
7.3247e-10
7.36503e-10
7.38323e-10
7.38575e-10
7.38924e-10
7.38532e-10
7.38703e-10
7.38417e-10
7.38554e-10
7.38388e-10
7.38488e-10
7.38381e-10
7.38448e-10
7.38378e-10
7.38428e-10
7.38377e-10
7.38417e-10
7.38385e-10
7.38409e-10
7.38388e-10
7.38402e-10
7.38389e-10
7.38397e-10
7.38393e-10
7.38394e-10
7.38397e-10
7.3839e-10
7.38402e-10
7.38389e-10
7.38409e-10
7.38385e-10
7.38419e-10
7.38379e-10
7.3843e-10
7.3838e-10
7.3845e-10
7.38383e-10
7.38489e-10
7.3839e-10
7.38555e-10
7.38419e-10
7.38704e-10
7.38534e-10
7.38925e-10
7.38576e-10
7.38324e-10
7.36504e-10
7.32471e-10
7.29005e-10
6.74927e-10
6.78328e-10
6.82105e-10
6.83839e-10
6.84104e-10
6.84436e-10
6.84075e-10
6.84228e-10
6.83965e-10
6.84087e-10
6.83934e-10
6.84024e-10
6.83925e-10
6.83986e-10
6.83921e-10
6.83967e-10
6.8392e-10
6.83956e-10
6.83926e-10
6.83948e-10
6.83929e-10
6.83941e-10
6.8393e-10
6.83937e-10
6.83934e-10
6.83934e-10
6.83937e-10
6.8393e-10
6.83942e-10
6.8393e-10
6.83949e-10
6.83927e-10
6.83957e-10
6.83921e-10
6.83968e-10
6.83923e-10
6.83987e-10
6.83927e-10
6.84025e-10
6.83936e-10
6.84088e-10
6.83966e-10
6.84229e-10
6.84076e-10
6.84436e-10
6.84105e-10
6.8384e-10
6.82106e-10
6.78329e-10
6.74928e-10
6.26822e-10
6.30143e-10
6.33683e-10
6.35334e-10
6.35607e-10
6.35921e-10
6.35589e-10
6.35727e-10
6.35483e-10
6.35592e-10
6.3545e-10
6.35532e-10
6.3544e-10
6.35495e-10
6.35435e-10
6.35477e-10
6.35433e-10
6.35467e-10
6.35439e-10
6.35459e-10
6.35441e-10
6.35453e-10
6.35442e-10
6.35449e-10
6.35446e-10
6.35446e-10
6.35449e-10
6.35443e-10
6.35454e-10
6.35442e-10
6.3546e-10
6.3544e-10
6.35468e-10
6.35435e-10
6.35478e-10
6.35437e-10
6.35497e-10
6.35442e-10
6.35533e-10
6.35452e-10
6.35593e-10
6.35484e-10
6.35728e-10
6.3559e-10
6.35922e-10
6.35607e-10
6.35335e-10
6.33684e-10
6.30144e-10
6.26823e-10
5.83888e-10
5.87114e-10
5.90436e-10
5.92005e-10
5.92283e-10
5.92581e-10
5.92274e-10
5.92399e-10
5.92172e-10
5.9227e-10
5.92139e-10
5.92212e-10
5.92127e-10
5.92177e-10
5.92122e-10
5.9216e-10
5.92119e-10
5.9215e-10
5.92124e-10
5.92143e-10
5.92126e-10
5.92137e-10
5.92127e-10
5.92133e-10
5.9213e-10
5.92131e-10
5.92133e-10
5.92128e-10
5.92138e-10
5.92127e-10
5.92144e-10
5.92125e-10
5.92151e-10
5.92121e-10
5.92161e-10
5.92123e-10
5.92179e-10
5.92129e-10
5.92213e-10
5.92141e-10
5.92272e-10
5.92174e-10
5.924e-10
5.92275e-10
5.92582e-10
5.92283e-10
5.92006e-10
5.90437e-10
5.87115e-10
5.83889e-10
5.4545e-10
5.48571e-10
5.51691e-10
5.53181e-10
5.5346e-10
5.53743e-10
5.5346e-10
5.53572e-10
5.53362e-10
5.53449e-10
5.53328e-10
5.53393e-10
5.53315e-10
5.5336e-10
5.53309e-10
5.53343e-10
5.53306e-10
5.53334e-10
5.5331e-10
5.53327e-10
5.53312e-10
5.53322e-10
5.53312e-10
5.53318e-10
5.53315e-10
5.53316e-10
5.53318e-10
5.53313e-10
5.53322e-10
5.53313e-10
5.53328e-10
5.53311e-10
5.53335e-10
5.53307e-10
5.53344e-10
5.5331e-10
5.53362e-10
5.53316e-10
5.53394e-10
5.5333e-10
5.53451e-10
5.53363e-10
5.53573e-10
5.53461e-10
5.53744e-10
5.53461e-10
5.53182e-10
5.51692e-10
5.48572e-10
5.45451e-10
5.10937e-10
5.13943e-10
5.16878e-10
5.18291e-10
5.1857e-10
5.18838e-10
5.18576e-10
5.18677e-10
5.18482e-10
5.1856e-10
5.18447e-10
5.18506e-10
5.18433e-10
5.18474e-10
5.18427e-10
5.18458e-10
5.18424e-10
5.18449e-10
5.18427e-10
5.18443e-10
5.18428e-10
5.18438e-10
5.18429e-10
5.18434e-10
5.18432e-10
5.18432e-10
5.18434e-10
5.1843e-10
5.18438e-10
5.18429e-10
5.18444e-10
5.18428e-10
5.1845e-10
5.18425e-10
5.18459e-10
5.18428e-10
5.18476e-10
5.18435e-10
5.18507e-10
5.18449e-10
5.18562e-10
5.18484e-10
5.18678e-10
5.18577e-10
5.18839e-10
5.18571e-10
5.18292e-10
5.16879e-10
5.13944e-10
5.10938e-10
4.79864e-10
4.82746e-10
4.85511e-10
4.86852e-10
4.87128e-10
4.87381e-10
4.87139e-10
4.8723e-10
4.87049e-10
4.87118e-10
4.87013e-10
4.87066e-10
4.86999e-10
4.87036e-10
4.86991e-10
4.8702e-10
4.86988e-10
4.87012e-10
4.86991e-10
4.87005e-10
4.86992e-10
4.87001e-10
4.86992e-10
4.86997e-10
4.86995e-10
4.86995e-10
4.86997e-10
4.86993e-10
4.87001e-10
4.86993e-10
4.87006e-10
4.86992e-10
4.87013e-10
4.86989e-10
4.87021e-10
4.86993e-10
4.87037e-10
4.87e-10
4.87067e-10
4.87015e-10
4.8712e-10
4.8705e-10
4.87231e-10
4.8714e-10
4.87382e-10
4.87128e-10
4.86853e-10
4.85512e-10
4.82747e-10
4.79864e-10
4.51814e-10
4.54565e-10
4.57175e-10
4.58446e-10
4.58717e-10
4.58958e-10
4.58733e-10
4.58815e-10
4.58647e-10
4.58708e-10
4.58611e-10
4.58658e-10
4.58595e-10
4.58629e-10
4.58587e-10
4.58613e-10
4.58584e-10
4.58606e-10
4.58586e-10
4.586e-10
4.58587e-10
4.58595e-10
4.58588e-10
4.58592e-10
4.5859e-10
4.5859e-10
4.58592e-10
4.58588e-10
4.58596e-10
4.58588e-10
4.58601e-10
4.58587e-10
4.58607e-10
4.58585e-10
4.58615e-10
4.58589e-10
4.5863e-10
4.58597e-10
4.58659e-10
4.58612e-10
4.5871e-10
4.58648e-10
4.58816e-10
4.58734e-10
4.58958e-10
4.58718e-10
4.58447e-10
4.57175e-10
4.54566e-10
4.51815e-10
4.26423e-10
4.29049e-10
4.31511e-10
4.32717e-10
4.32982e-10
4.3321e-10
4.33002e-10
4.33075e-10
4.32919e-10
4.32973e-10
4.32882e-10
4.32925e-10
4.32866e-10
4.32897e-10
4.32858e-10
4.32882e-10
4.32855e-10
4.32874e-10
4.32857e-10
4.32869e-10
4.32857e-10
4.32864e-10
4.32857e-10
4.32861e-10
4.3286e-10
4.3286e-10
4.32862e-10
4.32858e-10
4.32865e-10
4.32858e-10
4.3287e-10
4.32857e-10
4.32876e-10
4.32856e-10
4.32883e-10
4.3286e-10
4.32898e-10
4.32868e-10
4.32926e-10
4.32884e-10
4.32975e-10
4.3292e-10
4.33076e-10
4.33003e-10
4.3321e-10
4.32983e-10
4.32718e-10
4.31512e-10
4.2905e-10
4.26424e-10
4.03383e-10
4.05891e-10
4.08213e-10
4.09356e-10
4.09613e-10
4.09829e-10
4.09636e-10
4.09702e-10
4.09556e-10
4.09605e-10
4.0952e-10
4.09558e-10
4.09504e-10
4.09531e-10
4.09495e-10
4.09517e-10
4.09491e-10
4.09509e-10
4.09493e-10
4.09504e-10
4.09493e-10
4.095e-10
4.09493e-10
4.09497e-10
4.09495e-10
4.09496e-10
4.09497e-10
4.09494e-10
4.09501e-10
4.09494e-10
4.09505e-10
4.09494e-10
4.09511e-10
4.09493e-10
4.09518e-10
4.09497e-10
4.09532e-10
4.09505e-10
4.09559e-10
4.09522e-10
4.09606e-10
4.09558e-10
4.09703e-10
4.09638e-10
4.0983e-10
4.09614e-10
4.09357e-10
4.08213e-10
4.05892e-10
4.03384e-10
)
;

boundaryField
{
    fuel
    {
        type            fixedValue;
        value           uniform 0;
    }
    wall
    {
        type            zeroGradient;
    }
    outlet
    {
        type            zeroGradient;
    }
    frontAndBack
    {
        type            empty;
    }
    procBoundary1to0
    {
        type            processor;
        value           nonuniform List<scalar> 
50
(
3.82425e-10
3.84823e-10
3.8701e-10
3.88094e-10
3.88343e-10
3.88548e-10
3.88369e-10
3.88428e-10
3.88292e-10
3.88335e-10
3.88256e-10
3.8829e-10
3.88239e-10
3.88264e-10
3.88231e-10
3.8825e-10
3.88227e-10
3.88243e-10
3.88228e-10
3.88238e-10
3.88228e-10
3.88234e-10
3.88228e-10
3.88232e-10
3.8823e-10
3.8823e-10
3.88232e-10
3.88229e-10
3.88235e-10
3.88229e-10
3.88239e-10
3.88229e-10
3.88245e-10
3.88228e-10
3.88252e-10
3.88232e-10
3.88266e-10
3.88241e-10
3.88292e-10
3.88258e-10
3.88337e-10
3.88294e-10
3.88429e-10
3.8837e-10
3.88549e-10
3.88344e-10
3.88095e-10
3.87011e-10
3.84824e-10
3.82426e-10
)
;
    }
}


// ************************************************************************* //
