/*--------------------------------*- C++ -*----------------------------------*\
| =========                 |                                                 |
| \\      /  F ield         | OpenFOAM: The Open Source CFD Toolbox           |
|  \\    /   O peration     | Version:  dev                                   |
|   \\  /    A nd           | Web:      www.OpenFOAM.org                      |
|    \\/     M anipulation  |                                                 |
\*---------------------------------------------------------------------------*/
FoamFile
{
    version     2.0;
    format      ascii;
    class       volScalarField;
    location    "0.04";
    object      A2C2HB;
}
// * * * * * * * * * * * * * * * * * * * * * * * * * * * * * * * * * * * * * //

dimensions      [0 0 0 0 0 0 0];

internalField   nonuniform List<scalar> 
250
(
1.65537e-09
9.67646e-10
6.92444e-10
6.20195e-10
6.02168e-10
5.95789e-10
5.92918e-10
5.92226e-10
5.90031e-10
5.90552e-10
1.47293e-09
9.25313e-10
6.95403e-10
6.31518e-10
6.14201e-10
6.07718e-10
6.04714e-10
6.03541e-10
6.01537e-10
6.01611e-10
6.01599e-10
6.0162e-10
6.03466e-10
6.0463e-10
6.07552e-10
6.13877e-10
6.31108e-10
6.93283e-10
9.17701e-10
1.49478e-09
1.3214e-09
8.8376e-10
6.91807e-10
6.3547e-10
6.18918e-10
6.12412e-10
6.0929e-10
6.07664e-10
6.05831e-10
6.05478e-10
6.0545e-10
6.05855e-10
6.07561e-10
6.09153e-10
6.12196e-10
6.18557e-10
6.34896e-10
6.89911e-10
8.77184e-10
1.33528e-09
1.19474e-09
8.43257e-10
6.82975e-10
6.33447e-10
6.17749e-10
6.11282e-10
6.08043e-10
6.06017e-10
6.04298e-10
6.03569e-10
6.03529e-10
6.0427e-10
6.05887e-10
6.07857e-10
6.11019e-10
6.17351e-10
6.3275e-10
6.81253e-10
8.37373e-10
1.20227e-09
1.08862e-09
8.0432e-10
6.70494e-10
6.27177e-10
6.1243e-10
6.06034e-10
6.02667e-10
6.00281e-10
5.98626e-10
5.97525e-10
5.97474e-10
5.9855e-10
6.00122e-10
6.02437e-10
6.0573e-10
6.12005e-10
6.26374e-10
6.68897e-10
7.98856e-10
1.09116e-09
9.99812e-10
7.68263e-10
6.56261e-10
6.18376e-10
6.04562e-10
5.98243e-10
5.94729e-10
5.92053e-10
5.90381e-10
5.89008e-10
5.88951e-10
5.90265e-10
5.91871e-10
5.94459e-10
5.97902e-10
6.04119e-10
6.1751e-10
6.54754e-10
7.63139e-10
9.98511e-10
9.25645e-10
7.35391e-10
6.41433e-10
6.08309e-10
5.9538e-10
5.89122e-10
5.85439e-10
5.82514e-10
5.8077e-10
5.79165e-10
5.79104e-10
5.80621e-10
5.82309e-10
5.85132e-10
5.88746e-10
5.94912e-10
6.07407e-10
6.39987e-10
7.30546e-10
9.21499e-10
8.63803e-10
7.05926e-10
6.26845e-10
5.97841e-10
5.85714e-10
5.79487e-10
5.75613e-10
5.72463e-10
5.7061e-10
5.68794e-10
5.68731e-10
5.70431e-10
5.72236e-10
5.75272e-10
5.79077e-10
5.85214e-10
5.96921e-10
6.25441e-10
7.01342e-10
8.57662e-10
8.12286e-10
6.79857e-10
6.12981e-10
5.8751e-10
5.7608e-10
5.6985e-10
5.65767e-10
5.62407e-10
5.6042e-10
5.58407e-10
5.58343e-10
5.60214e-10
5.62159e-10
5.65394e-10
5.69408e-10
5.75545e-10
5.86577e-10
6.11623e-10
6.75536e-10
8.04879e-10
7.69527e-10
6.57097e-10
6.00177e-10
5.77683e-10
5.6684e-10
5.60578e-10
5.56274e-10
5.52718e-10
5.50581e-10
5.48384e-10
5.4832e-10
5.5035e-10
5.5245e-10
5.5587e-10
5.60104e-10
5.66269e-10
5.7674e-10
5.9887e-10
6.53056e-10
7.6146e-10
7.34596e-10
6.37698e-10
5.88817e-10
5.68736e-10
5.58365e-10
5.5205e-10
5.47526e-10
5.43793e-10
5.41502e-10
5.39138e-10
5.39075e-10
5.41247e-10
5.43508e-10
5.47096e-10
5.51547e-10
5.57758e-10
5.67786e-10
5.87535e-10
6.33977e-10
7.26348e-10
7.07554e-10
6.2218e-10
5.79451e-10
5.61215e-10
5.51205e-10
5.44827e-10
5.40104e-10
5.36224e-10
5.33789e-10
5.31285e-10
5.31225e-10
5.33515e-10
5.35924e-10
5.39651e-10
5.44299e-10
5.50565e-10
5.60277e-10
5.7817e-10
6.18779e-10
6.9944e-10
6.90271e-10
6.12027e-10
5.73186e-10
5.56135e-10
5.4635e-10
5.39927e-10
5.35058e-10
5.31084e-10
5.2854e-10
5.25945e-10
5.25888e-10
5.28253e-10
5.30774e-10
5.34591e-10
5.39381e-10
5.45688e-10
5.55215e-10
5.7187e-10
6.08901e-10
6.8239e-10
)
;

boundaryField
{
    fuel
    {
        type            fixedValue;
        value           nonuniform 0();
    }
    wall
    {
        type            zeroGradient;
    }
    outlet
    {
        type            zeroGradient;
    }
    frontAndBack
    {
        type            empty;
    }
    procBoundary1to0
    {
        type            processor;
        value           nonuniform List<scalar> 
21
(
1.87719e-09
1.01159e-09
6.82578e-10
6.01032e-10
5.82241e-10
5.76051e-10
5.73341e-10
5.7311e-10
5.70754e-10
5.71687e-10
5.90557e-10
5.90557e-10
5.90173e-10
5.92181e-10
5.92889e-10
5.95674e-10
6.0185e-10
6.2001e-10
6.90035e-10
9.58469e-10
1.68713e-09
)
;
    }
}


// ************************************************************************* //
