/*--------------------------------*- C++ -*----------------------------------*\
| =========                 |                                                 |
| \\      /  F ield         | OpenFOAM: The Open Source CFD Toolbox           |
|  \\    /   O peration     | Version:  dev                                   |
|   \\  /    A nd           | Web:      www.OpenFOAM.org                      |
|    \\/     M anipulation  |                                                 |
\*---------------------------------------------------------------------------*/
FoamFile
{
    version     2.0;
    format      ascii;
    class       volScalarField;
    location    "0.04";
    object      A2C2HA*;
}
// * * * * * * * * * * * * * * * * * * * * * * * * * * * * * * * * * * * * * //

dimensions      [0 0 0 0 0 0 0];

internalField   nonuniform List<scalar> 
2000
(
4.10883e-11
4.11184e-11
4.11562e-11
4.11603e-11
4.11596e-11
4.11594e-11
4.11579e-11
4.11583e-11
4.11573e-11
4.11578e-11
4.11573e-11
4.11577e-11
4.11574e-11
4.11576e-11
4.11575e-11
4.11576e-11
4.11575e-11
4.11576e-11
4.11575e-11
4.11576e-11
4.11576e-11
4.11576e-11
4.11576e-11
4.11576e-11
4.11576e-11
4.11576e-11
4.11576e-11
4.11576e-11
4.11576e-11
4.11576e-11
4.11576e-11
4.11575e-11
4.11576e-11
4.11575e-11
4.11576e-11
4.11575e-11
4.11576e-11
4.11574e-11
4.11577e-11
4.11573e-11
4.11579e-11
4.11573e-11
4.11583e-11
4.11579e-11
4.11594e-11
4.11596e-11
4.11603e-11
4.11562e-11
4.11184e-11
4.10884e-11
1.52764e-10
1.52817e-10
1.52978e-10
1.53002e-10
1.53001e-10
1.53002e-10
1.52996e-10
1.52998e-10
1.52994e-10
1.52997e-10
1.52994e-10
1.52996e-10
1.52995e-10
1.52996e-10
1.52995e-10
1.52996e-10
1.52995e-10
1.52996e-10
1.52995e-10
1.52996e-10
1.52995e-10
1.52996e-10
1.52995e-10
1.52996e-10
1.52996e-10
1.52996e-10
1.52996e-10
1.52995e-10
1.52996e-10
1.52995e-10
1.52996e-10
1.52995e-10
1.52996e-10
1.52995e-10
1.52996e-10
1.52995e-10
1.52996e-10
1.52995e-10
1.52996e-10
1.52994e-10
1.52997e-10
1.52994e-10
1.52998e-10
1.52996e-10
1.53002e-10
1.53001e-10
1.53002e-10
1.52978e-10
1.52818e-10
1.52764e-10
3.33217e-10
3.33354e-10
3.33707e-10
3.33763e-10
3.33744e-10
3.33755e-10
3.33732e-10
3.33744e-10
3.3373e-10
3.3374e-10
3.33731e-10
3.33738e-10
3.33732e-10
3.33737e-10
3.33733e-10
3.33736e-10
3.33733e-10
3.33736e-10
3.33734e-10
3.33736e-10
3.33735e-10
3.33736e-10
3.33735e-10
3.33735e-10
3.33735e-10
3.33735e-10
3.33735e-10
3.33735e-10
3.33736e-10
3.33735e-10
3.33736e-10
3.33734e-10
3.33736e-10
3.33733e-10
3.33736e-10
3.33733e-10
3.33737e-10
3.33732e-10
3.33738e-10
3.33731e-10
3.3374e-10
3.3373e-10
3.33744e-10
3.33732e-10
3.33755e-10
3.33744e-10
3.33763e-10
3.33707e-10
3.33354e-10
3.33217e-10
5.12668e-10
5.12802e-10
5.13231e-10
5.1325e-10
5.13179e-10
5.13196e-10
5.13148e-10
5.13174e-10
5.13144e-10
5.13165e-10
5.13147e-10
5.13162e-10
5.1315e-10
5.1316e-10
5.13152e-10
5.13159e-10
5.13153e-10
5.13158e-10
5.13155e-10
5.13157e-10
5.13155e-10
5.13157e-10
5.13156e-10
5.13157e-10
5.13156e-10
5.13156e-10
5.13157e-10
5.13156e-10
5.13157e-10
5.13155e-10
5.13157e-10
5.13155e-10
5.13158e-10
5.13153e-10
5.13159e-10
5.13152e-10
5.1316e-10
5.1315e-10
5.13162e-10
5.13147e-10
5.13165e-10
5.13144e-10
5.13173e-10
5.13148e-10
5.13196e-10
5.13179e-10
5.1325e-10
5.13231e-10
5.12802e-10
5.12668e-10
5.86921e-10
5.86894e-10
5.87219e-10
5.87123e-10
5.8699e-10
5.86998e-10
5.86933e-10
5.86964e-10
5.86927e-10
5.86954e-10
5.86931e-10
5.8695e-10
5.86935e-10
5.86947e-10
5.86938e-10
5.86946e-10
5.86939e-10
5.86945e-10
5.86941e-10
5.86944e-10
5.86942e-10
5.86944e-10
5.86942e-10
5.86943e-10
5.86943e-10
5.86943e-10
5.86943e-10
5.86942e-10
5.86944e-10
5.86942e-10
5.86944e-10
5.86941e-10
5.86945e-10
5.86939e-10
5.86946e-10
5.86938e-10
5.86947e-10
5.86935e-10
5.8695e-10
5.86931e-10
5.86954e-10
5.86927e-10
5.86964e-10
5.86933e-10
5.86998e-10
5.8699e-10
5.87123e-10
5.87219e-10
5.86894e-10
5.86921e-10
5.61362e-10
5.61221e-10
5.61485e-10
5.61317e-10
5.6115e-10
5.61153e-10
5.61078e-10
5.61112e-10
5.61071e-10
5.611e-10
5.61075e-10
5.61096e-10
5.6108e-10
5.61094e-10
5.61083e-10
5.61093e-10
5.61085e-10
5.61091e-10
5.61086e-10
5.6109e-10
5.61087e-10
5.6109e-10
5.61088e-10
5.61089e-10
5.61089e-10
5.61089e-10
5.61089e-10
5.61088e-10
5.6109e-10
5.61087e-10
5.6109e-10
5.61086e-10
5.61091e-10
5.61085e-10
5.61093e-10
5.61083e-10
5.61094e-10
5.6108e-10
5.61096e-10
5.61075e-10
5.61101e-10
5.61071e-10
5.61112e-10
5.61078e-10
5.61153e-10
5.61151e-10
5.61317e-10
5.61485e-10
5.61221e-10
5.61362e-10
4.87756e-10
4.87608e-10
4.87904e-10
4.87736e-10
4.87565e-10
4.87569e-10
4.87491e-10
4.87527e-10
4.87483e-10
4.87515e-10
4.87488e-10
4.8751e-10
4.87493e-10
4.87507e-10
4.87496e-10
4.87506e-10
4.87498e-10
4.87505e-10
4.87499e-10
4.87503e-10
4.875e-10
4.87503e-10
4.87501e-10
4.87502e-10
4.87502e-10
4.87502e-10
4.87502e-10
4.87501e-10
4.87503e-10
4.875e-10
4.87503e-10
4.87499e-10
4.87505e-10
4.87498e-10
4.87506e-10
4.87496e-10
4.87508e-10
4.87493e-10
4.8751e-10
4.87488e-10
4.87515e-10
4.87483e-10
4.87527e-10
4.87491e-10
4.87569e-10
4.87565e-10
4.87736e-10
4.87904e-10
4.87608e-10
4.87756e-10
4.03777e-10
4.0369e-10
4.04063e-10
4.03937e-10
4.0378e-10
4.03792e-10
4.03713e-10
4.03752e-10
4.03706e-10
4.03739e-10
4.03711e-10
4.03734e-10
4.03716e-10
4.03731e-10
4.03719e-10
4.03729e-10
4.0372e-10
4.03728e-10
4.03722e-10
4.03726e-10
4.03723e-10
4.03726e-10
4.03724e-10
4.03725e-10
4.03724e-10
4.03724e-10
4.03725e-10
4.03724e-10
4.03726e-10
4.03723e-10
4.03726e-10
4.03722e-10
4.03728e-10
4.0372e-10
4.03729e-10
4.03719e-10
4.03731e-10
4.03716e-10
4.03734e-10
4.03711e-10
4.03739e-10
4.03706e-10
4.03752e-10
4.03713e-10
4.03792e-10
4.0378e-10
4.03937e-10
4.04063e-10
4.0369e-10
4.03777e-10
3.27023e-10
3.27019e-10
3.2747e-10
3.27402e-10
3.27267e-10
3.27287e-10
3.2721e-10
3.2725e-10
3.27204e-10
3.27237e-10
3.27209e-10
3.27232e-10
3.27213e-10
3.27228e-10
3.27216e-10
3.27227e-10
3.27218e-10
3.27225e-10
3.2722e-10
3.27224e-10
3.2722e-10
3.27223e-10
3.27221e-10
3.27222e-10
3.27222e-10
3.27222e-10
3.27222e-10
3.27221e-10
3.27223e-10
3.27221e-10
3.27224e-10
3.2722e-10
3.27225e-10
3.27218e-10
3.27227e-10
3.27216e-10
3.27228e-10
3.27214e-10
3.27232e-10
3.27209e-10
3.27237e-10
3.27204e-10
3.2725e-10
3.27211e-10
3.27287e-10
3.27267e-10
3.27402e-10
3.2747e-10
3.27019e-10
3.27023e-10
2.63288e-10
2.63366e-10
2.63876e-10
2.63863e-10
2.63753e-10
2.63779e-10
2.63707e-10
2.63746e-10
2.63702e-10
2.63734e-10
2.63706e-10
2.63728e-10
2.6371e-10
2.63725e-10
2.63713e-10
2.63723e-10
2.63714e-10
2.63721e-10
2.63716e-10
2.6372e-10
2.63717e-10
2.63719e-10
2.63717e-10
2.63719e-10
2.63718e-10
2.63718e-10
2.63719e-10
2.63717e-10
2.63719e-10
2.63717e-10
2.6372e-10
2.63716e-10
2.63721e-10
2.63714e-10
2.63723e-10
2.63713e-10
2.63725e-10
2.6371e-10
2.63728e-10
2.63706e-10
2.63734e-10
2.63702e-10
2.63746e-10
2.63707e-10
2.63779e-10
2.63753e-10
2.63863e-10
2.63876e-10
2.63366e-10
2.63288e-10
2.12628e-10
2.12776e-10
2.13322e-10
2.13357e-10
2.13269e-10
2.133e-10
2.13233e-10
2.13271e-10
2.13228e-10
2.13258e-10
2.13232e-10
2.13253e-10
2.13236e-10
2.13249e-10
2.13238e-10
2.13248e-10
2.13239e-10
2.13246e-10
2.13241e-10
2.13245e-10
2.13242e-10
2.13244e-10
2.13242e-10
2.13243e-10
2.13243e-10
2.13243e-10
2.13243e-10
2.13242e-10
2.13244e-10
2.13242e-10
2.13245e-10
2.13241e-10
2.13246e-10
2.13239e-10
2.13248e-10
2.13238e-10
2.13249e-10
2.13236e-10
2.13253e-10
2.13232e-10
2.13259e-10
2.13228e-10
2.13271e-10
2.13233e-10
2.133e-10
2.13269e-10
2.13357e-10
2.13322e-10
2.12776e-10
2.12628e-10
1.71587e-10
1.71772e-10
1.72298e-10
1.7236e-10
1.72292e-10
1.72324e-10
1.72264e-10
1.72298e-10
1.72259e-10
1.72286e-10
1.72262e-10
1.72281e-10
1.72265e-10
1.72278e-10
1.72267e-10
1.72276e-10
1.72268e-10
1.72275e-10
1.7227e-10
1.72274e-10
1.72271e-10
1.72273e-10
1.72271e-10
1.72272e-10
1.72272e-10
1.72272e-10
1.72272e-10
1.72271e-10
1.72273e-10
1.72271e-10
1.72274e-10
1.7227e-10
1.72275e-10
1.72268e-10
1.72276e-10
1.72267e-10
1.72278e-10
1.72265e-10
1.72281e-10
1.72262e-10
1.72286e-10
1.72259e-10
1.72298e-10
1.72264e-10
1.72324e-10
1.72292e-10
1.7236e-10
1.72298e-10
1.71772e-10
1.71587e-10
1.40966e-10
1.41194e-10
1.41724e-10
1.41813e-10
1.4176e-10
1.41794e-10
1.41738e-10
1.4177e-10
1.41733e-10
1.41759e-10
1.41736e-10
1.41754e-10
1.41739e-10
1.41751e-10
1.41741e-10
1.41749e-10
1.41742e-10
1.41748e-10
1.41743e-10
1.41747e-10
1.41744e-10
1.41746e-10
1.41745e-10
1.41746e-10
1.41745e-10
1.41745e-10
1.41746e-10
1.41745e-10
1.41746e-10
1.41744e-10
1.41747e-10
1.41744e-10
1.41748e-10
1.41742e-10
1.41749e-10
1.41741e-10
1.41751e-10
1.41739e-10
1.41754e-10
1.41736e-10
1.41759e-10
1.41733e-10
1.41771e-10
1.41738e-10
1.41794e-10
1.4176e-10
1.41813e-10
1.41724e-10
1.41194e-10
1.40966e-10
1.17093e-10
1.1725e-10
1.17683e-10
1.17764e-10
1.17737e-10
1.17763e-10
1.17723e-10
1.17746e-10
1.17718e-10
1.17737e-10
1.1772e-10
1.17733e-10
1.17722e-10
1.17731e-10
1.17723e-10
1.17729e-10
1.17724e-10
1.17728e-10
1.17725e-10
1.17727e-10
1.17725e-10
1.17727e-10
1.17726e-10
1.17726e-10
1.17726e-10
1.17726e-10
1.17726e-10
1.17726e-10
1.17727e-10
1.17725e-10
1.17727e-10
1.17725e-10
1.17728e-10
1.17724e-10
1.17729e-10
1.17723e-10
1.17731e-10
1.17722e-10
1.17733e-10
1.1772e-10
1.17737e-10
1.17719e-10
1.17746e-10
1.17723e-10
1.17763e-10
1.17737e-10
1.17764e-10
1.17683e-10
1.1725e-10
1.17093e-10
9.78684e-11
9.80361e-11
9.84326e-11
9.85196e-11
9.85024e-11
9.85271e-11
9.84917e-11
9.85123e-11
9.84876e-11
9.8504e-11
9.84887e-11
9.85003e-11
9.84903e-11
9.84977e-11
9.84913e-11
9.84965e-11
9.84917e-11
9.84956e-11
9.84926e-11
9.84949e-11
9.84931e-11
9.84944e-11
9.84933e-11
9.8494e-11
9.84937e-11
9.84937e-11
9.8494e-11
9.84933e-11
9.84944e-11
9.84931e-11
9.84949e-11
9.84927e-11
9.84957e-11
9.84918e-11
9.84966e-11
9.84913e-11
9.84978e-11
9.84904e-11
9.85003e-11
9.84888e-11
9.85041e-11
9.84876e-11
9.85123e-11
9.84918e-11
9.85271e-11
9.85024e-11
9.85197e-11
9.84326e-11
9.80361e-11
9.78684e-11
8.32951e-11
8.34749e-11
8.38486e-11
8.39415e-11
8.39317e-11
8.39558e-11
8.39241e-11
8.39428e-11
8.39202e-11
8.3935e-11
8.3921e-11
8.39315e-11
8.39224e-11
8.39291e-11
8.39232e-11
8.39279e-11
8.39235e-11
8.39271e-11
8.39244e-11
8.39265e-11
8.39248e-11
8.3926e-11
8.39249e-11
8.39256e-11
8.39253e-11
8.39253e-11
8.39256e-11
8.3925e-11
8.3926e-11
8.39248e-11
8.39265e-11
8.39244e-11
8.39271e-11
8.39236e-11
8.3928e-11
8.39232e-11
8.39291e-11
8.39225e-11
8.39315e-11
8.39212e-11
8.39351e-11
8.39202e-11
8.39428e-11
8.39242e-11
8.39558e-11
8.39317e-11
8.39416e-11
8.38486e-11
8.34749e-11
8.32951e-11
7.13119e-11
7.15166e-11
7.18858e-11
7.19952e-11
7.19962e-11
7.2022e-11
7.19934e-11
7.20106e-11
7.19894e-11
7.20029e-11
7.19897e-11
7.19992e-11
7.19906e-11
7.19967e-11
7.19912e-11
7.19955e-11
7.19914e-11
7.19948e-11
7.19922e-11
7.19941e-11
7.19925e-11
7.19936e-11
7.19927e-11
7.19933e-11
7.1993e-11
7.1993e-11
7.19933e-11
7.19927e-11
7.19937e-11
7.19925e-11
7.19941e-11
7.19922e-11
7.19948e-11
7.19915e-11
7.19956e-11
7.19912e-11
7.19968e-11
7.19907e-11
7.19992e-11
7.19898e-11
7.20029e-11
7.19894e-11
7.20106e-11
7.19934e-11
7.2022e-11
7.19962e-11
7.19953e-11
7.18858e-11
7.15166e-11
7.13119e-11
6.1996e-11
6.22046e-11
6.25481e-11
6.26574e-11
6.26631e-11
6.26877e-11
6.26621e-11
6.26776e-11
6.26583e-11
6.26703e-11
6.26584e-11
6.26669e-11
6.26591e-11
6.26646e-11
6.26595e-11
6.26634e-11
6.26597e-11
6.26627e-11
6.26604e-11
6.26621e-11
6.26607e-11
6.26617e-11
6.26608e-11
6.26613e-11
6.26611e-11
6.26611e-11
6.26613e-11
6.26608e-11
6.26617e-11
6.26607e-11
6.26621e-11
6.26604e-11
6.26627e-11
6.26597e-11
6.26635e-11
6.26595e-11
6.26646e-11
6.26592e-11
6.26669e-11
6.26585e-11
6.26704e-11
6.26583e-11
6.26777e-11
6.26622e-11
6.26877e-11
6.26631e-11
6.26575e-11
6.25481e-11
6.22046e-11
6.1996e-11
5.41388e-11
5.43662e-11
5.47058e-11
5.48236e-11
5.48316e-11
5.48573e-11
5.48321e-11
5.48476e-11
5.48284e-11
5.48403e-11
5.48285e-11
5.48369e-11
5.48291e-11
5.48345e-11
5.48295e-11
5.48334e-11
5.48297e-11
5.48327e-11
5.48304e-11
5.48321e-11
5.48307e-11
5.48317e-11
5.48308e-11
5.48313e-11
5.48311e-11
5.48311e-11
5.48313e-11
5.48308e-11
5.48317e-11
5.48307e-11
5.48321e-11
5.48304e-11
5.48327e-11
5.48297e-11
5.48334e-11
5.48296e-11
5.48346e-11
5.48292e-11
5.48369e-11
5.48286e-11
5.48404e-11
5.48284e-11
5.48476e-11
5.48322e-11
5.48573e-11
5.48316e-11
5.48237e-11
5.47058e-11
5.43662e-11
5.41388e-11
4.76646e-11
4.78906e-11
4.81997e-11
4.83125e-11
4.8323e-11
4.83467e-11
4.83244e-11
4.8338e-11
4.83208e-11
4.83312e-11
4.83207e-11
4.83281e-11
4.83211e-11
4.83259e-11
4.83214e-11
4.83248e-11
4.83215e-11
4.83242e-11
4.83221e-11
4.83237e-11
4.83224e-11
4.83233e-11
4.83225e-11
4.83229e-11
4.83227e-11
4.83227e-11
4.83229e-11
4.83225e-11
4.83233e-11
4.83224e-11
4.83237e-11
4.83221e-11
4.83242e-11
4.83216e-11
4.83249e-11
4.83214e-11
4.83259e-11
4.83212e-11
4.8328e-11
4.83207e-11
4.83313e-11
4.83208e-11
4.8338e-11
4.83244e-11
4.83467e-11
4.83229e-11
4.83125e-11
4.81997e-11
4.78906e-11
4.76646e-11
4.24719e-11
4.27014e-11
4.29889e-11
4.30986e-11
4.3111e-11
4.31336e-11
4.31133e-11
4.31256e-11
4.31097e-11
4.31192e-11
4.31095e-11
4.31162e-11
4.31098e-11
4.31141e-11
4.311e-11
4.31131e-11
4.31101e-11
4.31125e-11
4.31106e-11
4.3112e-11
4.31108e-11
4.31117e-11
4.31109e-11
4.31114e-11
4.31112e-11
4.31112e-11
4.31114e-11
4.31109e-11
4.31117e-11
4.31109e-11
4.31121e-11
4.31106e-11
4.31126e-11
4.31101e-11
4.31132e-11
4.311e-11
4.31142e-11
4.31099e-11
4.31162e-11
4.31096e-11
4.31193e-11
4.31098e-11
4.31256e-11
4.31133e-11
4.31336e-11
4.3111e-11
4.30986e-11
4.29889e-11
4.27014e-11
4.24719e-11
3.81091e-11
3.83436e-11
3.86117e-11
3.87181e-11
3.87318e-11
3.87534e-11
3.87347e-11
3.8746e-11
3.87313e-11
3.87399e-11
3.87309e-11
3.8737e-11
3.87311e-11
3.87351e-11
3.87312e-11
3.87341e-11
3.87313e-11
3.87335e-11
3.87318e-11
3.87331e-11
3.8732e-11
3.87327e-11
3.8732e-11
3.87325e-11
3.87323e-11
3.87323e-11
3.87325e-11
3.87321e-11
3.87327e-11
3.8732e-11
3.87331e-11
3.87318e-11
3.87336e-11
3.87313e-11
3.87341e-11
3.87313e-11
3.87351e-11
3.87312e-11
3.8737e-11
3.8731e-11
3.87399e-11
3.87313e-11
3.8746e-11
3.87347e-11
3.87533e-11
3.87318e-11
3.87181e-11
3.86117e-11
3.83436e-11
3.81091e-11
3.44099e-11
3.45487e-11
3.47852e-11
3.48842e-11
3.49016e-11
3.49217e-11
3.49061e-11
3.49155e-11
3.49026e-11
3.49096e-11
3.49017e-11
3.49067e-11
3.49015e-11
3.49048e-11
3.49014e-11
3.49038e-11
3.49014e-11
3.49033e-11
3.49017e-11
3.49028e-11
3.49019e-11
3.49025e-11
3.49019e-11
3.49023e-11
3.49021e-11
3.49021e-11
3.49023e-11
3.49019e-11
3.49025e-11
3.49019e-11
3.49028e-11
3.49017e-11
3.49033e-11
3.49014e-11
3.49038e-11
3.49014e-11
3.49048e-11
3.49016e-11
3.49067e-11
3.49018e-11
3.49096e-11
3.49026e-11
3.49155e-11
3.49061e-11
3.49217e-11
3.49015e-11
3.48842e-11
3.47852e-11
3.45488e-11
3.44099e-11
3.12468e-11
3.13877e-11
3.16076e-11
3.17027e-11
3.17207e-11
3.17399e-11
3.17256e-11
3.17342e-11
3.17222e-11
3.17285e-11
3.17212e-11
3.17257e-11
3.17209e-11
3.17239e-11
3.17208e-11
3.17229e-11
3.17207e-11
3.17224e-11
3.1721e-11
3.1722e-11
3.17211e-11
3.17217e-11
3.17212e-11
3.17215e-11
3.17213e-11
3.17213e-11
3.17215e-11
3.17212e-11
3.17217e-11
3.17212e-11
3.1722e-11
3.1721e-11
3.17224e-11
3.17207e-11
3.1723e-11
3.17208e-11
3.17239e-11
3.1721e-11
3.17257e-11
3.17212e-11
3.17286e-11
3.17222e-11
3.17342e-11
3.17256e-11
3.17399e-11
3.17207e-11
3.17027e-11
3.16076e-11
3.13877e-11
3.12468e-11
2.84194e-11
2.85615e-11
2.8771e-11
2.88655e-11
2.88849e-11
2.89038e-11
2.88904e-11
2.88984e-11
2.88869e-11
2.88927e-11
2.88858e-11
2.88899e-11
2.88854e-11
2.88881e-11
2.88851e-11
2.88872e-11
2.8885e-11
2.88867e-11
2.88853e-11
2.88863e-11
2.88854e-11
2.88859e-11
2.88854e-11
2.88857e-11
2.88856e-11
2.88856e-11
2.88857e-11
2.88854e-11
2.8886e-11
2.88854e-11
2.88863e-11
2.88853e-11
2.88867e-11
2.88851e-11
2.88872e-11
2.88852e-11
2.88881e-11
2.88854e-11
2.88899e-11
2.88858e-11
2.88928e-11
2.8887e-11
2.88984e-11
2.88904e-11
2.89038e-11
2.88849e-11
2.88655e-11
2.8771e-11
2.85615e-11
2.84194e-11
2.59625e-11
2.61018e-11
2.62952e-11
2.63848e-11
2.64042e-11
2.6422e-11
2.64098e-11
2.64169e-11
2.64064e-11
2.64116e-11
2.64051e-11
2.64088e-11
2.64047e-11
2.64071e-11
2.64044e-11
2.64062e-11
2.64042e-11
2.64057e-11
2.64045e-11
2.64054e-11
2.64046e-11
2.64051e-11
2.64046e-11
2.64049e-11
2.64047e-11
2.64047e-11
2.64049e-11
2.64046e-11
2.64051e-11
2.64046e-11
2.64054e-11
2.64045e-11
2.64057e-11
2.64043e-11
2.64062e-11
2.64044e-11
2.64071e-11
2.64047e-11
2.64088e-11
2.64052e-11
2.64116e-11
2.64064e-11
2.64169e-11
2.64098e-11
2.6422e-11
2.64042e-11
2.63848e-11
2.62952e-11
2.61018e-11
2.59625e-11
2.38129e-11
2.39492e-11
2.41279e-11
2.42127e-11
2.4232e-11
2.42487e-11
2.42376e-11
2.4244e-11
2.42343e-11
2.42388e-11
2.42329e-11
2.42362e-11
2.42324e-11
2.42346e-11
2.42321e-11
2.42337e-11
2.42319e-11
2.42332e-11
2.42321e-11
2.42329e-11
2.42322e-11
2.42326e-11
2.42322e-11
2.42324e-11
2.42323e-11
2.42323e-11
2.42324e-11
2.42322e-11
2.42326e-11
2.42322e-11
2.42329e-11
2.42321e-11
2.42333e-11
2.42319e-11
2.42337e-11
2.42321e-11
2.42346e-11
2.42324e-11
2.42362e-11
2.4233e-11
2.42389e-11
2.42343e-11
2.4244e-11
2.42376e-11
2.42487e-11
2.4232e-11
2.42127e-11
2.41279e-11
2.39492e-11
2.3813e-11
2.19208e-11
2.20534e-11
2.22191e-11
2.22992e-11
2.23183e-11
2.2334e-11
2.23238e-11
2.23295e-11
2.23205e-11
2.23246e-11
2.23191e-11
2.23221e-11
2.23185e-11
2.23204e-11
2.23181e-11
2.23196e-11
2.2318e-11
2.23192e-11
2.23181e-11
2.23189e-11
2.23182e-11
2.23186e-11
2.23182e-11
2.23184e-11
2.23183e-11
2.23183e-11
2.23184e-11
2.23182e-11
2.23186e-11
2.23182e-11
2.23189e-11
2.23181e-11
2.23192e-11
2.2318e-11
2.23196e-11
2.23182e-11
2.23205e-11
2.23185e-11
2.23221e-11
2.23192e-11
2.23246e-11
2.23205e-11
2.23295e-11
2.23238e-11
2.2334e-11
2.23183e-11
2.22992e-11
2.22191e-11
2.20535e-11
2.19209e-11
2.02462e-11
2.03747e-11
2.05286e-11
2.06042e-11
2.06229e-11
2.06377e-11
2.06283e-11
2.06334e-11
2.06251e-11
2.06287e-11
2.06236e-11
2.06263e-11
2.06229e-11
2.06247e-11
2.06226e-11
2.06239e-11
2.06224e-11
2.06235e-11
2.06225e-11
2.06232e-11
2.06226e-11
2.06229e-11
2.06225e-11
2.06228e-11
2.06227e-11
2.06227e-11
2.06228e-11
2.06226e-11
2.06229e-11
2.06226e-11
2.06232e-11
2.06225e-11
2.06235e-11
2.06224e-11
2.06239e-11
2.06226e-11
2.06247e-11
2.0623e-11
2.06263e-11
2.06237e-11
2.06287e-11
2.06251e-11
2.06334e-11
2.06283e-11
2.06377e-11
2.06229e-11
2.06042e-11
2.05286e-11
2.03747e-11
2.02462e-11
1.87566e-11
1.88808e-11
1.90242e-11
1.90953e-11
1.91135e-11
1.91275e-11
1.91188e-11
1.91234e-11
1.91156e-11
1.91188e-11
1.91141e-11
1.91165e-11
1.91134e-11
1.9115e-11
1.9113e-11
1.91142e-11
1.91128e-11
1.91138e-11
1.91129e-11
1.91135e-11
1.91129e-11
1.91133e-11
1.91129e-11
1.91131e-11
1.9113e-11
1.9113e-11
1.91131e-11
1.91129e-11
1.91133e-11
1.91129e-11
1.91135e-11
1.91129e-11
1.91138e-11
1.91128e-11
1.91142e-11
1.9113e-11
1.9115e-11
1.91134e-11
1.91165e-11
1.91142e-11
1.91189e-11
1.91157e-11
1.91234e-11
1.91188e-11
1.91274e-11
1.91135e-11
1.90953e-11
1.90242e-11
1.88808e-11
1.87566e-11
1.74258e-11
1.75454e-11
1.76792e-11
1.77461e-11
1.77638e-11
1.77769e-11
1.77689e-11
1.7773e-11
1.77658e-11
1.77686e-11
1.77642e-11
1.77663e-11
1.77634e-11
1.77649e-11
1.7763e-11
1.77641e-11
1.77628e-11
1.77637e-11
1.77629e-11
1.77634e-11
1.77629e-11
1.77632e-11
1.77629e-11
1.77631e-11
1.7763e-11
1.7763e-11
1.77631e-11
1.77629e-11
1.77632e-11
1.77629e-11
1.77634e-11
1.77629e-11
1.77637e-11
1.77628e-11
1.77641e-11
1.7763e-11
1.77649e-11
1.77635e-11
1.77663e-11
1.77643e-11
1.77686e-11
1.77658e-11
1.7773e-11
1.77689e-11
1.77769e-11
1.77638e-11
1.77461e-11
1.76792e-11
1.75454e-11
1.74258e-11
1.6232e-11
1.6347e-11
1.64719e-11
1.65348e-11
1.65519e-11
1.65643e-11
1.65569e-11
1.65606e-11
1.65538e-11
1.65563e-11
1.65522e-11
1.6554e-11
1.65514e-11
1.65526e-11
1.65509e-11
1.65519e-11
1.65507e-11
1.65515e-11
1.65508e-11
1.65513e-11
1.65508e-11
1.65511e-11
1.65508e-11
1.65509e-11
1.65508e-11
1.65508e-11
1.65509e-11
1.65508e-11
1.65511e-11
1.65508e-11
1.65513e-11
1.65508e-11
1.65516e-11
1.65507e-11
1.65519e-11
1.65509e-11
1.65527e-11
1.65514e-11
1.6554e-11
1.65522e-11
1.65563e-11
1.65538e-11
1.65606e-11
1.65569e-11
1.65643e-11
1.65519e-11
1.65348e-11
1.64719e-11
1.6347e-11
1.6232e-11
1.51573e-11
1.52675e-11
1.53843e-11
1.54435e-11
1.54599e-11
1.54716e-11
1.54647e-11
1.5468e-11
1.54617e-11
1.54638e-11
1.546e-11
1.54616e-11
1.54592e-11
1.54603e-11
1.54587e-11
1.54596e-11
1.54584e-11
1.54592e-11
1.54585e-11
1.5459e-11
1.54585e-11
1.54587e-11
1.54585e-11
1.54586e-11
1.54585e-11
1.54585e-11
1.54586e-11
1.54585e-11
1.54588e-11
1.54585e-11
1.5459e-11
1.54585e-11
1.54592e-11
1.54585e-11
1.54596e-11
1.54587e-11
1.54603e-11
1.54592e-11
1.54616e-11
1.546e-11
1.54639e-11
1.54617e-11
1.5468e-11
1.54647e-11
1.54716e-11
1.54599e-11
1.54435e-11
1.53843e-11
1.52675e-11
1.51573e-11
1.41865e-11
1.4292e-11
1.44012e-11
1.44569e-11
1.44727e-11
1.44836e-11
1.44772e-11
1.44801e-11
1.44742e-11
1.44761e-11
1.44725e-11
1.4474e-11
1.44716e-11
1.44727e-11
1.44712e-11
1.4472e-11
1.44709e-11
1.44716e-11
1.44709e-11
1.44714e-11
1.44709e-11
1.44712e-11
1.44709e-11
1.4471e-11
1.4471e-11
1.4471e-11
1.4471e-11
1.44709e-11
1.44712e-11
1.44709e-11
1.44714e-11
1.44709e-11
1.44716e-11
1.44709e-11
1.4472e-11
1.44712e-11
1.44727e-11
1.44717e-11
1.4474e-11
1.44726e-11
1.44761e-11
1.44742e-11
1.44801e-11
1.44772e-11
1.44836e-11
1.44727e-11
1.44569e-11
1.44012e-11
1.4292e-11
1.41865e-11
1.33069e-11
1.34076e-11
1.351e-11
1.35622e-11
1.35774e-11
1.35877e-11
1.35817e-11
1.35843e-11
1.35787e-11
1.35804e-11
1.3577e-11
1.35783e-11
1.35761e-11
1.3577e-11
1.35756e-11
1.35763e-11
1.35753e-11
1.3576e-11
1.35753e-11
1.35757e-11
1.35753e-11
1.35755e-11
1.35753e-11
1.35754e-11
1.35754e-11
1.35754e-11
1.35754e-11
1.35753e-11
1.35756e-11
1.35753e-11
1.35757e-11
1.35754e-11
1.3576e-11
1.35753e-11
1.35763e-11
1.35756e-11
1.3577e-11
1.35761e-11
1.35783e-11
1.3577e-11
1.35804e-11
1.35787e-11
1.35843e-11
1.35817e-11
1.35877e-11
1.35774e-11
1.35622e-11
1.351e-11
1.34076e-11
1.33069e-11
1.25077e-11
1.26036e-11
1.26996e-11
1.27487e-11
1.27632e-11
1.27729e-11
1.27672e-11
1.27695e-11
1.27643e-11
1.27657e-11
1.27626e-11
1.27637e-11
1.27616e-11
1.27624e-11
1.27611e-11
1.27618e-11
1.27608e-11
1.27614e-11
1.27608e-11
1.27612e-11
1.27608e-11
1.2761e-11
1.27608e-11
1.27609e-11
1.27608e-11
1.27608e-11
1.27609e-11
1.27608e-11
1.2761e-11
1.27608e-11
1.27612e-11
1.27608e-11
1.27614e-11
1.27609e-11
1.27618e-11
1.27611e-11
1.27624e-11
1.27616e-11
1.27637e-11
1.27626e-11
1.27658e-11
1.27643e-11
1.27695e-11
1.27672e-11
1.27728e-11
1.27632e-11
1.27487e-11
1.26996e-11
1.26036e-11
1.25077e-11
1.17797e-11
1.18707e-11
1.19608e-11
1.2007e-11
1.20208e-11
1.20298e-11
1.20245e-11
1.20266e-11
1.20217e-11
1.20229e-11
1.20199e-11
1.20209e-11
1.20189e-11
1.20196e-11
1.20184e-11
1.2019e-11
1.20181e-11
1.20187e-11
1.20181e-11
1.20184e-11
1.20181e-11
1.20183e-11
1.20181e-11
1.20182e-11
1.20181e-11
1.20181e-11
1.20182e-11
1.20181e-11
1.20183e-11
1.20181e-11
1.20185e-11
1.20181e-11
1.20187e-11
1.20181e-11
1.2019e-11
1.20184e-11
1.20197e-11
1.2019e-11
1.20209e-11
1.20199e-11
1.20229e-11
1.20217e-11
1.20266e-11
1.20245e-11
1.20298e-11
1.20208e-11
1.2007e-11
1.19608e-11
1.18707e-11
1.17797e-11
1.11148e-11
1.12008e-11
1.12856e-11
1.1329e-11
1.13421e-11
1.13506e-11
1.13456e-11
1.13474e-11
1.13428e-11
1.13438e-11
1.1341e-11
1.13418e-11
1.134e-11
1.13406e-11
1.13395e-11
1.134e-11
1.13392e-11
1.13397e-11
1.13391e-11
1.13394e-11
1.13391e-11
1.13393e-11
1.13391e-11
1.13392e-11
1.13391e-11
1.13391e-11
1.13392e-11
1.13391e-11
1.13393e-11
1.13391e-11
1.13395e-11
1.13392e-11
1.13397e-11
1.13392e-11
1.134e-11
1.13395e-11
1.13406e-11
1.134e-11
1.13418e-11
1.1341e-11
1.13438e-11
1.13428e-11
1.13474e-11
1.13456e-11
1.13506e-11
1.13421e-11
1.1329e-11
1.12856e-11
1.12008e-11
1.11148e-11
1.05059e-11
1.05873e-11
1.0667e-11
1.07079e-11
1.07203e-11
1.07282e-11
1.07235e-11
1.0725e-11
1.07207e-11
1.07215e-11
1.07189e-11
1.07196e-11
1.07179e-11
1.07184e-11
1.07173e-11
1.07178e-11
1.0717e-11
1.07175e-11
1.0717e-11
1.07173e-11
1.07169e-11
1.07171e-11
1.07169e-11
1.0717e-11
1.0717e-11
1.0717e-11
1.0717e-11
1.07169e-11
1.07171e-11
1.0717e-11
1.07173e-11
1.0717e-11
1.07175e-11
1.0717e-11
1.07178e-11
1.07173e-11
1.07184e-11
1.07179e-11
1.07196e-11
1.07189e-11
1.07216e-11
1.07207e-11
1.07251e-11
1.07235e-11
1.07282e-11
1.07203e-11
1.07079e-11
1.0667e-11
1.05873e-11
1.05059e-11
9.94694e-12
1.00242e-11
1.0099e-11
1.01375e-11
1.01491e-11
1.01566e-11
1.01521e-11
1.01535e-11
1.01493e-11
1.015e-11
1.01475e-11
1.01481e-11
1.01465e-11
1.0147e-11
1.01459e-11
1.01463e-11
1.01456e-11
1.0146e-11
1.01456e-11
1.01458e-11
1.01455e-11
1.01457e-11
1.01455e-11
1.01456e-11
1.01455e-11
1.01455e-11
1.01456e-11
1.01455e-11
1.01457e-11
1.01455e-11
1.01458e-11
1.01456e-11
1.0146e-11
1.01456e-11
1.01464e-11
1.01459e-11
1.0147e-11
1.01465e-11
1.01481e-11
1.01475e-11
1.015e-11
1.01493e-11
1.01535e-11
1.01521e-11
1.01566e-11
1.01491e-11
1.01375e-11
1.0099e-11
1.00242e-11
9.94694e-12
)
;

boundaryField
{
    fuel
    {
        type            fixedValue;
        value           uniform 0;
    }
    wall
    {
        type            zeroGradient;
    }
    outlet
    {
        type            zeroGradient;
    }
    frontAndBack
    {
        type            empty;
    }
    procBoundary1to0
    {
        type            processor;
        value           nonuniform List<scalar> 
50
(
9.43276e-12
9.5061e-12
9.5763e-12
9.61248e-12
9.62346e-12
9.63042e-12
9.62619e-12
9.62733e-12
9.6234e-12
9.62398e-12
9.62156e-12
9.62209e-12
9.62054e-12
9.62096e-12
9.61997e-12
9.62036e-12
9.61968e-12
9.62005e-12
9.61961e-12
9.61985e-12
9.61956e-12
9.6197e-12
9.61953e-12
9.61961e-12
9.61956e-12
9.61956e-12
9.61961e-12
9.61953e-12
9.61971e-12
9.61957e-12
9.61985e-12
9.61962e-12
9.62006e-12
9.61969e-12
9.62037e-12
9.61998e-12
9.62098e-12
9.62056e-12
9.6221e-12
9.62159e-12
9.62399e-12
9.62341e-12
9.62734e-12
9.6262e-12
9.63042e-12
9.62345e-12
9.61248e-12
9.5763e-12
9.5061e-12
9.43276e-12
)
;
    }
}


// ************************************************************************* //
