/*--------------------------------*- C++ -*----------------------------------*\
| =========                 |                                                 |
| \\      /  F ield         | OpenFOAM: The Open Source CFD Toolbox           |
|  \\    /   O peration     | Version:  dev                                   |
|   \\  /    A nd           | Web:      www.OpenFOAM.org                      |
|    \\/     M anipulation  |                                                 |
\*---------------------------------------------------------------------------*/
FoamFile
{
    version     2.0;
    format      ascii;
    class       volScalarField;
    location    "0.04";
    object      C2H3O;
}
// * * * * * * * * * * * * * * * * * * * * * * * * * * * * * * * * * * * * * //

dimensions      [0 0 0 0 0 0 0];

internalField   nonuniform List<scalar> 
2000
(
0.000205253
0.000205075
0.000204977
0.000204934
0.000204907
0.000204907
0.0002049
0.000204904
0.0002049
0.000204903
0.000204901
0.000204903
0.000204901
0.000204903
0.000204902
0.000204903
0.000204902
0.000204903
0.000204902
0.000204902
0.000204902
0.000204902
0.000204902
0.000204902
0.000204902
0.000204902
0.000204902
0.000204902
0.000204902
0.000204902
0.000204902
0.000204902
0.000204903
0.000204902
0.000204903
0.000204902
0.000204903
0.000204901
0.000204903
0.000204901
0.000204903
0.0002049
0.000204904
0.0002049
0.000204907
0.000204907
0.000204934
0.000204977
0.000205075
0.000205253
6.58708e-05
6.58376e-05
6.582e-05
6.58143e-05
6.58026e-05
6.58063e-05
6.58012e-05
6.58048e-05
6.58017e-05
6.58042e-05
6.58022e-05
6.58039e-05
6.58025e-05
6.58037e-05
6.58028e-05
6.58035e-05
6.58029e-05
6.58034e-05
6.5803e-05
6.58033e-05
6.5803e-05
6.58032e-05
6.58031e-05
6.58032e-05
6.58031e-05
6.58031e-05
6.58032e-05
6.58031e-05
6.58032e-05
6.5803e-05
6.58033e-05
6.5803e-05
6.58034e-05
6.58029e-05
6.58035e-05
6.58028e-05
6.58037e-05
6.58025e-05
6.58039e-05
6.58022e-05
6.58042e-05
6.58017e-05
6.58048e-05
6.58012e-05
6.58063e-05
6.58026e-05
6.58143e-05
6.582e-05
6.58376e-05
6.58708e-05
2.42627e-05
2.42628e-05
2.42672e-05
2.42697e-05
2.42642e-05
2.42674e-05
2.42642e-05
2.42666e-05
2.42645e-05
2.42662e-05
2.42648e-05
2.4266e-05
2.42651e-05
2.42658e-05
2.42652e-05
2.42657e-05
2.42653e-05
2.42656e-05
2.42654e-05
2.42656e-05
2.42654e-05
2.42655e-05
2.42654e-05
2.42655e-05
2.42655e-05
2.42655e-05
2.42655e-05
2.42654e-05
2.42655e-05
2.42654e-05
2.42656e-05
2.42654e-05
2.42656e-05
2.42653e-05
2.42657e-05
2.42652e-05
2.42658e-05
2.42651e-05
2.4266e-05
2.42648e-05
2.42663e-05
2.42645e-05
2.42666e-05
2.42642e-05
2.42674e-05
2.42642e-05
2.42697e-05
2.42672e-05
2.42629e-05
2.42627e-05
9.59052e-06
9.59605e-06
9.60353e-06
9.60665e-06
9.60399e-06
9.60605e-06
9.60418e-06
9.60566e-06
9.6044e-06
9.60542e-06
9.60457e-06
9.60529e-06
9.60471e-06
9.60516e-06
9.60478e-06
9.6051e-06
9.60482e-06
9.60505e-06
9.60488e-06
9.60501e-06
9.6049e-06
9.60498e-06
9.60492e-06
9.60496e-06
9.60494e-06
9.60494e-06
9.60496e-06
9.60492e-06
9.60498e-06
9.6049e-06
9.60501e-06
9.60488e-06
9.60505e-06
9.60482e-06
9.6051e-06
9.60478e-06
9.60516e-06
9.60471e-06
9.60528e-06
9.60458e-06
9.60542e-06
9.6044e-06
9.60566e-06
9.60418e-06
9.60605e-06
9.60399e-06
9.60665e-06
9.60353e-06
9.59607e-06
9.59053e-06
3.94337e-06
3.94803e-06
3.95401e-06
3.95627e-06
3.95499e-06
3.95619e-06
3.95516e-06
3.956e-06
3.95528e-06
3.95586e-06
3.95538e-06
3.95578e-06
3.95545e-06
3.95571e-06
3.95549e-06
3.95567e-06
3.95551e-06
3.95564e-06
3.95555e-06
3.95562e-06
3.95556e-06
3.9556e-06
3.95557e-06
3.95559e-06
3.95558e-06
3.95558e-06
3.95559e-06
3.95557e-06
3.9556e-06
3.95556e-06
3.95562e-06
3.95555e-06
3.95564e-06
3.95551e-06
3.95567e-06
3.95549e-06
3.95571e-06
3.95545e-06
3.95578e-06
3.95538e-06
3.95586e-06
3.95528e-06
3.95599e-06
3.95516e-06
3.9562e-06
3.95499e-06
3.95627e-06
3.95401e-06
3.94804e-06
3.94338e-06
1.66131e-06
1.66431e-06
1.66824e-06
1.66965e-06
1.66904e-06
1.6697e-06
1.66915e-06
1.6696e-06
1.66921e-06
1.66952e-06
1.66927e-06
1.66948e-06
1.66931e-06
1.66944e-06
1.66933e-06
1.66942e-06
1.66934e-06
1.66941e-06
1.66936e-06
1.6694e-06
1.66936e-06
1.66939e-06
1.66937e-06
1.66938e-06
1.66937e-06
1.66937e-06
1.66938e-06
1.66937e-06
1.66939e-06
1.66936e-06
1.6694e-06
1.66936e-06
1.66941e-06
1.66934e-06
1.66942e-06
1.66933e-06
1.66944e-06
1.66931e-06
1.66948e-06
1.66927e-06
1.66953e-06
1.66921e-06
1.6696e-06
1.66915e-06
1.6697e-06
1.66904e-06
1.66965e-06
1.66824e-06
1.66432e-06
1.66131e-06
7.11963e-07
7.13705e-07
7.16057e-07
7.16866e-07
7.1658e-07
7.16935e-07
7.16648e-07
7.16884e-07
7.1668e-07
7.16844e-07
7.16707e-07
7.16821e-07
7.16728e-07
7.168e-07
7.16739e-07
7.16789e-07
7.16744e-07
7.16781e-07
7.16754e-07
7.16775e-07
7.16758e-07
7.1677e-07
7.1676e-07
7.16766e-07
7.16764e-07
7.16764e-07
7.16766e-07
7.1676e-07
7.1677e-07
7.16758e-07
7.16775e-07
7.16754e-07
7.16781e-07
7.16745e-07
7.16789e-07
7.16739e-07
7.168e-07
7.16728e-07
7.1682e-07
7.16708e-07
7.16844e-07
7.1668e-07
7.16884e-07
7.16648e-07
7.16935e-07
7.1658e-07
7.16867e-07
7.16057e-07
7.13708e-07
7.11966e-07
3.09777e-07
3.10731e-07
3.12062e-07
3.12509e-07
3.12377e-07
3.12562e-07
3.12415e-07
3.12537e-07
3.12432e-07
3.12516e-07
3.12445e-07
3.12504e-07
3.12456e-07
3.12493e-07
3.12461e-07
3.12487e-07
3.12464e-07
3.12483e-07
3.12469e-07
3.1248e-07
3.12471e-07
3.12477e-07
3.12472e-07
3.12475e-07
3.12474e-07
3.12474e-07
3.12475e-07
3.12472e-07
3.12477e-07
3.12471e-07
3.1248e-07
3.12469e-07
3.12483e-07
3.12464e-07
3.12487e-07
3.12461e-07
3.12493e-07
3.12456e-07
3.12503e-07
3.12445e-07
3.12516e-07
3.12432e-07
3.12537e-07
3.12415e-07
3.12562e-07
3.12377e-07
3.12509e-07
3.12063e-07
3.10733e-07
3.09779e-07
1.37197e-07
1.37703e-07
1.38431e-07
1.38671e-07
1.38612e-07
1.38706e-07
1.38632e-07
1.38694e-07
1.3864e-07
1.38683e-07
1.38647e-07
1.38677e-07
1.38652e-07
1.38671e-07
1.38655e-07
1.38668e-07
1.38656e-07
1.38666e-07
1.38659e-07
1.38664e-07
1.3866e-07
1.38663e-07
1.3866e-07
1.38662e-07
1.38661e-07
1.38661e-07
1.38662e-07
1.3866e-07
1.38663e-07
1.3866e-07
1.38664e-07
1.38659e-07
1.38666e-07
1.38656e-07
1.38668e-07
1.38655e-07
1.38671e-07
1.38652e-07
1.38676e-07
1.38647e-07
1.38683e-07
1.3864e-07
1.38694e-07
1.38632e-07
1.38706e-07
1.38612e-07
1.38671e-07
1.38431e-07
1.37704e-07
1.37198e-07
6.22828e-08
6.25466e-08
6.29379e-08
6.30651e-08
6.30384e-08
6.30865e-08
6.30492e-08
6.30804e-08
6.30531e-08
6.30747e-08
6.30564e-08
6.30715e-08
6.30591e-08
6.30685e-08
6.30605e-08
6.30671e-08
6.30612e-08
6.30661e-08
6.30624e-08
6.30652e-08
6.3063e-08
6.30646e-08
6.30632e-08
6.30641e-08
6.30638e-08
6.30638e-08
6.30641e-08
6.30632e-08
6.30646e-08
6.3063e-08
6.30652e-08
6.30624e-08
6.30661e-08
6.30612e-08
6.30671e-08
6.30605e-08
6.30686e-08
6.30592e-08
6.30714e-08
6.30565e-08
6.30748e-08
6.30531e-08
6.30803e-08
6.30492e-08
6.30865e-08
6.30383e-08
6.30652e-08
6.2938e-08
6.2547e-08
6.22832e-08
2.94419e-08
2.95811e-08
2.9793e-08
2.98612e-08
2.98491e-08
2.9874e-08
2.98548e-08
2.98709e-08
2.98567e-08
2.98679e-08
2.98584e-08
2.98662e-08
2.98598e-08
2.98647e-08
2.98605e-08
2.98639e-08
2.98609e-08
2.98634e-08
2.98615e-08
2.9863e-08
2.98618e-08
2.98626e-08
2.98619e-08
2.98624e-08
2.98622e-08
2.98622e-08
2.98624e-08
2.98619e-08
2.98626e-08
2.98618e-08
2.9863e-08
2.98615e-08
2.98634e-08
2.98609e-08
2.98639e-08
2.98605e-08
2.98647e-08
2.98598e-08
2.98662e-08
2.98585e-08
2.98679e-08
2.98568e-08
2.98709e-08
2.98549e-08
2.9874e-08
2.98491e-08
2.98612e-08
2.9793e-08
2.95812e-08
2.94421e-08
1.43933e-08
1.44624e-08
1.45682e-08
1.4602e-08
1.45966e-08
1.46086e-08
1.45993e-08
1.46071e-08
1.46002e-08
1.46056e-08
1.4601e-08
1.46047e-08
1.46016e-08
1.4604e-08
1.4602e-08
1.46036e-08
1.46021e-08
1.46034e-08
1.46025e-08
1.46032e-08
1.46026e-08
1.4603e-08
1.46027e-08
1.46029e-08
1.46028e-08
1.46028e-08
1.46029e-08
1.46027e-08
1.4603e-08
1.46026e-08
1.46032e-08
1.46025e-08
1.46034e-08
1.46021e-08
1.46036e-08
1.4602e-08
1.4604e-08
1.46016e-08
1.46047e-08
1.4601e-08
1.46056e-08
1.46002e-08
1.4607e-08
1.45993e-08
1.46086e-08
1.45966e-08
1.4602e-08
1.45682e-08
1.44624e-08
1.43934e-08
7.77922e-09
7.81948e-09
7.88028e-09
7.89959e-09
7.89668e-09
7.90332e-09
7.89806e-09
7.90238e-09
7.89848e-09
7.90152e-09
7.89894e-09
7.90104e-09
7.8993e-09
7.90062e-09
7.89949e-09
7.90041e-09
7.89958e-09
7.90028e-09
7.89976e-09
7.90016e-09
7.89984e-09
7.90007e-09
7.89987e-09
7.9e-09
7.89995e-09
7.89995e-09
7.9e-09
7.89988e-09
7.90007e-09
7.89984e-09
7.90016e-09
7.89977e-09
7.90028e-09
7.89959e-09
7.90042e-09
7.89949e-09
7.90063e-09
7.89931e-09
7.90103e-09
7.89895e-09
7.90153e-09
7.89849e-09
7.90238e-09
7.89806e-09
7.90333e-09
7.89668e-09
7.8996e-09
7.88028e-09
7.81952e-09
7.77927e-09
4.65053e-09
4.66641e-09
4.69533e-09
4.70458e-09
4.70419e-09
4.70725e-09
4.70509e-09
4.70697e-09
4.70528e-09
4.70659e-09
4.70546e-09
4.70636e-09
4.7056e-09
4.70617e-09
4.70568e-09
4.70607e-09
4.70571e-09
4.70601e-09
4.70579e-09
4.70596e-09
4.70582e-09
4.70592e-09
4.70583e-09
4.70588e-09
4.70586e-09
4.70586e-09
4.70588e-09
4.70583e-09
4.70592e-09
4.70582e-09
4.70596e-09
4.70579e-09
4.70601e-09
4.70571e-09
4.70608e-09
4.70568e-09
4.70617e-09
4.70561e-09
4.70636e-09
4.70547e-09
4.70659e-09
4.70528e-09
4.70697e-09
4.70509e-09
4.70726e-09
4.70419e-09
4.70458e-09
4.69533e-09
4.66643e-09
4.65056e-09
3.06487e-09
3.07417e-09
3.09097e-09
3.09633e-09
3.09622e-09
3.09793e-09
3.09671e-09
3.09776e-09
3.0968e-09
3.09753e-09
3.09689e-09
3.0974e-09
3.09697e-09
3.09729e-09
3.09701e-09
3.09724e-09
3.09703e-09
3.0972e-09
3.09708e-09
3.09717e-09
3.09709e-09
3.09715e-09
3.0971e-09
3.09713e-09
3.09712e-09
3.09712e-09
3.09713e-09
3.0971e-09
3.09715e-09
3.09709e-09
3.09717e-09
3.09708e-09
3.0972e-09
3.09703e-09
3.09724e-09
3.09701e-09
3.09729e-09
3.09697e-09
3.0974e-09
3.0969e-09
3.09754e-09
3.0968e-09
3.09776e-09
3.09671e-09
3.09793e-09
3.09622e-09
3.09634e-09
3.09097e-09
3.07418e-09
3.06488e-09
2.25709e-09
2.26345e-09
2.27467e-09
2.27828e-09
2.27829e-09
2.27939e-09
2.2786e-09
2.27927e-09
2.27864e-09
2.27912e-09
2.2787e-09
2.27903e-09
2.27875e-09
2.27896e-09
2.27878e-09
2.27892e-09
2.27879e-09
2.2789e-09
2.27882e-09
2.27888e-09
2.27883e-09
2.27887e-09
2.27884e-09
2.27885e-09
2.27885e-09
2.27885e-09
2.27885e-09
2.27884e-09
2.27887e-09
2.27883e-09
2.27888e-09
2.27882e-09
2.2789e-09
2.27879e-09
2.27893e-09
2.27878e-09
2.27896e-09
2.27876e-09
2.27903e-09
2.27871e-09
2.27912e-09
2.27864e-09
2.27927e-09
2.2786e-09
2.27939e-09
2.27829e-09
2.27828e-09
2.27467e-09
2.26345e-09
2.25709e-09
1.78102e-09
1.78637e-09
1.79514e-09
1.79825e-09
1.79851e-09
1.79937e-09
1.7988e-09
1.79928e-09
1.79882e-09
1.79916e-09
1.79885e-09
1.79908e-09
1.79888e-09
1.79902e-09
1.79889e-09
1.79899e-09
1.7989e-09
1.79898e-09
1.79892e-09
1.79896e-09
1.79892e-09
1.79895e-09
1.79893e-09
1.79894e-09
1.79893e-09
1.79893e-09
1.79894e-09
1.79893e-09
1.79895e-09
1.79892e-09
1.79896e-09
1.79892e-09
1.79898e-09
1.7989e-09
1.799e-09
1.79889e-09
1.79902e-09
1.79888e-09
1.79908e-09
1.79885e-09
1.79916e-09
1.79882e-09
1.79928e-09
1.7988e-09
1.79936e-09
1.79851e-09
1.79825e-09
1.79514e-09
1.78637e-09
1.78102e-09
1.49422e-09
1.49866e-09
1.50555e-09
1.50808e-09
1.50838e-09
1.50905e-09
1.50863e-09
1.50899e-09
1.50864e-09
1.50889e-09
1.50866e-09
1.50883e-09
1.50867e-09
1.50878e-09
1.50868e-09
1.50876e-09
1.50869e-09
1.50875e-09
1.5087e-09
1.50873e-09
1.50871e-09
1.50873e-09
1.50871e-09
1.50872e-09
1.50871e-09
1.50871e-09
1.50872e-09
1.50871e-09
1.50873e-09
1.50871e-09
1.50873e-09
1.5087e-09
1.50875e-09
1.50869e-09
1.50876e-09
1.50868e-09
1.50878e-09
1.50867e-09
1.50883e-09
1.50866e-09
1.50889e-09
1.50864e-09
1.50899e-09
1.50863e-09
1.50905e-09
1.50838e-09
1.50808e-09
1.50555e-09
1.49866e-09
1.49422e-09
1.29465e-09
1.29897e-09
1.30518e-09
1.30759e-09
1.30789e-09
1.3085e-09
1.30812e-09
1.30844e-09
1.30812e-09
1.30834e-09
1.30813e-09
1.30829e-09
1.30815e-09
1.30825e-09
1.30816e-09
1.30822e-09
1.30816e-09
1.30821e-09
1.30817e-09
1.3082e-09
1.30818e-09
1.30819e-09
1.30818e-09
1.30819e-09
1.30818e-09
1.30818e-09
1.30819e-09
1.30818e-09
1.30819e-09
1.30818e-09
1.3082e-09
1.30817e-09
1.30821e-09
1.30816e-09
1.30823e-09
1.30816e-09
1.30825e-09
1.30815e-09
1.30829e-09
1.30813e-09
1.30834e-09
1.30812e-09
1.30844e-09
1.30812e-09
1.30849e-09
1.30789e-09
1.30759e-09
1.30518e-09
1.29897e-09
1.29465e-09
1.15155e-09
1.15551e-09
1.16075e-09
1.16287e-09
1.16319e-09
1.16371e-09
1.1634e-09
1.16366e-09
1.1634e-09
1.16358e-09
1.16341e-09
1.16353e-09
1.16342e-09
1.1635e-09
1.16342e-09
1.16348e-09
1.16343e-09
1.16347e-09
1.16344e-09
1.16346e-09
1.16344e-09
1.16345e-09
1.16344e-09
1.16345e-09
1.16345e-09
1.16345e-09
1.16345e-09
1.16344e-09
1.16345e-09
1.16344e-09
1.16346e-09
1.16344e-09
1.16347e-09
1.16343e-09
1.16348e-09
1.16342e-09
1.1635e-09
1.16342e-09
1.16353e-09
1.16341e-09
1.16358e-09
1.1634e-09
1.16366e-09
1.1634e-09
1.1637e-09
1.16319e-09
1.16287e-09
1.16075e-09
1.15551e-09
1.15155e-09
1.04782e-09
1.05168e-09
1.05634e-09
1.05831e-09
1.05865e-09
1.05911e-09
1.05885e-09
1.05907e-09
1.05885e-09
1.059e-09
1.05885e-09
1.05896e-09
1.05886e-09
1.05892e-09
1.05886e-09
1.05891e-09
1.05886e-09
1.0589e-09
1.05887e-09
1.05889e-09
1.05887e-09
1.05889e-09
1.05887e-09
1.05888e-09
1.05888e-09
1.05888e-09
1.05888e-09
1.05887e-09
1.05889e-09
1.05887e-09
1.05889e-09
1.05887e-09
1.0589e-09
1.05886e-09
1.05891e-09
1.05886e-09
1.05892e-09
1.05886e-09
1.05896e-09
1.05885e-09
1.059e-09
1.05885e-09
1.05907e-09
1.05885e-09
1.05911e-09
1.05865e-09
1.05831e-09
1.05634e-09
1.05168e-09
1.04782e-09
9.67321e-10
9.71188e-10
9.7542e-10
9.77266e-10
9.77616e-10
9.78038e-10
9.77817e-10
9.78011e-10
9.77809e-10
9.77941e-10
9.77811e-10
9.77902e-10
9.77815e-10
9.77873e-10
9.77817e-10
9.77859e-10
9.77818e-10
9.77851e-10
9.77826e-10
9.77844e-10
9.77828e-10
9.77839e-10
9.77829e-10
9.77834e-10
9.77832e-10
9.77832e-10
9.77835e-10
9.77829e-10
9.77839e-10
9.77828e-10
9.77844e-10
9.77825e-10
9.77851e-10
9.77818e-10
9.77859e-10
9.77817e-10
9.77874e-10
9.77816e-10
9.77902e-10
9.77812e-10
9.77942e-10
9.77809e-10
9.78011e-10
9.77817e-10
9.78038e-10
9.77616e-10
9.77266e-10
9.7542e-10
9.71189e-10
9.67321e-10
9.03427e-10
9.05633e-10
9.09279e-10
9.10961e-10
9.11367e-10
9.11751e-10
9.11585e-10
9.1174e-10
9.11572e-10
9.11674e-10
9.11565e-10
9.11635e-10
9.11562e-10
9.11607e-10
9.1156e-10
9.11593e-10
9.11559e-10
9.11585e-10
9.11564e-10
9.11579e-10
9.11565e-10
9.11574e-10
9.11565e-10
9.1157e-10
9.11568e-10
9.11568e-10
9.1157e-10
9.11566e-10
9.11574e-10
9.11566e-10
9.11579e-10
9.11564e-10
9.11585e-10
9.11559e-10
9.11593e-10
9.1156e-10
9.11607e-10
9.11562e-10
9.11634e-10
9.11565e-10
9.11674e-10
9.11572e-10
9.1174e-10
9.11584e-10
9.1175e-10
9.11366e-10
9.10961e-10
9.09278e-10
9.05633e-10
9.03427e-10
8.51877e-10
8.5411e-10
8.57466e-10
8.59061e-10
8.59474e-10
8.59833e-10
8.59689e-10
8.59827e-10
8.59676e-10
8.59764e-10
8.59666e-10
8.59727e-10
8.59662e-10
8.59701e-10
8.59658e-10
8.59687e-10
8.59657e-10
8.5968e-10
8.59661e-10
8.59674e-10
8.59662e-10
8.5967e-10
8.59662e-10
8.59666e-10
8.59664e-10
8.59664e-10
8.59666e-10
8.59662e-10
8.5967e-10
8.59662e-10
8.59674e-10
8.59661e-10
8.5968e-10
8.59657e-10
8.59687e-10
8.59658e-10
8.59701e-10
8.59662e-10
8.59727e-10
8.59667e-10
8.59765e-10
8.59676e-10
8.59827e-10
8.59689e-10
8.59833e-10
8.59473e-10
8.59061e-10
8.57466e-10
8.5411e-10
8.51877e-10
8.08175e-10
8.1043e-10
8.13612e-10
8.15183e-10
8.15615e-10
8.15963e-10
8.15834e-10
8.15959e-10
8.15818e-10
8.15896e-10
8.15804e-10
8.15858e-10
8.15797e-10
8.15832e-10
8.15793e-10
8.15818e-10
8.1579e-10
8.15811e-10
8.15794e-10
8.15806e-10
8.15795e-10
8.15802e-10
8.15794e-10
8.15798e-10
8.15797e-10
8.15797e-10
8.15798e-10
8.15795e-10
8.15802e-10
8.15795e-10
8.15806e-10
8.15794e-10
8.15811e-10
8.1579e-10
8.15819e-10
8.15793e-10
8.15832e-10
8.15797e-10
8.15858e-10
8.15805e-10
8.15896e-10
8.15818e-10
8.15959e-10
8.15834e-10
8.15963e-10
8.15614e-10
8.15183e-10
8.13612e-10
8.1043e-10
8.08175e-10
7.7199e-10
7.74212e-10
7.77152e-10
7.78641e-10
7.79074e-10
7.79402e-10
7.79291e-10
7.79401e-10
7.79274e-10
7.79341e-10
7.79258e-10
7.79304e-10
7.79249e-10
7.79279e-10
7.79243e-10
7.79266e-10
7.7924e-10
7.79259e-10
7.79243e-10
7.79254e-10
7.79244e-10
7.7925e-10
7.79244e-10
7.79247e-10
7.79245e-10
7.79245e-10
7.79247e-10
7.79244e-10
7.7925e-10
7.79244e-10
7.79254e-10
7.79243e-10
7.79259e-10
7.79241e-10
7.79266e-10
7.79243e-10
7.79279e-10
7.79249e-10
7.79304e-10
7.79258e-10
7.79341e-10
7.79273e-10
7.79401e-10
7.79291e-10
7.79401e-10
7.79074e-10
7.78641e-10
7.77151e-10
7.74212e-10
7.7199e-10
7.41686e-10
7.43879e-10
7.46613e-10
7.48031e-10
7.48464e-10
7.48774e-10
7.48678e-10
7.48775e-10
7.4866e-10
7.48717e-10
7.48642e-10
7.48681e-10
7.48631e-10
7.48657e-10
7.48625e-10
7.48644e-10
7.48621e-10
7.48638e-10
7.48624e-10
7.48633e-10
7.48624e-10
7.48629e-10
7.48623e-10
7.48626e-10
7.48625e-10
7.48625e-10
7.48626e-10
7.48624e-10
7.48629e-10
7.48624e-10
7.48633e-10
7.48624e-10
7.48638e-10
7.48622e-10
7.48645e-10
7.48625e-10
7.48657e-10
7.48631e-10
7.48681e-10
7.48642e-10
7.48717e-10
7.4866e-10
7.48775e-10
7.48678e-10
7.48773e-10
7.48464e-10
7.48031e-10
7.46613e-10
7.43879e-10
7.41686e-10
7.16031e-10
7.18192e-10
7.20757e-10
7.22109e-10
7.22542e-10
7.22836e-10
7.22753e-10
7.22839e-10
7.22733e-10
7.22783e-10
7.22713e-10
7.22747e-10
7.22701e-10
7.22724e-10
7.22694e-10
7.22711e-10
7.2269e-10
7.22705e-10
7.22692e-10
7.22701e-10
7.22692e-10
7.22697e-10
7.22691e-10
7.22694e-10
7.22693e-10
7.22693e-10
7.22694e-10
7.22691e-10
7.22697e-10
7.22692e-10
7.227e-10
7.22692e-10
7.22705e-10
7.2269e-10
7.22711e-10
7.22694e-10
7.22724e-10
7.22701e-10
7.22747e-10
7.22714e-10
7.22783e-10
7.22733e-10
7.22839e-10
7.22753e-10
7.22836e-10
7.22542e-10
7.22109e-10
7.20757e-10
7.18192e-10
7.16031e-10
6.94076e-10
6.96203e-10
6.98627e-10
6.9992e-10
7.00351e-10
7.00632e-10
7.0056e-10
7.00636e-10
7.00538e-10
7.00581e-10
7.00516e-10
7.00545e-10
7.00503e-10
7.00522e-10
7.00495e-10
7.0051e-10
7.0049e-10
7.00504e-10
7.00492e-10
7.00499e-10
7.00492e-10
7.00496e-10
7.00491e-10
7.00493e-10
7.00492e-10
7.00492e-10
7.00493e-10
7.00491e-10
7.00496e-10
7.00492e-10
7.00499e-10
7.00492e-10
7.00504e-10
7.00491e-10
7.0051e-10
7.00495e-10
7.00522e-10
7.00503e-10
7.00545e-10
7.00516e-10
7.00581e-10
7.00538e-10
7.00636e-10
7.00559e-10
7.00631e-10
7.0035e-10
6.99919e-10
6.98627e-10
6.96203e-10
6.94076e-10
6.75081e-10
6.77173e-10
6.79479e-10
6.80717e-10
6.81146e-10
6.81416e-10
6.81352e-10
6.81421e-10
6.8133e-10
6.81366e-10
6.81305e-10
6.81331e-10
6.81291e-10
6.81307e-10
6.81282e-10
6.81295e-10
6.81277e-10
6.81289e-10
6.81278e-10
6.81285e-10
6.81278e-10
6.81281e-10
6.81277e-10
6.81279e-10
6.81278e-10
6.81278e-10
6.81279e-10
6.81277e-10
6.81281e-10
6.81278e-10
6.81285e-10
6.81278e-10
6.81289e-10
6.81277e-10
6.81295e-10
6.81282e-10
6.81307e-10
6.81291e-10
6.8133e-10
6.81306e-10
6.81366e-10
6.8133e-10
6.81421e-10
6.81352e-10
6.81416e-10
6.81146e-10
6.80717e-10
6.79479e-10
6.77173e-10
6.75081e-10
6.58465e-10
6.60523e-10
6.62729e-10
6.63918e-10
6.64344e-10
6.64603e-10
6.64547e-10
6.64609e-10
6.64522e-10
6.64553e-10
6.64496e-10
6.64518e-10
6.6448e-10
6.64495e-10
6.6447e-10
6.64482e-10
6.64466e-10
6.64476e-10
6.64466e-10
6.64472e-10
6.64465e-10
6.64469e-10
6.64464e-10
6.64466e-10
6.64465e-10
6.64465e-10
6.64466e-10
6.64464e-10
6.64469e-10
6.64465e-10
6.64472e-10
6.64466e-10
6.64476e-10
6.64466e-10
6.64482e-10
6.64471e-10
6.64495e-10
6.6448e-10
6.64518e-10
6.64496e-10
6.64553e-10
6.64522e-10
6.64608e-10
6.64547e-10
6.64603e-10
6.64343e-10
6.63918e-10
6.62729e-10
6.60523e-10
6.58465e-10
6.43771e-10
6.45795e-10
6.47915e-10
6.49059e-10
6.49481e-10
6.49732e-10
6.49681e-10
6.49737e-10
6.49655e-10
6.49681e-10
6.49627e-10
6.49645e-10
6.49609e-10
6.49622e-10
6.49599e-10
6.49609e-10
6.49594e-10
6.49603e-10
6.49593e-10
6.49599e-10
6.49593e-10
6.49596e-10
6.49592e-10
6.49594e-10
6.49593e-10
6.49593e-10
6.49594e-10
6.49592e-10
6.49596e-10
6.49593e-10
6.49599e-10
6.49593e-10
6.49603e-10
6.49594e-10
6.4961e-10
6.49599e-10
6.49622e-10
6.49609e-10
6.49645e-10
6.49627e-10
6.49681e-10
6.49655e-10
6.49736e-10
6.49681e-10
6.49731e-10
6.49481e-10
6.49059e-10
6.47915e-10
6.45795e-10
6.43771e-10
6.30636e-10
6.32625e-10
6.34671e-10
6.35774e-10
6.36192e-10
6.36434e-10
6.36388e-10
6.36438e-10
6.3636e-10
6.36382e-10
6.3633e-10
6.36345e-10
6.36311e-10
6.36322e-10
6.363e-10
6.36309e-10
6.36294e-10
6.36303e-10
6.36294e-10
6.36299e-10
6.36293e-10
6.36296e-10
6.36292e-10
6.36294e-10
6.36293e-10
6.36293e-10
6.36294e-10
6.36292e-10
6.36296e-10
6.36293e-10
6.36299e-10
6.36294e-10
6.36303e-10
6.36294e-10
6.36309e-10
6.363e-10
6.36322e-10
6.36311e-10
6.36345e-10
6.3633e-10
6.36382e-10
6.3636e-10
6.36438e-10
6.36388e-10
6.36434e-10
6.36192e-10
6.35774e-10
6.34671e-10
6.32625e-10
6.30636e-10
6.1877e-10
6.20724e-10
6.22705e-10
6.2377e-10
6.24184e-10
6.24418e-10
6.24376e-10
6.24421e-10
6.24346e-10
6.24364e-10
6.24313e-10
6.24327e-10
6.24293e-10
6.24303e-10
6.24282e-10
6.2429e-10
6.24276e-10
6.24284e-10
6.24275e-10
6.2428e-10
6.24274e-10
6.24276e-10
6.24273e-10
6.24274e-10
6.24273e-10
6.24273e-10
6.24274e-10
6.24273e-10
6.24276e-10
6.24274e-10
6.2428e-10
6.24275e-10
6.24284e-10
6.24276e-10
6.2429e-10
6.24282e-10
6.24303e-10
6.24293e-10
6.24326e-10
6.24314e-10
6.24364e-10
6.24346e-10
6.24421e-10
6.24375e-10
6.24418e-10
6.24183e-10
6.2377e-10
6.22705e-10
6.20724e-10
6.1877e-10
6.07943e-10
6.0986e-10
6.11785e-10
6.12815e-10
6.13223e-10
6.1345e-10
6.1341e-10
6.13451e-10
6.13378e-10
6.13393e-10
6.13344e-10
6.13355e-10
6.13323e-10
6.13331e-10
6.1331e-10
6.13318e-10
6.13304e-10
6.13311e-10
6.13303e-10
6.13307e-10
6.13301e-10
6.13304e-10
6.133e-10
6.13302e-10
6.13301e-10
6.13301e-10
6.13302e-10
6.133e-10
6.13304e-10
6.13301e-10
6.13307e-10
6.13302e-10
6.13311e-10
6.13304e-10
6.13318e-10
6.1331e-10
6.13331e-10
6.13323e-10
6.13355e-10
6.13344e-10
6.13393e-10
6.13378e-10
6.13451e-10
6.1341e-10
6.1345e-10
6.13223e-10
6.12815e-10
6.11784e-10
6.0986e-10
6.07943e-10
5.9797e-10
5.99847e-10
6.01722e-10
6.0272e-10
6.03122e-10
6.03343e-10
6.03304e-10
6.03341e-10
6.0327e-10
6.03282e-10
6.03234e-10
6.03243e-10
6.03211e-10
6.03218e-10
6.03198e-10
6.03205e-10
6.03191e-10
6.03198e-10
6.0319e-10
6.03194e-10
6.03188e-10
6.03191e-10
6.03187e-10
6.03189e-10
6.03188e-10
6.03188e-10
6.03189e-10
6.03187e-10
6.03191e-10
6.03189e-10
6.03194e-10
6.0319e-10
6.03198e-10
6.03191e-10
6.03205e-10
6.03198e-10
6.03218e-10
6.03211e-10
6.03243e-10
6.03234e-10
6.03282e-10
6.0327e-10
6.03341e-10
6.03304e-10
6.03342e-10
6.03122e-10
6.0272e-10
6.01722e-10
5.99847e-10
5.97969e-10
5.88702e-10
5.90537e-10
5.92367e-10
5.93336e-10
5.93731e-10
5.93945e-10
5.93908e-10
5.93941e-10
5.93871e-10
5.9388e-10
5.93833e-10
5.9384e-10
5.93809e-10
5.93815e-10
5.93795e-10
5.93801e-10
5.93788e-10
5.93794e-10
5.93786e-10
5.9379e-10
5.93785e-10
5.93787e-10
5.93784e-10
5.93785e-10
5.93784e-10
5.93784e-10
5.93785e-10
5.93784e-10
5.93787e-10
5.93785e-10
5.9379e-10
5.93786e-10
5.93794e-10
5.93788e-10
5.93801e-10
5.93795e-10
5.93815e-10
5.93809e-10
5.9384e-10
5.93833e-10
5.9388e-10
5.93871e-10
5.93941e-10
5.93908e-10
5.93945e-10
5.93731e-10
5.93336e-10
5.92367e-10
5.90537e-10
5.88702e-10
5.8002e-10
5.81808e-10
5.836e-10
5.84541e-10
5.84928e-10
5.85136e-10
5.85099e-10
5.85129e-10
5.8506e-10
5.85066e-10
5.8502e-10
5.85025e-10
5.84995e-10
5.85e-10
5.8498e-10
5.84986e-10
5.84973e-10
5.84979e-10
5.84971e-10
5.84974e-10
5.84969e-10
5.84971e-10
5.84968e-10
5.84969e-10
5.84968e-10
5.84968e-10
5.84969e-10
5.84968e-10
5.84971e-10
5.84969e-10
5.84974e-10
5.84971e-10
5.84978e-10
5.84973e-10
5.84986e-10
5.8498e-10
5.85e-10
5.84995e-10
5.85025e-10
5.8502e-10
5.85066e-10
5.8506e-10
5.85128e-10
5.85099e-10
5.85135e-10
5.84928e-10
5.84541e-10
5.836e-10
5.81808e-10
5.8002e-10
5.71824e-10
5.7357e-10
5.75322e-10
5.76238e-10
5.76616e-10
5.76817e-10
5.76781e-10
5.76807e-10
5.76739e-10
5.76743e-10
5.76697e-10
5.76701e-10
5.76671e-10
5.76674e-10
5.76655e-10
5.7666e-10
5.76647e-10
5.76653e-10
5.76645e-10
5.76648e-10
5.76643e-10
5.76645e-10
5.76642e-10
5.76643e-10
5.76642e-10
5.76642e-10
5.76643e-10
5.76642e-10
5.76645e-10
5.76643e-10
5.76648e-10
5.76645e-10
5.76653e-10
5.76648e-10
5.7666e-10
5.76655e-10
5.76674e-10
5.76671e-10
5.76701e-10
5.76697e-10
5.76743e-10
5.76739e-10
5.76807e-10
5.76781e-10
5.76817e-10
5.76615e-10
5.76238e-10
5.75322e-10
5.7357e-10
5.71824e-10
5.64035e-10
5.65744e-10
5.67456e-10
5.68347e-10
5.68715e-10
5.68911e-10
5.68874e-10
5.68897e-10
5.6883e-10
5.68831e-10
5.68785e-10
5.68787e-10
5.68758e-10
5.6876e-10
5.68742e-10
5.68746e-10
5.68733e-10
5.68738e-10
5.68731e-10
5.68734e-10
5.68729e-10
5.6873e-10
5.68727e-10
5.68728e-10
5.68728e-10
5.68728e-10
5.68728e-10
5.68727e-10
5.6873e-10
5.68729e-10
5.68734e-10
5.68731e-10
5.68738e-10
5.68733e-10
5.68746e-10
5.68742e-10
5.6876e-10
5.68758e-10
5.68787e-10
5.68785e-10
5.68831e-10
5.68829e-10
5.68897e-10
5.68874e-10
5.6891e-10
5.68714e-10
5.68347e-10
5.67456e-10
5.65744e-10
5.64034e-10
)
;

boundaryField
{
    fuel
    {
        type            fixedValue;
        value           uniform 0;
    }
    wall
    {
        type            zeroGradient;
    }
    outlet
    {
        type            zeroGradient;
    }
    frontAndBack
    {
        type            empty;
    }
    procBoundary1to0
    {
        type            processor;
        value           nonuniform List<scalar> 
50
(
5.56589e-10
5.58266e-10
5.59937e-10
5.60804e-10
5.61161e-10
5.61352e-10
5.61315e-10
5.61334e-10
5.61267e-10
5.61266e-10
5.61221e-10
5.61221e-10
5.61192e-10
5.61194e-10
5.61175e-10
5.61178e-10
5.61166e-10
5.61171e-10
5.61163e-10
5.61166e-10
5.61161e-10
5.61163e-10
5.6116e-10
5.61161e-10
5.6116e-10
5.6116e-10
5.61161e-10
5.6116e-10
5.61163e-10
5.61161e-10
5.61166e-10
5.61163e-10
5.61171e-10
5.61166e-10
5.61178e-10
5.61175e-10
5.61194e-10
5.61192e-10
5.61221e-10
5.61221e-10
5.61266e-10
5.61267e-10
5.61334e-10
5.61314e-10
5.61351e-10
5.61161e-10
5.60804e-10
5.59937e-10
5.58266e-10
5.56589e-10
)
;
    }
}


// ************************************************************************* //
