/*--------------------------------*- C++ -*----------------------------------*\
| =========                 |                                                 |
| \\      /  F ield         | OpenFOAM: The Open Source CFD Toolbox           |
|  \\    /   O peration     | Version:  dev                                   |
|   \\  /    A nd           | Web:      www.OpenFOAM.org                      |
|    \\/     M anipulation  |                                                 |
\*---------------------------------------------------------------------------*/
FoamFile
{
    version     2.0;
    format      ascii;
    class       volScalarField;
    location    "0.04";
    object      C5H5O;
}
// * * * * * * * * * * * * * * * * * * * * * * * * * * * * * * * * * * * * * //

dimensions      [0 0 0 0 0 0 0];

internalField   nonuniform List<scalar> 
25
(
4.42763e-19
6.39415e-19
9.15802e-19
1.29608e-18
1.81942e-18
2.51635e-18
3.42613e-18
4.59269e-18
6.06088e-18
7.87333e-18
1.00665e-17
1.26052e-17
1.5546e-17
1.89172e-17
2.26954e-17
2.66981e-17
3.09671e-17
3.54756e-17
4.0267e-17
4.55377e-17
5.19239e-17
6.03125e-17
7.2958e-17
9.40239e-17
1.29989e-16
)
;

boundaryField
{
    wall
    {
        type            zeroGradient;
    }
    fuel
    {
        type            fixedValue;
        value           nonuniform 0();
    }
    outlet
    {
        type            inletOutlet;
        inletValue      nonuniform 0();
        value           nonuniform 0();
    }
    procBoundary1to0
    {
        type            processor;
        value           uniform 3.06552e-19;
    }
    procBoundary1to2
    {
        type            processor;
        value           uniform 1.92493e-16;
    }
}


// ************************************************************************* //
