/*--------------------------------*- C++ -*----------------------------------*\
| =========                 |                                                 |
| \\      /  F ield         | OpenFOAM: The Open Source CFD Toolbox           |
|  \\    /   O peration     | Version:  dev                                   |
|   \\  /    A nd           | Web:      www.OpenFOAM.org                      |
|    \\/     M anipulation  |                                                 |
\*---------------------------------------------------------------------------*/
FoamFile
{
    version     2.0;
    format      ascii;
    class       volScalarField;
    location    "0.04";
    object      CH3O;
}
// * * * * * * * * * * * * * * * * * * * * * * * * * * * * * * * * * * * * * //

dimensions      [0 0 0 0 0 0 0];

internalField   nonuniform List<scalar> 
250
(
2.54267e-11
2.93524e-11
3.10909e-11
3.04345e-11
2.89855e-11
2.8631e-11
2.86596e-11
2.81771e-11
2.87235e-11
2.82272e-11
1.79951e-11
1.99576e-11
2.07735e-11
2.02045e-11
1.91854e-11
1.89441e-11
1.89735e-11
1.86265e-11
1.90205e-11
1.86633e-11
1.86472e-11
1.89732e-11
1.86154e-11
1.89383e-11
1.89075e-11
1.91591e-11
1.99627e-11
2.08192e-11
1.96885e-11
1.80569e-11
1.22315e-11
1.30959e-11
1.34228e-11
1.29857e-11
1.22992e-11
1.21414e-11
1.21668e-11
1.19304e-11
1.22007e-11
1.19582e-11
1.19472e-11
1.21684e-11
1.1923e-11
1.2143e-11
1.21159e-11
1.22824e-11
1.28239e-11
1.34544e-11
1.29032e-11
1.22553e-11
8.00199e-12
8.31386e-12
8.41044e-12
8.09937e-12
7.6559e-12
7.55672e-12
7.57627e-12
7.42284e-12
7.59946e-12
7.4449e-12
7.43792e-12
7.57846e-12
7.4185e-12
7.56083e-12
7.54005e-12
7.64533e-12
7.99794e-12
8.43057e-12
8.18609e-12
8.00765e-12
5.05702e-12
5.10661e-12
5.1005e-12
4.90876e-12
4.64537e-12
4.5854e-12
4.59889e-12
4.49631e-12
4.61352e-12
4.50082e-12
4.49634e-12
4.59955e-12
4.49282e-12
4.58912e-12
4.57494e-12
4.63883e-12
4.84083e-12
5.11235e-12
5.02381e-12
5.05523e-12
3.10667e-12
3.07144e-12
3.03925e-12
2.92009e-12
2.76545e-12
2.73044e-12
2.73907e-12
2.6767e-12
2.74807e-12
2.67948e-12
2.67687e-12
2.73938e-12
2.6747e-12
2.73309e-12
2.72411e-12
2.76152e-12
2.88017e-12
3.04579e-12
3.02197e-12
3.10275e-12
1.8713e-12
1.82008e-12
1.78832e-12
1.71778e-12
1.62997e-12
1.61008e-12
1.6153e-12
1.57914e-12
1.62088e-12
1.58079e-12
1.57933e-12
1.61577e-12
1.57803e-12
1.61179e-12
1.60637e-12
1.62766e-12
1.6952e-12
1.79175e-12
1.79181e-12
1.8675e-12
1.11316e-12
1.06994e-12
1.04634e-12
1.00599e-12
9.57323e-13
9.46169e-13
9.49266e-13
9.28906e-13
9.52799e-13
9.29837e-13
9.29048e-13
9.49877e-13
9.28308e-13
9.4727e-13
9.44053e-13
9.55999e-13
9.93535e-13
1.04808e-12
1.0543e-12
1.11023e-12
6.51164e-13
6.20874e-13
6.05808e-13
5.83313e-13
5.569e-13
5.50706e-13
5.52588e-13
5.41315e-13
5.54881e-13
5.41853e-13
5.41437e-13
5.53233e-13
5.40998e-13
5.5148e-13
5.49523e-13
5.56167e-13
5.76547e-13
6.06705e-13
6.12407e-13
6.49213e-13
3.69618e-13
3.51067e-13
3.42669e-13
3.30635e-13
3.1682e-13
3.13487e-13
3.14652e-13
3.08586e-13
3.16146e-13
3.08925e-13
3.08714e-13
3.15239e-13
3.08426e-13
3.14059e-13
3.12848e-13
3.16439e-13
3.27058e-13
3.43148e-13
3.46649e-13
3.68485e-13
1.99197e-13
1.87687e-13
1.8284e-13
1.7633e-13
1.6922e-13
1.67415e-13
1.68121e-13
1.64896e-13
1.69065e-13
1.65092e-13
1.64988e-13
1.68571e-13
1.64817e-13
1.67812e-13
1.67077e-13
1.69032e-13
1.74471e-13
1.83098e-13
1.85422e-13
1.98544e-13
8.99597e-14
8.26997e-14
7.99398e-14
7.68871e-14
7.38242e-14
7.29974e-14
7.33202e-14
7.19027e-14
7.37801e-14
7.19714e-14
7.19304e-14
7.35563e-14
7.187e-14
7.31846e-14
7.28479e-14
7.37449e-14
7.60845e-14
8.0039e-14
8.16619e-14
8.94228e-14
4.73853e-14
3.72088e-14
3.40893e-14
3.26852e-14
3.14547e-14
3.11498e-14
3.12311e-14
3.07134e-14
3.14227e-14
3.07121e-14
3.07014e-14
3.13312e-14
3.07016e-14
3.11758e-14
3.1091e-14
3.14147e-14
3.23849e-14
3.40417e-14
3.64336e-14
4.55452e-14
)
;

boundaryField
{
    fuel
    {
        type            fixedValue;
        value           nonuniform 0();
    }
    wall
    {
        type            zeroGradient;
    }
    outlet
    {
        type            zeroGradient;
    }
    frontAndBack
    {
        type            empty;
    }
    procBoundary1to0
    {
        type            processor;
        value           nonuniform List<scalar> 
21
(
3.44461e-11
4.1548e-11
4.49292e-11
4.42854e-11
4.2334e-11
4.18279e-11
4.18515e-11
4.12163e-11
4.1936e-11
4.12899e-11
2.8202e-11
2.8202e-11
2.86536e-11
2.81576e-11
2.8606e-11
2.85736e-11
2.89422e-11
3.00768e-11
3.11626e-11
2.89686e-11
2.55484e-11
)
;
    }
}


// ************************************************************************* //
