/*--------------------------------*- C++ -*----------------------------------*\
| =========                 |                                                 |
| \\      /  F ield         | OpenFOAM: The Open Source CFD Toolbox           |
|  \\    /   O peration     | Version:  dev                                   |
|   \\  /    A nd           | Web:      www.OpenFOAM.org                      |
|    \\/     M anipulation  |                                                 |
\*---------------------------------------------------------------------------*/
FoamFile
{
    version     2.0;
    format      ascii;
    class       volScalarField;
    location    "0.04";
    object      HO2;
}
// * * * * * * * * * * * * * * * * * * * * * * * * * * * * * * * * * * * * * //

dimensions      [0 0 0 0 0 0 0];

internalField   nonuniform List<scalar> 
250
(
9.01963e-11
6.72105e-12
1.16339e-12
9.09365e-13
8.51822e-13
8.39647e-13
8.40959e-13
8.23587e-13
8.43497e-13
8.25538e-13
5.77265e-11
4.61276e-12
7.42234e-13
5.51109e-13
5.15192e-13
5.0815e-13
5.09131e-13
4.98584e-13
5.10683e-13
4.9978e-13
4.99287e-13
5.09204e-13
4.98229e-13
5.08012e-13
5.06986e-13
5.1432e-13
5.43849e-13
7.51783e-13
4.74929e-12
6.09645e-11
3.7167e-11
3.18137e-12
4.83622e-13
3.41999e-13
3.20143e-13
3.16273e-13
3.16889e-13
3.10803e-13
3.17793e-13
3.11539e-13
3.11258e-13
3.16932e-13
3.10595e-13
3.16228e-13
3.15576e-13
3.19622e-13
3.37969e-13
4.9212e-13
3.31071e-12
3.96791e-11
2.41587e-11
2.22089e-12
3.32162e-13
2.27432e-13
2.13929e-13
2.11849e-13
2.12174e-13
2.0872e-13
2.12688e-13
2.09208e-13
2.09054e-13
2.12185e-13
2.08603e-13
2.11776e-13
2.1143e-13
2.13585e-13
2.2527e-13
3.39465e-13
2.33553e-12
2.60703e-11
1.59452e-11
1.57848e-12
2.45338e-13
1.67623e-13
1.58927e-13
1.57777e-13
1.57903e-13
1.55725e-13
1.58199e-13
1.55838e-13
1.55749e-13
1.57871e-13
1.55635e-13
1.57641e-13
1.57507e-13
1.58669e-13
1.66279e-13
2.51434e-13
1.67486e-12
1.73873e-11
1.07664e-11
1.15785e-12
1.97511e-13
1.38134e-13
1.31782e-13
1.31084e-13
1.31088e-13
1.29639e-13
1.31289e-13
1.29704e-13
1.29653e-13
1.31051e-13
1.29577e-13
1.30891e-13
1.30888e-13
1.31563e-13
1.37253e-13
2.02483e-13
1.2374e-12
1.18562e-11
7.49717e-12
8.83968e-13
1.72561e-13
1.25455e-13
1.20235e-13
1.19751e-13
1.19673e-13
1.18608e-13
1.19853e-13
1.18648e-13
1.1862e-13
1.19658e-13
1.18562e-13
1.19508e-13
1.19591e-13
1.20025e-13
1.24761e-13
1.76408e-13
9.48307e-13
8.32835e-12
5.43635e-12
7.14439e-13
1.64828e-13
1.25115e-13
1.20346e-13
1.19981e-13
1.19817e-13
1.19003e-13
1.20019e-13
1.19024e-13
1.19016e-13
1.19845e-13
1.18968e-13
1.19667e-13
1.1984e-13
1.20126e-13
1.24476e-13
1.67393e-13
7.64763e-13
6.07602e-12
4.21015e-12
6.42835e-13
1.80945e-13
1.43023e-13
1.3815e-13
1.37907e-13
1.37564e-13
1.37073e-13
1.37819e-13
1.37061e-13
1.3709e-13
1.37657e-13
1.37056e-13
1.37423e-13
1.37788e-13
1.37891e-13
1.42368e-13
1.81611e-13
6.77286e-13
4.69443e-12
3.81219e-12
7.35961e-13
2.54993e-13
2.06594e-13
2.00247e-13
2.00139e-13
1.9931e-13
1.9942e-13
1.99695e-13
1.99319e-13
1.99442e-13
1.9953e-13
1.99445e-13
1.99168e-13
2.00058e-13
1.99869e-13
2.0578e-13
2.5143e-13
7.41289e-13
4.11817e-12
4.61421e-12
1.15251e-12
4.5411e-13
3.66121e-13
3.53648e-13
3.53166e-13
3.51392e-13
3.51926e-13
3.52284e-13
3.51676e-13
3.51999e-13
3.51984e-13
3.5204e-13
3.51177e-13
3.53097e-13
3.52978e-13
3.64438e-13
4.40111e-13
1.08703e-12
4.58172e-12
6.70245e-12
1.92836e-12
7.85899e-13
6.21642e-13
5.95754e-13
5.93568e-13
5.90788e-13
5.9035e-13
5.92987e-13
5.90059e-13
5.90661e-13
5.92256e-13
5.906e-13
5.9035e-13
5.93396e-13
5.94629e-13
6.17766e-13
7.53894e-13
1.73182e-12
6.05068e-12
9.11954e-12
2.72975e-12
1.11181e-12
8.67975e-13
8.27334e-13
8.22939e-13
8.19568e-13
8.17223e-13
8.23448e-13
8.1706e-13
8.17907e-13
8.22164e-13
8.176e-13
8.18852e-13
8.22588e-13
8.25787e-13
8.61524e-13
1.0609e-12
2.39834e-12
7.81309e-12
)
;

boundaryField
{
    fuel
    {
        type            fixedValue;
        value           nonuniform 0();
    }
    wall
    {
        type            zeroGradient;
    }
    outlet
    {
        type            zeroGradient;
    }
    frontAndBack
    {
        type            empty;
    }
    procBoundary1to0
    {
        type            processor;
        value           nonuniform List<scalar> 
21
(
1.44023e-10
9.9185e-12
1.81677e-12
1.48154e-12
1.39438e-12
1.37433e-12
1.37588e-12
1.34911e-12
1.37979e-12
1.35241e-12
8.24619e-13
8.24619e-13
8.40926e-13
8.22856e-13
8.38967e-13
8.37498e-13
8.50219e-13
8.96586e-13
1.17767e-12
6.93251e-12
9.58457e-11
)
;
    }
}


// ************************************************************************* //
