/*--------------------------------*- C++ -*----------------------------------*\
| =========                 |                                                 |
| \\      /  F ield         | OpenFOAM: The Open Source CFD Toolbox           |
|  \\    /   O peration     | Version:  dev                                   |
|   \\  /    A nd           | Web:      www.OpenFOAM.org                      |
|    \\/     M anipulation  |                                                 |
\*---------------------------------------------------------------------------*/
FoamFile
{
    version     2.0;
    format      ascii;
    class       volScalarField;
    location    "0.04";
    object      n-A1C2H2;
}
// * * * * * * * * * * * * * * * * * * * * * * * * * * * * * * * * * * * * * //

dimensions      [0 0 0 0 0 0 0];

internalField   nonuniform List<scalar> 
2000
(
1.84909e-08
1.85183e-08
1.85259e-08
1.85266e-08
1.8527e-08
1.85267e-08
1.85266e-08
1.85265e-08
1.85265e-08
1.85265e-08
1.85265e-08
1.85264e-08
1.85265e-08
1.85264e-08
1.85265e-08
1.85264e-08
1.85265e-08
1.85265e-08
1.85265e-08
1.85265e-08
1.85265e-08
1.85265e-08
1.85265e-08
1.85265e-08
1.85265e-08
1.85265e-08
1.85265e-08
1.85265e-08
1.85265e-08
1.85265e-08
1.85265e-08
1.85265e-08
1.85265e-08
1.85265e-08
1.85264e-08
1.85265e-08
1.85264e-08
1.85265e-08
1.85264e-08
1.85265e-08
1.85265e-08
1.85265e-08
1.85265e-08
1.85266e-08
1.85267e-08
1.8527e-08
1.85266e-08
1.85259e-08
1.85183e-08
1.84909e-08
2.04597e-08
2.04562e-08
2.04499e-08
2.04441e-08
2.04429e-08
2.04415e-08
2.04417e-08
2.04412e-08
2.04415e-08
2.04412e-08
2.04414e-08
2.04413e-08
2.04414e-08
2.04413e-08
2.04414e-08
2.04413e-08
2.04414e-08
2.04414e-08
2.04414e-08
2.04414e-08
2.04414e-08
2.04414e-08
2.04414e-08
2.04414e-08
2.04414e-08
2.04414e-08
2.04414e-08
2.04414e-08
2.04414e-08
2.04414e-08
2.04414e-08
2.04414e-08
2.04414e-08
2.04414e-08
2.04413e-08
2.04414e-08
2.04413e-08
2.04414e-08
2.04413e-08
2.04414e-08
2.04412e-08
2.04415e-08
2.04412e-08
2.04417e-08
2.04415e-08
2.04429e-08
2.04441e-08
2.04499e-08
2.04562e-08
2.04597e-08
1.62119e-08
1.62007e-08
1.61892e-08
1.61814e-08
1.61793e-08
1.61778e-08
1.61778e-08
1.61774e-08
1.61776e-08
1.61774e-08
1.61776e-08
1.61775e-08
1.61776e-08
1.61775e-08
1.61776e-08
1.61776e-08
1.61776e-08
1.61776e-08
1.61776e-08
1.61776e-08
1.61776e-08
1.61776e-08
1.61776e-08
1.61776e-08
1.61776e-08
1.61776e-08
1.61776e-08
1.61776e-08
1.61776e-08
1.61776e-08
1.61776e-08
1.61776e-08
1.61776e-08
1.61776e-08
1.61776e-08
1.61776e-08
1.61775e-08
1.61776e-08
1.61775e-08
1.61776e-08
1.61774e-08
1.61776e-08
1.61774e-08
1.61778e-08
1.61778e-08
1.61793e-08
1.61814e-08
1.61892e-08
1.62007e-08
1.62119e-08
1.11809e-08
1.11702e-08
1.116e-08
1.1153e-08
1.11508e-08
1.11497e-08
1.11495e-08
1.11493e-08
1.11494e-08
1.11493e-08
1.11494e-08
1.11493e-08
1.11494e-08
1.11494e-08
1.11494e-08
1.11494e-08
1.11494e-08
1.11494e-08
1.11494e-08
1.11494e-08
1.11494e-08
1.11494e-08
1.11494e-08
1.11494e-08
1.11494e-08
1.11494e-08
1.11494e-08
1.11494e-08
1.11494e-08
1.11494e-08
1.11494e-08
1.11494e-08
1.11494e-08
1.11494e-08
1.11494e-08
1.11494e-08
1.11494e-08
1.11494e-08
1.11493e-08
1.11494e-08
1.11493e-08
1.11494e-08
1.11493e-08
1.11495e-08
1.11497e-08
1.11508e-08
1.1153e-08
1.116e-08
1.11702e-08
1.11809e-08
7.43519e-09
7.42755e-09
7.42125e-09
7.41624e-09
7.41436e-09
7.41369e-09
7.41339e-09
7.41336e-09
7.4133e-09
7.41334e-09
7.41332e-09
7.41335e-09
7.41335e-09
7.41337e-09
7.41336e-09
7.41337e-09
7.41337e-09
7.41337e-09
7.41337e-09
7.41337e-09
7.41337e-09
7.41337e-09
7.41337e-09
7.41338e-09
7.41337e-09
7.41337e-09
7.41338e-09
7.41337e-09
7.41337e-09
7.41337e-09
7.41337e-09
7.41337e-09
7.41337e-09
7.41337e-09
7.41337e-09
7.41336e-09
7.41337e-09
7.41335e-09
7.41335e-09
7.41332e-09
7.41334e-09
7.4133e-09
7.41336e-09
7.41339e-09
7.41369e-09
7.41436e-09
7.41624e-09
7.42125e-09
7.42756e-09
7.43519e-09
5.03193e-09
5.02704e-09
5.02397e-09
5.02065e-09
5.01918e-09
5.01881e-09
5.01847e-09
5.01855e-09
5.01841e-09
5.01851e-09
5.01844e-09
5.01851e-09
5.01847e-09
5.01851e-09
5.01848e-09
5.01851e-09
5.01849e-09
5.01851e-09
5.01849e-09
5.0185e-09
5.0185e-09
5.0185e-09
5.0185e-09
5.0185e-09
5.0185e-09
5.0185e-09
5.0185e-09
5.0185e-09
5.0185e-09
5.0185e-09
5.0185e-09
5.01849e-09
5.01851e-09
5.01849e-09
5.01851e-09
5.01848e-09
5.01851e-09
5.01847e-09
5.01851e-09
5.01844e-09
5.01851e-09
5.01841e-09
5.01855e-09
5.01847e-09
5.01882e-09
5.01918e-09
5.02065e-09
5.02397e-09
5.02704e-09
5.03193e-09
3.52948e-09
3.52648e-09
3.52552e-09
3.52338e-09
3.52223e-09
3.52206e-09
3.5217e-09
3.52184e-09
3.52167e-09
3.52179e-09
3.52169e-09
3.52178e-09
3.52172e-09
3.52178e-09
3.52174e-09
3.52177e-09
3.52174e-09
3.52177e-09
3.52175e-09
3.52176e-09
3.52175e-09
3.52176e-09
3.52176e-09
3.52176e-09
3.52176e-09
3.52176e-09
3.52176e-09
3.52176e-09
3.52176e-09
3.52175e-09
3.52176e-09
3.52175e-09
3.52177e-09
3.52174e-09
3.52177e-09
3.52174e-09
3.52178e-09
3.52172e-09
3.52178e-09
3.52169e-09
3.52179e-09
3.52167e-09
3.52184e-09
3.52171e-09
3.52206e-09
3.52223e-09
3.52338e-09
3.52552e-09
3.52648e-09
3.52948e-09
2.56708e-09
2.56534e-09
2.56568e-09
2.56433e-09
2.56341e-09
2.56336e-09
2.56302e-09
2.56317e-09
2.56299e-09
2.56313e-09
2.56301e-09
2.56311e-09
2.56304e-09
2.5631e-09
2.56305e-09
2.5631e-09
2.56306e-09
2.56309e-09
2.56307e-09
2.56309e-09
2.56307e-09
2.56308e-09
2.56308e-09
2.56308e-09
2.56308e-09
2.56308e-09
2.56308e-09
2.56308e-09
2.56308e-09
2.56307e-09
2.56309e-09
2.56307e-09
2.56309e-09
2.56306e-09
2.5631e-09
2.56306e-09
2.5631e-09
2.56304e-09
2.56311e-09
2.56301e-09
2.56313e-09
2.56299e-09
2.56317e-09
2.56302e-09
2.56337e-09
2.56341e-09
2.56433e-09
2.56568e-09
2.56534e-09
2.56708e-09
1.92892e-09
1.92803e-09
1.92915e-09
1.92834e-09
1.92761e-09
1.92763e-09
1.9273e-09
1.92746e-09
1.92727e-09
1.92742e-09
1.9273e-09
1.9274e-09
1.92732e-09
1.92739e-09
1.92734e-09
1.92738e-09
1.92734e-09
1.92737e-09
1.92735e-09
1.92737e-09
1.92736e-09
1.92737e-09
1.92736e-09
1.92736e-09
1.92736e-09
1.92736e-09
1.92736e-09
1.92736e-09
1.92737e-09
1.92736e-09
1.92737e-09
1.92735e-09
1.92737e-09
1.92735e-09
1.92738e-09
1.92734e-09
1.92739e-09
1.92732e-09
1.9274e-09
1.9273e-09
1.92742e-09
1.92727e-09
1.92746e-09
1.9273e-09
1.92763e-09
1.92761e-09
1.92834e-09
1.92915e-09
1.92803e-09
1.92892e-09
1.49051e-09
1.49022e-09
1.49182e-09
1.49139e-09
1.49079e-09
1.49086e-09
1.49055e-09
1.49072e-09
1.49053e-09
1.49067e-09
1.49055e-09
1.49065e-09
1.49057e-09
1.49064e-09
1.49059e-09
1.49063e-09
1.49059e-09
1.49062e-09
1.4906e-09
1.49062e-09
1.4906e-09
1.49062e-09
1.49061e-09
1.49061e-09
1.49061e-09
1.49061e-09
1.49061e-09
1.49061e-09
1.49062e-09
1.4906e-09
1.49062e-09
1.4906e-09
1.49062e-09
1.49059e-09
1.49063e-09
1.49059e-09
1.49064e-09
1.49057e-09
1.49065e-09
1.49055e-09
1.49067e-09
1.49053e-09
1.49072e-09
1.49055e-09
1.49086e-09
1.49079e-09
1.49139e-09
1.49182e-09
1.49022e-09
1.49051e-09
1.17963e-09
1.17978e-09
1.18168e-09
1.18152e-09
1.18104e-09
1.18114e-09
1.18084e-09
1.18101e-09
1.18082e-09
1.18096e-09
1.18085e-09
1.18094e-09
1.18087e-09
1.18093e-09
1.18088e-09
1.18092e-09
1.18088e-09
1.18091e-09
1.18089e-09
1.18091e-09
1.1809e-09
1.18091e-09
1.1809e-09
1.1809e-09
1.1809e-09
1.1809e-09
1.1809e-09
1.1809e-09
1.18091e-09
1.1809e-09
1.18091e-09
1.18089e-09
1.18091e-09
1.18088e-09
1.18092e-09
1.18088e-09
1.18093e-09
1.18087e-09
1.18094e-09
1.18085e-09
1.18096e-09
1.18082e-09
1.18101e-09
1.18084e-09
1.18114e-09
1.18104e-09
1.18152e-09
1.18168e-09
1.17978e-09
1.17963e-09
9.44059e-10
9.44435e-10
9.46314e-10
9.46307e-10
9.45909e-10
9.46017e-10
9.45747e-10
9.459e-10
9.45731e-10
9.45855e-10
9.4575e-10
9.45836e-10
9.45768e-10
9.45823e-10
9.45778e-10
9.45817e-10
9.45784e-10
9.45812e-10
9.45791e-10
9.45807e-10
9.45794e-10
9.45804e-10
9.45797e-10
9.45802e-10
9.45799e-10
9.458e-10
9.45802e-10
9.45797e-10
9.45804e-10
9.45795e-10
9.45807e-10
9.45791e-10
9.45812e-10
9.45784e-10
9.45817e-10
9.45779e-10
9.45824e-10
9.45768e-10
9.45836e-10
9.4575e-10
9.45855e-10
9.45731e-10
9.459e-10
9.45748e-10
9.46017e-10
9.45909e-10
9.46307e-10
9.46314e-10
9.44435e-10
9.4406e-10
7.74128e-10
7.7477e-10
7.76752e-10
7.76898e-10
7.76564e-10
7.76688e-10
7.76431e-10
7.7658e-10
7.76416e-10
7.76536e-10
7.76433e-10
7.76517e-10
7.7645e-10
7.76504e-10
7.7646e-10
7.76498e-10
7.76465e-10
7.76492e-10
7.76472e-10
7.76488e-10
7.76475e-10
7.76485e-10
7.76477e-10
7.76482e-10
7.7648e-10
7.7648e-10
7.76482e-10
7.76478e-10
7.76485e-10
7.76476e-10
7.76488e-10
7.76472e-10
7.76493e-10
7.76465e-10
7.76498e-10
7.7646e-10
7.76504e-10
7.76451e-10
7.76517e-10
7.76434e-10
7.76537e-10
7.76416e-10
7.76581e-10
7.76431e-10
7.76688e-10
7.76564e-10
7.76898e-10
7.76752e-10
7.7477e-10
7.74128e-10
6.43559e-10
6.4385e-10
6.45393e-10
6.45507e-10
6.45303e-10
6.45388e-10
6.45203e-10
6.45309e-10
6.45188e-10
6.45274e-10
6.45199e-10
6.45259e-10
6.45211e-10
6.45249e-10
6.45218e-10
6.45244e-10
6.45221e-10
6.4524e-10
6.45226e-10
6.45237e-10
6.45228e-10
6.45235e-10
6.4523e-10
6.45233e-10
6.45232e-10
6.45232e-10
6.45233e-10
6.4523e-10
6.45235e-10
6.45228e-10
6.45237e-10
6.45226e-10
6.45241e-10
6.45221e-10
6.45245e-10
6.45218e-10
6.45249e-10
6.45211e-10
6.45259e-10
6.452e-10
6.45274e-10
6.45188e-10
6.45309e-10
6.45204e-10
6.45388e-10
6.45303e-10
6.45508e-10
6.45393e-10
6.4385e-10
6.43559e-10
5.38747e-10
5.3913e-10
5.40558e-10
5.40716e-10
5.40554e-10
5.40635e-10
5.4047e-10
5.40564e-10
5.40455e-10
5.40532e-10
5.40464e-10
5.40518e-10
5.40474e-10
5.40509e-10
5.4048e-10
5.40504e-10
5.40483e-10
5.40501e-10
5.40488e-10
5.40498e-10
5.4049e-10
5.40496e-10
5.40491e-10
5.40494e-10
5.40493e-10
5.40493e-10
5.40494e-10
5.40491e-10
5.40496e-10
5.4049e-10
5.40498e-10
5.40488e-10
5.40501e-10
5.40483e-10
5.40504e-10
5.4048e-10
5.40509e-10
5.40475e-10
5.40518e-10
5.40465e-10
5.40532e-10
5.40455e-10
5.40564e-10
5.4047e-10
5.40635e-10
5.40554e-10
5.40717e-10
5.40558e-10
5.3913e-10
5.38748e-10
4.59014e-10
4.59494e-10
4.60869e-10
4.61074e-10
4.60946e-10
4.61027e-10
4.60875e-10
4.60963e-10
4.60861e-10
4.60932e-10
4.6087e-10
4.60919e-10
4.60879e-10
4.6091e-10
4.60884e-10
4.60906e-10
4.60886e-10
4.60903e-10
4.60891e-10
4.609e-10
4.60893e-10
4.60898e-10
4.60894e-10
4.60897e-10
4.60895e-10
4.60895e-10
4.60897e-10
4.60894e-10
4.60898e-10
4.60893e-10
4.609e-10
4.60891e-10
4.60903e-10
4.60887e-10
4.60906e-10
4.60884e-10
4.60911e-10
4.60879e-10
4.60919e-10
4.6087e-10
4.60932e-10
4.60861e-10
4.60963e-10
4.60876e-10
4.61027e-10
4.60946e-10
4.61075e-10
4.60869e-10
4.59495e-10
4.59014e-10
3.93035e-10
3.93685e-10
3.95102e-10
3.95414e-10
3.95341e-10
3.95435e-10
3.95295e-10
3.95377e-10
3.95279e-10
3.95345e-10
3.95285e-10
3.95331e-10
3.95292e-10
3.95322e-10
3.95296e-10
3.95317e-10
3.95298e-10
3.95314e-10
3.95302e-10
3.95311e-10
3.95304e-10
3.95309e-10
3.95305e-10
3.95308e-10
3.95307e-10
3.95307e-10
3.95308e-10
3.95305e-10
3.95309e-10
3.95304e-10
3.95311e-10
3.95302e-10
3.95314e-10
3.95299e-10
3.95318e-10
3.95297e-10
3.95322e-10
3.95293e-10
3.95331e-10
3.95286e-10
3.95346e-10
3.9528e-10
3.95377e-10
3.95295e-10
3.95435e-10
3.95341e-10
3.95414e-10
3.95102e-10
3.93685e-10
3.93036e-10
3.41379e-10
3.42081e-10
3.43413e-10
3.4374e-10
3.43692e-10
3.43782e-10
3.43655e-10
3.4373e-10
3.4364e-10
3.437e-10
3.43645e-10
3.43687e-10
3.43651e-10
3.43678e-10
3.43655e-10
3.43674e-10
3.43656e-10
3.43671e-10
3.4366e-10
3.43668e-10
3.43661e-10
3.43666e-10
3.43662e-10
3.43665e-10
3.43664e-10
3.43664e-10
3.43665e-10
3.43662e-10
3.43666e-10
3.43662e-10
3.43668e-10
3.4366e-10
3.43671e-10
3.43657e-10
3.43674e-10
3.43655e-10
3.43678e-10
3.43651e-10
3.43687e-10
3.43645e-10
3.437e-10
3.4364e-10
3.4373e-10
3.43655e-10
3.43782e-10
3.43692e-10
3.43741e-10
3.43413e-10
3.42081e-10
3.4138e-10
2.97529e-10
2.98365e-10
2.99728e-10
3.0012e-10
3.00083e-10
3.00183e-10
3.00055e-10
3.00131e-10
3.0004e-10
3.00101e-10
3.00045e-10
3.00087e-10
3.00051e-10
3.00078e-10
3.00054e-10
3.00074e-10
3.00056e-10
3.00071e-10
3.0006e-10
3.00068e-10
3.00061e-10
3.00066e-10
3.00062e-10
3.00065e-10
3.00064e-10
3.00064e-10
3.00065e-10
3.00062e-10
3.00066e-10
3.00062e-10
3.00068e-10
3.0006e-10
3.00071e-10
3.00056e-10
3.00074e-10
3.00055e-10
3.00078e-10
3.00051e-10
3.00087e-10
3.00045e-10
3.00101e-10
3.0004e-10
3.00131e-10
3.00055e-10
3.00183e-10
3.00083e-10
3.0012e-10
2.99728e-10
2.98365e-10
2.97529e-10
2.6121e-10
2.62067e-10
2.63307e-10
2.63686e-10
2.63665e-10
2.63756e-10
2.63641e-10
2.63709e-10
2.63627e-10
2.63681e-10
2.63631e-10
2.63669e-10
2.63636e-10
2.6366e-10
2.63639e-10
2.63656e-10
2.6364e-10
2.63654e-10
2.63644e-10
2.63651e-10
2.63645e-10
2.6365e-10
2.63646e-10
2.63648e-10
2.63647e-10
2.63647e-10
2.63648e-10
2.63646e-10
2.6365e-10
2.63645e-10
2.63651e-10
2.63644e-10
2.63654e-10
2.63641e-10
2.63657e-10
2.63639e-10
2.63661e-10
2.63636e-10
2.63669e-10
2.63631e-10
2.63681e-10
2.63627e-10
2.63709e-10
2.63642e-10
2.63756e-10
2.63665e-10
2.63687e-10
2.63307e-10
2.62067e-10
2.6121e-10
2.31984e-10
2.32886e-10
2.34045e-10
2.34422e-10
2.34413e-10
2.34501e-10
2.34395e-10
2.34457e-10
2.34381e-10
2.3443e-10
2.34384e-10
2.34419e-10
2.34388e-10
2.34411e-10
2.34391e-10
2.34407e-10
2.34392e-10
2.34404e-10
2.34395e-10
2.34402e-10
2.34397e-10
2.34401e-10
2.34397e-10
2.34399e-10
2.34398e-10
2.34398e-10
2.34399e-10
2.34397e-10
2.34401e-10
2.34397e-10
2.34402e-10
2.34395e-10
2.34404e-10
2.34392e-10
2.34407e-10
2.34391e-10
2.34411e-10
2.34389e-10
2.34419e-10
2.34384e-10
2.3443e-10
2.34381e-10
2.34457e-10
2.34395e-10
2.34501e-10
2.34413e-10
2.34423e-10
2.34045e-10
2.32886e-10
2.31985e-10
2.07396e-10
2.0835e-10
2.09436e-10
2.09808e-10
2.09808e-10
2.09892e-10
2.09794e-10
2.09851e-10
2.0978e-10
2.09826e-10
2.09783e-10
2.09815e-10
2.09787e-10
2.09807e-10
2.09789e-10
2.09804e-10
2.0979e-10
2.09801e-10
2.09793e-10
2.09799e-10
2.09794e-10
2.09798e-10
2.09795e-10
2.09797e-10
2.09796e-10
2.09796e-10
2.09797e-10
2.09795e-10
2.09798e-10
2.09794e-10
2.098e-10
2.09793e-10
2.09802e-10
2.0979e-10
2.09804e-10
2.09789e-10
2.09807e-10
2.09787e-10
2.09815e-10
2.09783e-10
2.09826e-10
2.0978e-10
2.09851e-10
2.09794e-10
2.09892e-10
2.09808e-10
2.09808e-10
2.09436e-10
2.0835e-10
2.07396e-10
1.86559e-10
1.86997e-10
1.87936e-10
1.88281e-10
1.88305e-10
1.88382e-10
1.883e-10
1.88348e-10
1.88286e-10
1.88323e-10
1.88286e-10
1.88312e-10
1.88288e-10
1.88305e-10
1.88289e-10
1.88301e-10
1.88289e-10
1.88299e-10
1.88291e-10
1.88297e-10
1.88292e-10
1.88295e-10
1.88293e-10
1.88294e-10
1.88294e-10
1.88294e-10
1.88294e-10
1.88293e-10
1.88296e-10
1.88292e-10
1.88297e-10
1.88291e-10
1.88299e-10
1.88289e-10
1.88301e-10
1.88289e-10
1.88305e-10
1.88288e-10
1.88312e-10
1.88286e-10
1.88323e-10
1.88286e-10
1.88348e-10
1.883e-10
1.88382e-10
1.88305e-10
1.88281e-10
1.87936e-10
1.86997e-10
1.86559e-10
1.68786e-10
1.69255e-10
1.70129e-10
1.70465e-10
1.70495e-10
1.70568e-10
1.70493e-10
1.70537e-10
1.70479e-10
1.70513e-10
1.70479e-10
1.70502e-10
1.7048e-10
1.70495e-10
1.70481e-10
1.70492e-10
1.70481e-10
1.7049e-10
1.70483e-10
1.70488e-10
1.70484e-10
1.70487e-10
1.70484e-10
1.70486e-10
1.70485e-10
1.70485e-10
1.70486e-10
1.70484e-10
1.70487e-10
1.70484e-10
1.70488e-10
1.70483e-10
1.7049e-10
1.70481e-10
1.70492e-10
1.70481e-10
1.70496e-10
1.7048e-10
1.70502e-10
1.70479e-10
1.70513e-10
1.70479e-10
1.70537e-10
1.70493e-10
1.70568e-10
1.70495e-10
1.70465e-10
1.7013e-10
1.69256e-10
1.68786e-10
1.52965e-10
1.53459e-10
1.54301e-10
1.54645e-10
1.54685e-10
1.54759e-10
1.54688e-10
1.54729e-10
1.54674e-10
1.54705e-10
1.54672e-10
1.54694e-10
1.54673e-10
1.54687e-10
1.54673e-10
1.54684e-10
1.54674e-10
1.54682e-10
1.54675e-10
1.5468e-10
1.54676e-10
1.54679e-10
1.54676e-10
1.54678e-10
1.54677e-10
1.54677e-10
1.54678e-10
1.54676e-10
1.54679e-10
1.54676e-10
1.5468e-10
1.54675e-10
1.54682e-10
1.54674e-10
1.54684e-10
1.54674e-10
1.54687e-10
1.54673e-10
1.54694e-10
1.54673e-10
1.54705e-10
1.54674e-10
1.54729e-10
1.54688e-10
1.54759e-10
1.54685e-10
1.54645e-10
1.54301e-10
1.53459e-10
1.52965e-10
1.39293e-10
1.3979e-10
1.40564e-10
1.40892e-10
1.40936e-10
1.41005e-10
1.4094e-10
1.40977e-10
1.40927e-10
1.40955e-10
1.40925e-10
1.40945e-10
1.40925e-10
1.40938e-10
1.40925e-10
1.40935e-10
1.40925e-10
1.40933e-10
1.40927e-10
1.40931e-10
1.40927e-10
1.4093e-10
1.40928e-10
1.40929e-10
1.40928e-10
1.40928e-10
1.40929e-10
1.40928e-10
1.4093e-10
1.40927e-10
1.40931e-10
1.40927e-10
1.40933e-10
1.40925e-10
1.40935e-10
1.40925e-10
1.40938e-10
1.40925e-10
1.40945e-10
1.40925e-10
1.40955e-10
1.40927e-10
1.40977e-10
1.40941e-10
1.41005e-10
1.40936e-10
1.40892e-10
1.40564e-10
1.3979e-10
1.39294e-10
1.27415e-10
1.2791e-10
1.28623e-10
1.28936e-10
1.28982e-10
1.29047e-10
1.28988e-10
1.29021e-10
1.28975e-10
1.29e-10
1.28972e-10
1.2899e-10
1.28972e-10
1.28984e-10
1.28972e-10
1.28981e-10
1.28972e-10
1.28979e-10
1.28973e-10
1.28977e-10
1.28974e-10
1.28976e-10
1.28974e-10
1.28975e-10
1.28975e-10
1.28975e-10
1.28975e-10
1.28974e-10
1.28976e-10
1.28974e-10
1.28977e-10
1.28973e-10
1.28979e-10
1.28972e-10
1.28981e-10
1.28972e-10
1.28984e-10
1.28972e-10
1.2899e-10
1.28973e-10
1.29e-10
1.28975e-10
1.29021e-10
1.28988e-10
1.29047e-10
1.28982e-10
1.28936e-10
1.28624e-10
1.2791e-10
1.27415e-10
1.17042e-10
1.17533e-10
1.18192e-10
1.18489e-10
1.18537e-10
1.18598e-10
1.18544e-10
1.18573e-10
1.18531e-10
1.18553e-10
1.18528e-10
1.18544e-10
1.18527e-10
1.18538e-10
1.18527e-10
1.18535e-10
1.18527e-10
1.18533e-10
1.18528e-10
1.18532e-10
1.18529e-10
1.18531e-10
1.18529e-10
1.1853e-10
1.1853e-10
1.1853e-10
1.1853e-10
1.18529e-10
1.18531e-10
1.18529e-10
1.18532e-10
1.18528e-10
1.18533e-10
1.18527e-10
1.18535e-10
1.18527e-10
1.18538e-10
1.18528e-10
1.18544e-10
1.18528e-10
1.18553e-10
1.18531e-10
1.18573e-10
1.18544e-10
1.18598e-10
1.18537e-10
1.18489e-10
1.18192e-10
1.17533e-10
1.17042e-10
1.07943e-10
1.08425e-10
1.09037e-10
1.09318e-10
1.09367e-10
1.09424e-10
1.09375e-10
1.09401e-10
1.09362e-10
1.09382e-10
1.09359e-10
1.09373e-10
1.09358e-10
1.09368e-10
1.09358e-10
1.09365e-10
1.09358e-10
1.09363e-10
1.09359e-10
1.09362e-10
1.09359e-10
1.09361e-10
1.09359e-10
1.0936e-10
1.0936e-10
1.0936e-10
1.0936e-10
1.09359e-10
1.09361e-10
1.09359e-10
1.09362e-10
1.09359e-10
1.09363e-10
1.09358e-10
1.09365e-10
1.09358e-10
1.09368e-10
1.09358e-10
1.09373e-10
1.09359e-10
1.09382e-10
1.09362e-10
1.09401e-10
1.09375e-10
1.09424e-10
1.09367e-10
1.09318e-10
1.09037e-10
1.08425e-10
1.07943e-10
9.99254e-11
1.00398e-10
1.00966e-10
1.01232e-10
1.01282e-10
1.01336e-10
1.01291e-10
1.01315e-10
1.01279e-10
1.01296e-10
1.01275e-10
1.01288e-10
1.01274e-10
1.01282e-10
1.01273e-10
1.0128e-10
1.01273e-10
1.01278e-10
1.01274e-10
1.01277e-10
1.01274e-10
1.01276e-10
1.01274e-10
1.01275e-10
1.01275e-10
1.01275e-10
1.01275e-10
1.01275e-10
1.01276e-10
1.01274e-10
1.01277e-10
1.01274e-10
1.01278e-10
1.01273e-10
1.0128e-10
1.01273e-10
1.01283e-10
1.01274e-10
1.01288e-10
1.01275e-10
1.01297e-10
1.01279e-10
1.01315e-10
1.01291e-10
1.01336e-10
1.01282e-10
1.01233e-10
1.00966e-10
1.00398e-10
9.99254e-11
9.28335e-11
9.32941e-11
9.38241e-11
9.40757e-11
9.41255e-11
9.41766e-11
9.41347e-11
9.41563e-11
9.4123e-11
9.4139e-11
9.41191e-11
9.41307e-11
9.41178e-11
9.41255e-11
9.41171e-11
9.41228e-11
9.41168e-11
9.41214e-11
9.41175e-11
9.41203e-11
9.41178e-11
9.41195e-11
9.41179e-11
9.41188e-11
9.41184e-11
9.41185e-11
9.41189e-11
9.4118e-11
9.41195e-11
9.41179e-11
9.41204e-11
9.41176e-11
9.41215e-11
9.41169e-11
9.4123e-11
9.41172e-11
9.41256e-11
9.41179e-11
9.41307e-11
9.41194e-11
9.41391e-11
9.41231e-11
9.41564e-11
9.41348e-11
9.41766e-11
9.41255e-11
9.40758e-11
9.38241e-11
9.32942e-11
9.28336e-11
8.65369e-11
8.69846e-11
8.74794e-11
8.77172e-11
8.77669e-11
8.78151e-11
8.77765e-11
8.7796e-11
8.77652e-11
8.77794e-11
8.77611e-11
8.77714e-11
8.77595e-11
8.77665e-11
8.77587e-11
8.77639e-11
8.77583e-11
8.77626e-11
8.7759e-11
8.77615e-11
8.77592e-11
8.77607e-11
8.77593e-11
8.77601e-11
8.77598e-11
8.77598e-11
8.77602e-11
8.77594e-11
8.77608e-11
8.77593e-11
8.77616e-11
8.77591e-11
8.77627e-11
8.77585e-11
8.77641e-11
8.77588e-11
8.77666e-11
8.77597e-11
8.77715e-11
8.77613e-11
8.77796e-11
8.77653e-11
8.77961e-11
8.77766e-11
8.78152e-11
8.7767e-11
8.77173e-11
8.74794e-11
8.69847e-11
8.6537e-11
8.09266e-11
8.13604e-11
8.18233e-11
8.20481e-11
8.20974e-11
8.21429e-11
8.21073e-11
8.21248e-11
8.20963e-11
8.2109e-11
8.2092e-11
8.21012e-11
8.20902e-11
8.20965e-11
8.20893e-11
8.2094e-11
8.20888e-11
8.20927e-11
8.20894e-11
8.20918e-11
8.20896e-11
8.2091e-11
8.20897e-11
8.20904e-11
8.20901e-11
8.20901e-11
8.20905e-11
8.20897e-11
8.20911e-11
8.20897e-11
8.20918e-11
8.20895e-11
8.20929e-11
8.2089e-11
8.20942e-11
8.20894e-11
8.20966e-11
8.20904e-11
8.21013e-11
8.20922e-11
8.21091e-11
8.20964e-11
8.21249e-11
8.21074e-11
8.2143e-11
8.20975e-11
8.20482e-11
8.18233e-11
8.13605e-11
8.09267e-11
7.59111e-11
7.63304e-11
7.67641e-11
7.69767e-11
7.70253e-11
7.70683e-11
7.70355e-11
7.70512e-11
7.70247e-11
7.7036e-11
7.70202e-11
7.70285e-11
7.70182e-11
7.70239e-11
7.70172e-11
7.70215e-11
7.70167e-11
7.70203e-11
7.70172e-11
7.70194e-11
7.70174e-11
7.70187e-11
7.70174e-11
7.70181e-11
7.70178e-11
7.70178e-11
7.70182e-11
7.70175e-11
7.70187e-11
7.70175e-11
7.70195e-11
7.70173e-11
7.70204e-11
7.70169e-11
7.70217e-11
7.70174e-11
7.70241e-11
7.70184e-11
7.70286e-11
7.70204e-11
7.70361e-11
7.70248e-11
7.70513e-11
7.70356e-11
7.70684e-11
7.70254e-11
7.69768e-11
7.67642e-11
7.63304e-11
7.59112e-11
7.1413e-11
7.1817e-11
7.22243e-11
7.24254e-11
7.24732e-11
7.25138e-11
7.24834e-11
7.24975e-11
7.24729e-11
7.24829e-11
7.24682e-11
7.24757e-11
7.24661e-11
7.24712e-11
7.2465e-11
7.24689e-11
7.24645e-11
7.24678e-11
7.24649e-11
7.24669e-11
7.2465e-11
7.24662e-11
7.24651e-11
7.24657e-11
7.24654e-11
7.24654e-11
7.24657e-11
7.24651e-11
7.24663e-11
7.24651e-11
7.2467e-11
7.2465e-11
7.24679e-11
7.24646e-11
7.24691e-11
7.24652e-11
7.24714e-11
7.24663e-11
7.24758e-11
7.24684e-11
7.2483e-11
7.2473e-11
7.24976e-11
7.24835e-11
7.25138e-11
7.24732e-11
7.24255e-11
7.22244e-11
7.18171e-11
7.14131e-11
6.73665e-11
6.77547e-11
6.81379e-11
6.83282e-11
6.8375e-11
6.84133e-11
6.83852e-11
6.83979e-11
6.83749e-11
6.83838e-11
6.83701e-11
6.83768e-11
6.83679e-11
6.83725e-11
6.83667e-11
6.83703e-11
6.83662e-11
6.83692e-11
6.83665e-11
6.83683e-11
6.83666e-11
6.83677e-11
6.83666e-11
6.83672e-11
6.83669e-11
6.83669e-11
6.83672e-11
6.83667e-11
6.83677e-11
6.83667e-11
6.83684e-11
6.83666e-11
6.83693e-11
6.83663e-11
6.83704e-11
6.83669e-11
6.83727e-11
6.83681e-11
6.83769e-11
6.83703e-11
6.8384e-11
6.83751e-11
6.8398e-11
6.83853e-11
6.84133e-11
6.8375e-11
6.83282e-11
6.8138e-11
6.77548e-11
6.73666e-11
6.37155e-11
6.40872e-11
6.44486e-11
6.46287e-11
6.46743e-11
6.47105e-11
6.46845e-11
6.46959e-11
6.46745e-11
6.46824e-11
6.46696e-11
6.46755e-11
6.46672e-11
6.46714e-11
6.4666e-11
6.46692e-11
6.46654e-11
6.46681e-11
6.46657e-11
6.46673e-11
6.46657e-11
6.46667e-11
6.46657e-11
6.46663e-11
6.4666e-11
6.4666e-11
6.46663e-11
6.46658e-11
6.46668e-11
6.46658e-11
6.46674e-11
6.46657e-11
6.46682e-11
6.46655e-11
6.46694e-11
6.46661e-11
6.46715e-11
6.46674e-11
6.46756e-11
6.46698e-11
6.46825e-11
6.46746e-11
6.4696e-11
6.46846e-11
6.47106e-11
6.46744e-11
6.46288e-11
6.44486e-11
6.40872e-11
6.37155e-11
6.04117e-11
6.07662e-11
6.1108e-11
6.12787e-11
6.13229e-11
6.13572e-11
6.1333e-11
6.13432e-11
6.13233e-11
6.13302e-11
6.13183e-11
6.13236e-11
6.13158e-11
6.13195e-11
6.13145e-11
6.13174e-11
6.13139e-11
6.13164e-11
6.13141e-11
6.13156e-11
6.13141e-11
6.1315e-11
6.13141e-11
6.13146e-11
6.13144e-11
6.13144e-11
6.13146e-11
6.13141e-11
6.13151e-11
6.13142e-11
6.13157e-11
6.13142e-11
6.13165e-11
6.1314e-11
6.13176e-11
6.13146e-11
6.13197e-11
6.1316e-11
6.13237e-11
6.13185e-11
6.13303e-11
6.13234e-11
6.13433e-11
6.13331e-11
6.13572e-11
6.1323e-11
6.12787e-11
6.1108e-11
6.07663e-11
6.04118e-11
5.74128e-11
5.77513e-11
5.80745e-11
5.82363e-11
5.82791e-11
5.83116e-11
5.82891e-11
5.82983e-11
5.82796e-11
5.82857e-11
5.82745e-11
5.82792e-11
5.8272e-11
5.82754e-11
5.82706e-11
5.82733e-11
5.827e-11
5.82723e-11
5.82701e-11
5.82715e-11
5.82701e-11
5.8271e-11
5.82701e-11
5.82706e-11
5.82703e-11
5.82704e-11
5.82706e-11
5.82702e-11
5.8271e-11
5.82702e-11
5.82716e-11
5.82702e-11
5.82724e-11
5.82701e-11
5.82735e-11
5.82708e-11
5.82755e-11
5.82721e-11
5.82794e-11
5.82747e-11
5.82858e-11
5.82797e-11
5.82984e-11
5.82892e-11
5.83117e-11
5.82792e-11
5.82364e-11
5.80746e-11
5.77514e-11
5.74129e-11
5.46831e-11
5.50067e-11
5.53123e-11
5.54658e-11
5.5507e-11
5.55378e-11
5.55169e-11
5.55251e-11
5.55076e-11
5.5513e-11
5.55025e-11
5.55067e-11
5.54999e-11
5.55029e-11
5.54984e-11
5.55009e-11
5.54978e-11
5.54999e-11
5.54979e-11
5.54992e-11
5.54979e-11
5.54986e-11
5.54978e-11
5.54983e-11
5.5498e-11
5.54981e-11
5.54983e-11
5.54979e-11
5.54987e-11
5.54979e-11
5.54993e-11
5.5498e-11
5.55e-11
5.54979e-11
5.5501e-11
5.54986e-11
5.5503e-11
5.55e-11
5.55068e-11
5.55027e-11
5.55131e-11
5.55077e-11
5.55252e-11
5.5517e-11
5.55379e-11
5.55071e-11
5.54659e-11
5.53124e-11
5.50068e-11
5.46831e-11
)
;

boundaryField
{
    fuel
    {
        type            fixedValue;
        value           uniform 0;
    }
    wall
    {
        type            zeroGradient;
    }
    outlet
    {
        type            zeroGradient;
    }
    frontAndBack
    {
        type            empty;
    }
    procBoundary1to0
    {
        type            processor;
        value           nonuniform List<scalar> 
50
(
5.21914e-11
5.25014e-11
5.27902e-11
5.29359e-11
5.29755e-11
5.30048e-11
5.29853e-11
5.29926e-11
5.29762e-11
5.29809e-11
5.2971e-11
5.29747e-11
5.29684e-11
5.29711e-11
5.29669e-11
5.29691e-11
5.29662e-11
5.29681e-11
5.29662e-11
5.29675e-11
5.29662e-11
5.29669e-11
5.29662e-11
5.29666e-11
5.29664e-11
5.29664e-11
5.29666e-11
5.29662e-11
5.2967e-11
5.29663e-11
5.29675e-11
5.29663e-11
5.29682e-11
5.29663e-11
5.29693e-11
5.29671e-11
5.29712e-11
5.29685e-11
5.29749e-11
5.29712e-11
5.2981e-11
5.29763e-11
5.29927e-11
5.29854e-11
5.30048e-11
5.29756e-11
5.2936e-11
5.27903e-11
5.25015e-11
5.21915e-11
)
;
    }
}


// ************************************************************************* //
