/*--------------------------------*- C++ -*----------------------------------*\
| =========                 |                                                 |
| \\      /  F ield         | OpenFOAM: The Open Source CFD Toolbox           |
|  \\    /   O peration     | Version:  dev                                   |
|   \\  /    A nd           | Web:      www.OpenFOAM.org                      |
|    \\/     M anipulation  |                                                 |
\*---------------------------------------------------------------------------*/
FoamFile
{
    version     2.0;
    format      ascii;
    class       volScalarField;
    location    "0.04";
    object      O;
}
// * * * * * * * * * * * * * * * * * * * * * * * * * * * * * * * * * * * * * //

dimensions      [0 0 0 0 0 0 0];

internalField   nonuniform List<scalar> 
25
(
6.53214e-06
5.84315e-06
5.21031e-06
4.63131e-06
4.09368e-06
3.60406e-06
3.16088e-06
2.76114e-06
2.40184e-06
2.08005e-06
1.79286e-06
1.54342e-06
1.3229e-06
1.12661e-06
9.52808e-07
8.04987e-07
6.76896e-07
5.66482e-07
4.71817e-07
3.91233e-07
3.21743e-07
2.64278e-07
2.16154e-07
1.75609e-07
1.42404e-07
)
;

boundaryField
{
    wall
    {
        type            zeroGradient;
    }
    fuel
    {
        type            fixedValue;
        value           nonuniform 0();
    }
    outlet
    {
        type            inletOutlet;
        inletValue      nonuniform 0();
        value           nonuniform 0();
    }
    procBoundary1to0
    {
        type            processor;
        value           uniform 7.27945e-06;
    }
    procBoundary1to2
    {
        type            processor;
        value           uniform 1.15026e-07;
    }
}


// ************************************************************************* //
