/*--------------------------------*- C++ -*----------------------------------*\
| =========                 |                                                 |
| \\      /  F ield         | OpenFOAM: The Open Source CFD Toolbox           |
|  \\    /   O peration     | Version:  dev                                   |
|   \\  /    A nd           | Web:      www.OpenFOAM.org                      |
|    \\/     M anipulation  |                                                 |
\*---------------------------------------------------------------------------*/
FoamFile
{
    version     2.0;
    format      ascii;
    class       volScalarField;
    location    "0.04";
    object      O2;
}
// * * * * * * * * * * * * * * * * * * * * * * * * * * * * * * * * * * * * * //

dimensions      [0 0 0 0 0 0 0];

internalField   nonuniform List<scalar> 
25
(
3.0678e-06
2.74321e-06
2.44566e-06
2.17385e-06
1.9218e-06
1.69255e-06
1.48531e-06
1.29863e-06
1.13104e-06
9.81149e-07
8.47542e-07
7.31666e-07
6.29394e-07
5.38554e-07
4.58382e-07
3.906e-07
3.3254e-07
2.83624e-07
2.43572e-07
2.12583e-07
1.90959e-07
1.81e-07
1.84858e-07
2.06672e-07
2.51521e-07
)
;

boundaryField
{
    wall
    {
        type            zeroGradient;
    }
    fuel
    {
        type            fixedValue;
        value           nonuniform 0();
    }
    outlet
    {
        type            inletOutlet;
        inletValue      nonuniform 0();
        value           nonuniform 0();
    }
    procBoundary1to0
    {
        type            processor;
        value           uniform 3.42048e-06;
    }
    procBoundary1to2
    {
        type            processor;
        value           uniform 3.29271e-07;
    }
}


// ************************************************************************* //
