/*--------------------------------*- C++ -*----------------------------------*\
| =========                 |                                                 |
| \\      /  F ield         | OpenFOAM: The Open Source CFD Toolbox           |
|  \\    /   O peration     | Version:  dev                                   |
|   \\  /    A nd           | Web:      www.OpenFOAM.org                      |
|    \\/     M anipulation  |                                                 |
\*---------------------------------------------------------------------------*/
FoamFile
{
    version     2.0;
    format      ascii;
    class       volVectorField;
    location    "0.04";
    object      U;
}
// * * * * * * * * * * * * * * * * * * * * * * * * * * * * * * * * * * * * * //

dimensions      [0 1 -1 0 0 0 0];

internalField   nonuniform List<vector> 
25
(
(4.36975e-13 -4.36975e-13 0.269003)
(4.34476e-13 -4.34476e-13 0.269017)
(4.31901e-13 -4.31901e-13 0.268829)
(4.29269e-13 -4.29269e-13 0.268475)
(4.26561e-13 -4.26561e-13 0.268236)
(4.23794e-13 -4.23794e-13 0.268012)
(4.20977e-13 -4.20977e-13 0.267746)
(4.18102e-13 -4.18102e-13 0.267431)
(4.15184e-13 -4.15184e-13 0.267138)
(4.12261e-13 -4.12261e-13 0.266797)
(4.09259e-13 -4.09259e-13 0.266417)
(4.06213e-13 -4.06213e-13 0.266095)
(4.03135e-13 -4.03135e-13 0.265753)
(4.00015e-13 -4.00015e-13 0.265414)
(3.96853e-13 -3.96853e-13 0.265079)
(3.93648e-13 -3.93648e-13 0.264737)
(3.90399e-13 -3.90399e-13 0.264402)
(3.87103e-13 -3.87103e-13 0.264058)
(3.83749e-13 -3.83749e-13 0.26375)
(3.80337e-13 -3.80337e-13 0.263378)
(3.7692e-13 -3.7692e-13 0.263173)
(3.73442e-13 -3.73442e-13 0.262704)
(3.6993e-13 -3.6993e-13 0.262507)
(3.66375e-13 -3.66375e-13 0.262225)
(3.62692e-13 -3.62692e-13 0.261608)
)
;

boundaryField
{
    wall
    {
        type            zeroGradient;
    }
    fuel
    {
        type            fixedValue;
        value           nonuniform 0();
    }
    outlet
    {
        type            pressureInletOutletVelocity;
        value           nonuniform 0();
    }
    procBoundary1to0
    {
        type            processor;
        value           uniform (4.39387e-13 -4.39387e-13 0.269157);
    }
    procBoundary1to2
    {
        type            processor;
        value           uniform (3.5895e-13 -3.5895e-13 0.261221);
    }
}


// ************************************************************************* //
