/*--------------------------------*- C++ -*----------------------------------*\
| =========                 |                                                 |
| \\      /  F ield         | OpenFOAM: The Open Source CFD Toolbox           |
|  \\    /   O peration     | Version:  dev                                   |
|   \\  /    A nd           | Web:      www.OpenFOAM.org                      |
|    \\/     M anipulation  |                                                 |
\*---------------------------------------------------------------------------*/
FoamFile
{
    version     2.0;
    format      ascii;
    class       volScalarField;
    location    "0.165";
    object      A1;
}
// * * * * * * * * * * * * * * * * * * * * * * * * * * * * * * * * * * * * * //

dimensions      [0 0 0 0 0 0 0];

internalField   nonuniform List<scalar> 
50
(
1.66311e-15
1.48706e-15
1.33044e-15
1.19143e-15
1.06822e-15
9.59053e-16
8.62263e-16
7.76354e-16
6.99992e-16
6.3201e-16
5.7139e-16
5.17252e-16
4.68831e-16
4.2546e-16
3.86557e-16
3.51613e-16
3.20182e-16
2.91871e-16
2.66338e-16
2.4328e-16
2.22431e-16
2.03558e-16
1.86456e-16
1.70942e-16
1.56855e-16
1.44055e-16
1.32413e-16
1.21818e-16
1.12168e-16
1.03375e-16
9.53571e-17
8.80425e-17
8.13661e-17
7.5269e-17
6.96982e-17
6.46058e-17
5.99484e-17
5.56868e-17
5.17856e-17
4.82132e-17
4.49417e-17
4.1946e-17
3.92032e-17
3.66901e-17
3.43805e-17
3.23204e-17
3.03939e-17
2.86127e-17
2.69791e-17
2.54708e-17
)
;

boundaryField
{
    wall
    {
        type            zeroGradient;
    }
    fuel
    {
        type            fixedValue;
        value           nonuniform 0();
    }
    outlet
    {
        type            inletOutlet;
        inletValue      nonuniform 0();
        value           nonuniform 0();
    }
    procBoundary1to0
    {
        type            processor;
        value           uniform 1.86215e-15;
    }
    procBoundary1to2
    {
        type            processor;
        value           uniform 2.40874e-17;
    }
}


// ************************************************************************* //
