/*--------------------------------*- C++ -*----------------------------------*\
| =========                 |                                                 |
| \\      /  F ield         | OpenFOAM: The Open Source CFD Toolbox           |
|  \\    /   O peration     | Version:  dev                                   |
|   \\  /    A nd           | Web:      www.OpenFOAM.org                      |
|    \\/     M anipulation  |                                                 |
\*---------------------------------------------------------------------------*/
FoamFile
{
    version     2.0;
    format      ascii;
    class       volScalarField;
    location    "0.165";
    object      A1C2H*;
}
// * * * * * * * * * * * * * * * * * * * * * * * * * * * * * * * * * * * * * //

dimensions      [0 0 0 0 0 0 0];

internalField   nonuniform List<scalar> 
50
(
2.89072e-16
2.5205e-16
2.19799e-16
1.91771e-16
1.67446e-16
1.46343e-16
1.28032e-16
1.12127e-16
9.82988e-17
8.62594e-17
7.57643e-17
6.66041e-17
5.85994e-17
5.15966e-17
4.54634e-17
4.00862e-17
3.5367e-17
3.12211e-17
2.75755e-17
2.4367e-17
2.15408e-17
1.90496e-17
1.68521e-17
1.49127e-17
1.32001e-17
1.16871e-17
1.035e-17
9.16793e-18
8.12259e-18
7.19797e-18
6.37997e-18
5.65616e-18
5.01558e-18
4.44858e-18
3.94662e-18
3.50219e-18
3.10862e-18
2.76004e-18
2.45128e-18
2.17778e-18
1.93555e-18
1.72105e-18
1.53111e-18
1.36278e-18
1.21314e-18
1.08393e-18
9.67033e-19
8.62478e-19
7.69721e-19
6.86934e-19
)
;

boundaryField
{
    wall
    {
        type            zeroGradient;
    }
    fuel
    {
        type            fixedValue;
        value           nonuniform 0();
    }
    outlet
    {
        type            inletOutlet;
        inletValue      nonuniform 0();
        value           nonuniform 0();
    }
    procBoundary1to0
    {
        type            processor;
        value           uniform 3.32036e-16;
    }
    procBoundary1to2
    {
        type            processor;
        value           uniform 6.13506e-19;
    }
}


// ************************************************************************* //
