/*--------------------------------*- C++ -*----------------------------------*\
| =========                 |                                                 |
| \\      /  F ield         | OpenFOAM: The Open Source CFD Toolbox           |
|  \\    /   O peration     | Version:  dev                                   |
|   \\  /    A nd           | Web:      www.OpenFOAM.org                      |
|    \\/     M anipulation  |                                                 |
\*---------------------------------------------------------------------------*/
FoamFile
{
    version     2.0;
    format      ascii;
    class       volScalarField;
    location    "0.165";
    object      C4H;
}
// * * * * * * * * * * * * * * * * * * * * * * * * * * * * * * * * * * * * * //

dimensions      [0 0 0 0 0 0 0];

internalField   nonuniform List<scalar> 
250
(
5.71388e-10
5.94448e-10
6.21404e-10
5.72564e-10
5.53126e-10
5.40517e-10
5.41176e-10
5.31891e-10
5.36097e-10
5.31828e-10
3.82614e-10
3.80364e-10
3.93189e-10
3.59045e-10
3.46275e-10
3.37489e-10
3.3809e-10
3.31701e-10
3.34674e-10
3.31722e-10
3.26058e-10
3.44468e-10
3.26835e-10
3.49594e-10
3.38933e-10
3.58115e-10
3.86213e-10
3.81391e-10
5.02872e-10
4.6714e-10
2.3899e-10
2.27983e-10
2.33201e-10
2.11138e-10
2.03303e-10
1.97531e-10
1.98015e-10
1.93919e-10
1.95871e-10
1.9397e-10
1.90301e-10
2.0223e-10
1.90762e-10
2.05483e-10
1.98372e-10
2.10446e-10
2.2787e-10
2.24202e-10
3.02121e-10
2.8158e-10
1.37802e-10
1.26644e-10
1.28232e-10
1.15199e-10
1.1079e-10
1.07166e-10
1.07516e-10
1.05092e-10
1.06273e-10
1.05142e-10
1.0294e-10
1.10096e-10
1.03185e-10
1.12117e-10
1.07607e-10
1.14772e-10
1.24717e-10
1.22182e-10
1.68459e-10
1.57793e-10
7.22602e-11
6.37888e-11
6.43383e-11
5.6796e-11
5.44464e-11
5.30394e-11
5.32661e-11
5.19607e-11
5.26089e-11
5.19974e-11
5.07903e-11
5.47068e-11
5.09029e-11
5.52163e-11
5.3235e-11
5.65609e-11
6.18692e-11
6.07536e-11
8.58655e-11
8.12499e-11
3.37288e-11
2.87741e-11
2.88087e-11
2.51637e-11
2.40887e-11
2.34011e-11
2.35291e-11
2.29029e-11
2.32193e-11
2.29248e-11
2.23337e-11
2.42471e-11
2.2378e-11
2.4471e-11
2.34787e-11
2.5055e-11
2.75278e-11
2.69477e-11
3.91295e-11
3.67115e-11
1.35674e-11
1.1189e-11
1.11363e-11
9.61389e-12
9.19177e-12
8.90006e-12
8.96134e-12
8.70246e-12
8.8353e-12
8.71313e-12
8.46315e-12
9.27037e-12
8.47733e-12
9.35486e-12
8.92701e-12
9.57117e-12
1.05697e-11
1.03111e-11
1.54279e-11
1.46359e-11
4.48173e-12
3.57204e-12
3.54106e-12
3.01726e-12
2.88217e-12
2.78024e-12
2.804e-12
2.71617e-12
2.76184e-12
2.72032e-12
2.63349e-12
2.91332e-12
2.63685e-12
2.9389e-12
2.78827e-12
3.00373e-12
3.33693e-12
3.24201e-12
5.01378e-12
4.80196e-12
1.13385e-12
8.73888e-13
8.65332e-13
7.27081e-13
6.94436e-13
6.67101e-13
6.74068e-13
6.51287e-13
6.63256e-13
6.52497e-13
6.29469e-13
7.03615e-13
6.29972e-13
7.09349e-13
6.69103e-13
7.2394e-13
8.09592e-13
7.82571e-13
1.25266e-12
1.20884e-12
2.01171e-13
1.5049e-13
1.49387e-13
1.23833e-13
1.18415e-13
1.13274e-13
1.14683e-13
1.10553e-13
1.1274e-13
1.10795e-13
1.06541e-13
1.20238e-13
1.06573e-13
1.21103e-13
1.13666e-13
1.23352e-13
1.38853e-13
1.33416e-13
2.20274e-13
2.1363e-13
2.22499e-14
1.6141e-14
1.61084e-14
1.31392e-14
1.25898e-14
1.19826e-14
1.21585e-14
1.16909e-14
1.19396e-14
1.17199e-14
1.12331e-14
1.28041e-14
1.12319e-14
1.28813e-14
1.20365e-14
1.30941e-14
1.48641e-14
1.41814e-14
2.42083e-14
2.35596e-14
1.30297e-15
9.13589e-16
9.21188e-16
7.36545e-16
7.084e-16
6.70216e-16
6.81747e-16
6.53685e-16
6.68685e-16
6.55512e-16
6.26745e-16
7.20275e-16
6.26677e-16
7.23757e-16
6.74873e-16
7.34381e-16
8.43482e-16
7.9667e-16
1.41299e-15
1.37326e-15
4.25183e-17
2.89298e-17
2.95258e-17
2.31478e-17
2.23606e-17
2.10324e-17
2.1445e-17
2.05072e-17
2.10095e-17
2.05714e-17
1.96362e-17
2.27021e-17
1.96423e-17
2.27867e-17
2.12501e-17
2.30895e-17
2.68625e-17
2.50929e-17
4.61096e-17
4.45847e-17
)
;

boundaryField
{
    fuel
    {
        type            fixedValue;
        value           nonuniform 0();
    }
    wall
    {
        type            zeroGradient;
    }
    outlet
    {
        type            zeroGradient;
    }
    frontAndBack
    {
        type            empty;
    }
    procBoundary1to0
    {
        type            processor;
        value           nonuniform List<scalar> 
21
(
8.02377e-10
8.77016e-10
9.28368e-10
8.63021e-10
8.35329e-10
8.18159e-10
8.18804e-10
8.06124e-10
8.11695e-10
8.05884e-10
5.23615e-10
5.23615e-10
5.50133e-10
5.2484e-10
5.57811e-10
5.42831e-10
5.71398e-10
6.13862e-10
6.08045e-10
7.85397e-10
7.28139e-10
)
;
    }
}


// ************************************************************************* //
