/*--------------------------------*- C++ -*----------------------------------*\
| =========                 |                                                 |
| \\      /  F ield         | OpenFOAM: The Open Source CFD Toolbox           |
|  \\    /   O peration     | Version:  dev                                   |
|   \\  /    A nd           | Web:      www.OpenFOAM.org                      |
|    \\/     M anipulation  |                                                 |
\*---------------------------------------------------------------------------*/
FoamFile
{
    version     2.0;
    format      ascii;
    class       volScalarField;
    location    "0.165";
    object      CH2(S);
}
// * * * * * * * * * * * * * * * * * * * * * * * * * * * * * * * * * * * * * //

dimensions      [0 0 0 0 0 0 0];

internalField   nonuniform List<scalar> 
250
(
6.7715e-10
7.88412e-10
9.01387e-10
8.4397e-10
8.19153e-10
7.98971e-10
8.00772e-10
7.83943e-10
7.9198e-10
7.8418e-10
4.23803e-10
4.63976e-10
5.1953e-10
4.79525e-10
4.63977e-10
4.51044e-10
4.52358e-10
4.41927e-10
4.47008e-10
4.42166e-10
4.33009e-10
4.63265e-10
4.34122e-10
4.71491e-10
4.53656e-10
4.83645e-10
5.25297e-10
5.00008e-10
6.54752e-10
5.48088e-10
2.44858e-10
2.53483e-10
2.78445e-10
2.5369e-10
2.44766e-10
2.37043e-10
2.37913e-10
2.31939e-10
2.34901e-10
2.32124e-10
2.26819e-10
2.44319e-10
2.27423e-10
2.49026e-10
2.38433e-10
2.55475e-10
2.79048e-10
2.6522e-10
3.58434e-10
3.02421e-10
1.29351e-10
1.27379e-10
1.37458e-10
1.23851e-10
1.19232e-10
1.14848e-10
1.15372e-10
1.12235e-10
1.13817e-10
1.12355e-10
1.09528e-10
1.18833e-10
1.0982e-10
1.21465e-10
1.1551e-10
1.24579e-10
1.36714e-10
1.29599e-10
1.80658e-10
1.53821e-10
6.16334e-11
5.76353e-11
6.16185e-11
5.4321e-11
5.2067e-11
5.0571e-11
5.08565e-11
4.93644e-11
5.0128e-11
4.94307e-11
4.80619e-11
5.25539e-11
4.81843e-11
5.31657e-11
5.08398e-11
5.45851e-11
6.03786e-11
5.75182e-11
8.27244e-11
7.14439e-11
2.59727e-11
2.32686e-11
2.45736e-11
2.13789e-11
2.0447e-11
1.98023e-11
1.99393e-11
1.93082e-11
1.96357e-11
1.934e-11
1.87491e-11
2.0681e-11
1.87933e-11
2.09175e-11
1.98991e-11
2.14703e-11
2.3872e-11
2.27041e-11
3.37271e-11
2.8896e-11
9.38278e-12
8.06696e-12
8.43647e-12
7.23591e-12
6.90654e-12
6.66464e-12
6.72096e-12
6.49084e-12
6.61169e-12
6.50367e-12
6.28337e-12
7.00103e-12
6.29645e-12
7.08039e-12
6.69492e-12
7.26394e-12
8.12474e-12
7.70854e-12
1.18637e-11
1.03015e-11
2.76555e-12
2.28085e-12
2.36849e-12
1.99864e-12
1.90418e-12
1.82952e-12
1.84838e-12
1.77964e-12
1.81611e-12
1.78383e-12
1.7165e-12
1.93519e-12
1.71944e-12
1.95667e-12
1.83748e-12
2.00592e-12
2.26015e-12
2.13697e-12
3.42491e-12
3.0092e-12
6.19065e-13
4.89525e-13
5.06401e-13
4.19792e-13
3.99533e-13
3.81983e-13
3.86746e-13
3.71174e-13
3.79505e-13
3.722e-13
3.56629e-13
4.07142e-13
3.57076e-13
4.11444e-13
3.83677e-13
4.21306e-13
4.78696e-13
4.5051e-13
7.54626e-13
6.70786e-13
9.83489e-14
7.49873e-14
7.7536e-14
6.33221e-14
6.03209e-14
5.74189e-14
5.82533e-14
5.57747e-14
5.71091e-14
5.59485e-14
5.3428e-14
6.16014e-14
5.34698e-14
6.21913e-14
5.76944e-14
6.35612e-14
7.27037e-14
6.81141e-14
1.18289e-13
1.06965e-13
1.07107e-14
7.90794e-15
8.17513e-15
6.59853e-15
6.29856e-15
5.97315e-15
6.07031e-15
5.80303e-15
5.94737e-15
5.82204e-15
5.5457e-15
6.44137e-15
5.54783e-15
6.49466e-15
6.00434e-15
6.62365e-15
7.61099e-15
7.11637e-15
1.27121e-14
1.20416e-14
7.18501e-16
5.10256e-16
5.26936e-16
4.21071e-16
4.03143e-16
3.81101e-16
3.8781e-16
3.70423e-16
3.79825e-16
3.71607e-16
3.53496e-16
4.12314e-16
3.53587e-16
4.15161e-16
3.83394e-16
4.22626e-16
4.87393e-16
4.56331e-16
8.46912e-16
9.35238e-16
2.99123e-17
1.9848e-17
2.02284e-17
1.61505e-17
1.55165e-17
1.46641e-17
1.49233e-17
1.427e-17
1.46226e-17
1.43098e-17
1.36244e-17
1.58509e-17
1.36308e-17
1.59414e-17
1.47588e-17
1.62068e-17
1.86562e-17
1.77559e-17
3.65099e-17
6.72764e-17
)
;

boundaryField
{
    fuel
    {
        type            fixedValue;
        value           nonuniform 0();
    }
    wall
    {
        type            zeroGradient;
    }
    outlet
    {
        type            zeroGradient;
    }
    frontAndBack
    {
        type            empty;
    }
    procBoundary1to0
    {
        type            processor;
        value           nonuniform List<scalar> 
21
(
1.00667e-09
1.25202e-09
1.46518e-09
1.39229e-09
1.35626e-09
1.32679e-09
1.32908e-09
1.30381e-09
1.31563e-09
1.3039e-09
7.69488e-10
7.69488e-10
8.1786e-10
7.71401e-10
8.31403e-10
8.03541e-10
8.52421e-10
9.20546e-10
8.76589e-10
1.11193e-09
9.24527e-10
)
;
    }
}


// ************************************************************************* //
