/*--------------------------------*- C++ -*----------------------------------*\
| =========                 |                                                 |
| \\      /  F ield         | OpenFOAM: The Open Source CFD Toolbox           |
|  \\    /   O peration     | Version:  dev                                   |
|   \\  /    A nd           | Web:      www.OpenFOAM.org                      |
|    \\/     M anipulation  |                                                 |
\*---------------------------------------------------------------------------*/
FoamFile
{
    version     2.0;
    format      ascii;
    class       volScalarField;
    location    "0.165";
    object      HCCOH;
}
// * * * * * * * * * * * * * * * * * * * * * * * * * * * * * * * * * * * * * //

dimensions      [0 0 0 0 0 0 0];

internalField   nonuniform List<scalar> 
250
(
2.30064e-06
2.25725e-06
2.24647e-06
2.15882e-06
2.12467e-06
2.10405e-06
2.10477e-06
2.09086e-06
2.09696e-06
2.09053e-06
1.94219e-06
1.87558e-06
1.86195e-06
1.78356e-06
1.75425e-06
1.7352e-06
1.73623e-06
1.72336e-06
1.72919e-06
1.72319e-06
1.71158e-06
1.74872e-06
1.71332e-06
1.75882e-06
1.73788e-06
1.77651e-06
1.8332e-06
1.83951e-06
2.08627e-06
2.09509e-06
1.58547e-06
1.50831e-06
1.49353e-06
1.42586e-06
1.40166e-06
1.38451e-06
1.38578e-06
1.37435e-06
1.37967e-06
1.37432e-06
1.3639e-06
1.39726e-06
1.36527e-06
1.40607e-06
1.38661e-06
1.42007e-06
1.46795e-06
1.46976e-06
1.68193e-06
1.68853e-06
1.24552e-06
1.16848e-06
1.15377e-06
1.09817e-06
1.07925e-06
1.06404e-06
1.06542e-06
1.0558e-06
1.06039e-06
1.05586e-06
1.04697e-06
1.07544e-06
1.04797e-06
1.08316e-06
1.06558e-06
1.09364e-06
1.13219e-06
1.13092e-06
1.3063e-06
1.31283e-06
9.38507e-07
8.67205e-07
8.55825e-07
8.09252e-07
7.94643e-07
7.86144e-07
7.87498e-07
7.79913e-07
7.83613e-07
7.80023e-07
7.72927e-07
7.95644e-07
7.73569e-07
7.98057e-07
7.87137e-07
8.05799e-07
8.36082e-07
8.35888e-07
9.73512e-07
9.82611e-07
6.79933e-07
6.21762e-07
6.11907e-07
5.77879e-07
5.67841e-07
5.61417e-07
5.62588e-07
5.57094e-07
5.5982e-07
5.57209e-07
5.5201e-07
5.68648e-07
5.52379e-07
5.70295e-07
5.62037e-07
5.75337e-07
5.96851e-07
5.96125e-07
6.97012e-07
7.01759e-07
4.81005e-07
4.37653e-07
4.29554e-07
4.06606e-07
4.00278e-07
3.95883e-07
3.96763e-07
3.93176e-07
3.94976e-07
3.93265e-07
3.89853e-07
4.00784e-07
3.9004e-07
4.01752e-07
3.96258e-07
4.04727e-07
4.18795e-07
4.18372e-07
4.86433e-07
4.94e-07
3.45097e-07
3.15365e-07
3.08781e-07
2.94582e-07
2.90887e-07
2.88183e-07
2.88742e-07
2.86664e-07
2.87709e-07
2.86706e-07
2.84741e-07
2.91065e-07
2.84833e-07
2.91547e-07
2.88398e-07
2.93146e-07
3.01547e-07
3.01807e-07
3.43746e-07
3.52416e-07
2.65227e-07
2.4587e-07
2.40377e-07
2.32136e-07
2.29995e-07
2.28474e-07
2.28758e-07
2.27675e-07
2.28211e-07
2.27666e-07
2.26663e-07
2.29926e-07
2.26723e-07
2.30138e-07
2.28573e-07
2.30983e-07
2.35641e-07
2.36588e-07
2.60658e-07
2.69368e-07
2.25645e-07
2.12917e-07
2.08168e-07
2.03375e-07
2.01971e-07
2.01133e-07
2.01231e-07
2.00683e-07
2.00944e-07
2.00627e-07
2.00129e-07
2.01786e-07
2.00188e-07
2.01892e-07
2.01138e-07
2.0242e-07
2.04948e-07
2.06378e-07
2.20106e-07
2.28199e-07
2.08853e-07
1.99926e-07
1.95757e-07
1.92745e-07
1.9164e-07
1.91142e-07
1.91133e-07
1.90822e-07
1.90968e-07
1.90727e-07
1.90446e-07
1.91428e-07
1.90515e-07
1.91515e-07
1.91068e-07
1.9195e-07
1.93367e-07
1.9506e-07
2.03414e-07
2.10593e-07
2.02428e-07
1.95584e-07
1.91896e-07
1.89758e-07
1.88776e-07
1.88429e-07
1.88367e-07
1.88146e-07
1.88257e-07
1.88018e-07
1.87822e-07
1.88569e-07
1.879e-07
1.88665e-07
1.88298e-07
1.89094e-07
1.8994e-07
1.91752e-07
1.97372e-07
2.03677e-07
1.99903e-07
1.94122e-07
1.90774e-07
1.89052e-07
1.88135e-07
1.87853e-07
1.87765e-07
1.87578e-07
1.87685e-07
1.87427e-07
1.8727e-07
1.87929e-07
1.87356e-07
1.88034e-07
1.87689e-07
1.88473e-07
1.89035e-07
1.90889e-07
1.95133e-07
2.00836e-07
)
;

boundaryField
{
    fuel
    {
        type            fixedValue;
        value           nonuniform 0();
    }
    wall
    {
        type            zeroGradient;
    }
    outlet
    {
        type            zeroGradient;
    }
    frontAndBack
    {
        type            empty;
    }
    procBoundary1to0
    {
        type            processor;
        value           nonuniform List<scalar> 
21
(
2.648e-06
2.64236e-06
2.63641e-06
2.54103e-06
2.5023e-06
2.48052e-06
2.48088e-06
2.46636e-06
2.47249e-06
2.46583e-06
2.07805e-06
2.07805e-06
2.11777e-06
2.08012e-06
2.12913e-06
2.1073e-06
2.15054e-06
2.21533e-06
2.2277e-06
2.50641e-06
2.5195e-06
)
;
    }
}


// ************************************************************************* //
