/*--------------------------------*- C++ -*----------------------------------*\
| =========                 |                                                 |
| \\      /  F ield         | OpenFOAM: The Open Source CFD Toolbox           |
|  \\    /   O peration     | Version:  dev                                   |
|   \\  /    A nd           | Web:      www.OpenFOAM.org                      |
|    \\/     M anipulation  |                                                 |
\*---------------------------------------------------------------------------*/
FoamFile
{
    version     2.0;
    format      ascii;
    class       volScalarField;
    location    "0.165";
    object      n-A1C2H2;
}
// * * * * * * * * * * * * * * * * * * * * * * * * * * * * * * * * * * * * * //

dimensions      [0 0 0 0 0 0 0];

internalField   nonuniform List<scalar> 
50
(
6.22458e-20
5.46855e-20
4.8056e-20
4.22559e-20
3.71882e-20
3.27626e-20
2.88963e-20
2.55157e-20
2.25561e-20
1.99617e-20
1.76843e-20
1.56825e-20
1.39207e-20
1.23682e-20
1.09985e-20
9.78867e-21
8.71877e-21
7.7716e-21
6.93217e-21
6.18746e-21
5.52616e-21
4.9384e-21
4.41557e-21
3.95016e-21
3.53557e-21
3.16604e-21
2.83648e-21
2.54244e-21
2.27996e-21
2.04556e-21
1.83616e-21
1.64902e-21
1.48172e-21
1.33211e-21
1.19827e-21
1.07849e-21
9.71259e-22
8.7523e-22
7.89203e-22
7.12121e-22
6.43047e-22
5.81155e-22
5.25694e-22
4.75949e-22
4.31183e-22
3.92066e-22
3.56224e-22
3.23748e-22
2.94554e-22
2.68139e-22
)
;

boundaryField
{
    wall
    {
        type            zeroGradient;
    }
    fuel
    {
        type            fixedValue;
        value           nonuniform 0();
    }
    outlet
    {
        type            inletOutlet;
        inletValue      nonuniform 0();
        value           nonuniform 0();
    }
    procBoundary1to0
    {
        type            processor;
        value           uniform 7.09553e-20;
    }
    procBoundary1to2
    {
        type            processor;
        value           uniform 2.44369e-22;
    }
}


// ************************************************************************* //
