/*--------------------------------*- C++ -*----------------------------------*\
| =========                 |                                                 |
| \\      /  F ield         | OpenFOAM: The Open Source CFD Toolbox           |
|  \\    /   O peration     | Version:  dev                                   |
|   \\  /    A nd           | Web:      www.OpenFOAM.org                      |
|    \\/     M anipulation  |                                                 |
\*---------------------------------------------------------------------------*/
FoamFile
{
    version     2.0;
    format      ascii;
    class       volScalarField;
    location    "0.165";
    object      naphthyne;
}
// * * * * * * * * * * * * * * * * * * * * * * * * * * * * * * * * * * * * * //

dimensions      [0 0 0 0 0 0 0];

internalField   nonuniform List<scalar> 
50
(
5.16347e-17
4.58366e-17
4.07087e-17
3.61846e-17
3.21987e-17
2.86881e-17
2.55946e-17
2.28656e-17
2.04547e-17
1.83214e-17
1.64308e-17
1.47526e-17
1.32608e-17
1.19328e-17
1.07488e-17
9.69181e-18
8.74694e-18
7.90118e-18
7.14316e-18
6.46295e-18
5.85185e-18
5.30226e-18
4.80747e-18
4.36163e-18
3.95954e-18
3.59663e-18
3.26887e-18
2.97265e-18
2.70479e-18
2.46244e-18
2.24308e-18
2.04443e-18
1.86445e-18
1.70132e-18
1.55341e-18
1.41924e-18
1.29748e-18
1.18693e-18
1.08653e-18
9.95324e-19
9.12454e-19
8.37165e-19
7.6876e-19
7.06557e-19
6.49818e-19
5.9957e-19
5.5293e-19
5.10118e-19
4.71122e-19
4.35358e-19
)
;

boundaryField
{
    wall
    {
        type            zeroGradient;
    }
    fuel
    {
        type            fixedValue;
        value           nonuniform 0();
    }
    outlet
    {
        type            inletOutlet;
        inletValue      nonuniform 0();
        value           nonuniform 0();
    }
    procBoundary1to0
    {
        type            processor;
        value           uniform 5.82697e-17;
    }
    procBoundary1to2
    {
        type            processor;
        value           uniform 4.027e-19;
    }
}


// ************************************************************************* //
