/*--------------------------------*- C++ -*----------------------------------*\
| =========                 |                                                 |
| \\      /  F ield         | OpenFOAM: The Open Source CFD Toolbox           |
|  \\    /   O peration     | Version:  dev                                   |
|   \\  /    A nd           | Web:      www.OpenFOAM.org                      |
|    \\/     M anipulation  |                                                 |
\*---------------------------------------------------------------------------*/
FoamFile
{
    version     2.0;
    format      ascii;
    class       volScalarField;
    location    "0.165";
    object      p;
}
// * * * * * * * * * * * * * * * * * * * * * * * * * * * * * * * * * * * * * //

dimensions      [1 -1 -2 0 0 0 0];

internalField   nonuniform List<scalar> 
50
(
100167
100166
100166
100165
100165
100165
100164
100164
100163
100163
100162
100162
100161
100161
100160
100160
100159
100159
100158
100157
100157
100156
100156
100155
100155
100154
100153
100153
100152
100152
100151
100150
100150
100149
100148
100148
100147
100146
100146
100145
100144
100144
100143
100142
100141
100141
100140
100139
100138
100138
)
;

boundaryField
{
    wall
    {
        type            zeroGradient;
    }
    fuel
    {
        type            zeroGradient;
    }
    outlet
    {
        type            totalPressure;
        rho             none;
        psi             none;
        gamma           1;
        p0              nonuniform 0();
        value           nonuniform 0();
    }
    procBoundary1to0
    {
        type            processor;
        value           uniform 100167;
    }
    procBoundary1to2
    {
        type            processor;
        value           uniform 100137;
    }
}


// ************************************************************************* //
