/*--------------------------------*- C++ -*----------------------------------*\
| =========                 |                                                 |
| \\      /  F ield         | OpenFOAM: The Open Source CFD Toolbox           |
|  \\    /   O peration     | Version:  dev                                   |
|   \\  /    A nd           | Web:      www.OpenFOAM.org                      |
|    \\/     M anipulation  |                                                 |
\*---------------------------------------------------------------------------*/
FoamFile
{
    version     2.0;
    format      ascii;
    class       volScalarField;
    location    "0.165";
    object      P2;
}
// * * * * * * * * * * * * * * * * * * * * * * * * * * * * * * * * * * * * * //

dimensions      [0 0 0 0 0 0 0];

internalField   nonuniform List<scalar> 
250
(
1.12611e-09
6.55991e-10
4.97563e-10
4.57901e-10
4.47345e-10
4.45321e-10
4.44631e-10
4.45669e-10
4.44717e-10
4.45484e-10
1.00688e-09
6.43757e-10
5.11867e-10
4.76625e-10
4.66964e-10
4.64915e-10
4.64262e-10
4.65072e-10
4.64233e-10
4.64909e-10
4.656e-10
4.62592e-10
4.65622e-10
4.62213e-10
4.64614e-10
4.64906e-10
4.74017e-10
5.22112e-10
7.23264e-10
1.54575e-09
9.10729e-10
6.29311e-10
5.20414e-10
4.89376e-10
4.80679e-10
4.78651e-10
4.78055e-10
4.78645e-10
4.77925e-10
4.78516e-10
4.79054e-10
4.76611e-10
4.79055e-10
4.76336e-10
4.78407e-10
4.78878e-10
4.8757e-10
5.29509e-10
7.08598e-10
1.41322e-09
8.31911e-10
6.1316e-10
5.23899e-10
4.96859e-10
4.89183e-10
4.87244e-10
4.86714e-10
4.87125e-10
4.86515e-10
4.87037e-10
4.87449e-10
4.85486e-10
4.87428e-10
4.85284e-10
4.8706e-10
4.8761e-10
4.95703e-10
5.31497e-10
6.87037e-10
1.27673e-09
7.67112e-10
5.96474e-10
5.23854e-10
5.00765e-10
4.94137e-10
4.92268e-10
4.91801e-10
4.92094e-10
4.91568e-10
4.9205e-10
4.92381e-10
4.90745e-10
4.92337e-10
4.90683e-10
4.92142e-10
4.92725e-10
4.99993e-10
5.29917e-10
6.61514e-10
1.14514e-09
7.14882e-10
5.81559e-10
5.22613e-10
5.03224e-10
4.97619e-10
4.95976e-10
4.95559e-10
4.95803e-10
4.95329e-10
4.958e-10
4.96106e-10
4.9461e-10
4.96041e-10
4.94574e-10
4.95899e-10
4.96319e-10
5.02618e-10
5.27276e-10
6.35526e-10
1.02116e-09
6.75044e-10
5.70647e-10
5.22869e-10
5.06951e-10
5.02316e-10
5.0095e-10
5.00566e-10
5.00818e-10
5.00366e-10
5.00853e-10
5.0118e-10
4.99658e-10
5.01099e-10
4.99634e-10
5.00911e-10
5.01088e-10
5.06309e-10
5.264e-10
6.12774e-10
9.16724e-10
6.47928e-10
5.65883e-10
5.27096e-10
5.14311e-10
5.10524e-10
5.09451e-10
5.09081e-10
5.09369e-10
5.08925e-10
5.09435e-10
5.09802e-10
5.08177e-10
5.09708e-10
5.08167e-10
5.09436e-10
5.09375e-10
5.13522e-10
5.29777e-10
5.9653e-10
8.31191e-10
6.33252e-10
5.68212e-10
5.36573e-10
5.26405e-10
5.23286e-10
5.22464e-10
5.22104e-10
5.22409e-10
5.21981e-10
5.22501e-10
5.22879e-10
5.21223e-10
5.22778e-10
5.21239e-10
5.22459e-10
5.22274e-10
5.25496e-10
5.38592e-10
5.88705e-10
7.65885e-10
6.28843e-10
5.76317e-10
5.50314e-10
5.4208e-10
5.39423e-10
5.38763e-10
5.38424e-10
5.38686e-10
5.38305e-10
5.38802e-10
5.39118e-10
5.37642e-10
5.39009e-10
5.377e-10
5.38749e-10
5.38642e-10
5.41208e-10
5.5172e-10
5.88718e-10
7.19117e-10
6.29766e-10
5.86002e-10
5.64419e-10
5.574e-10
5.55032e-10
5.54419e-10
5.54128e-10
5.5428e-10
5.53981e-10
5.54417e-10
5.54589e-10
5.53543e-10
5.54466e-10
5.53647e-10
5.54386e-10
5.54547e-10
5.56765e-10
5.65166e-10
5.92711e-10
6.86121e-10
6.29059e-10
5.91281e-10
5.73113e-10
5.66872e-10
5.64735e-10
5.64117e-10
5.63884e-10
5.63924e-10
5.63708e-10
5.64078e-10
5.64103e-10
5.63507e-10
5.63962e-10
5.63638e-10
5.64064e-10
5.6449e-10
5.66518e-10
5.73263e-10
5.94275e-10
6.60231e-10
6.25363e-10
5.91454e-10
5.75536e-10
5.69926e-10
5.68007e-10
5.67413e-10
5.67216e-10
5.67212e-10
5.67036e-10
5.67376e-10
5.67343e-10
5.66931e-10
5.67187e-10
5.67065e-10
5.67354e-10
5.67855e-10
5.69691e-10
5.75378e-10
5.92026e-10
6.41194e-10
)
;

boundaryField
{
    fuel
    {
        type            fixedValue;
        value           nonuniform 0();
    }
    wall
    {
        type            zeroGradient;
    }
    outlet
    {
        type            zeroGradient;
    }
    frontAndBack
    {
        type            empty;
    }
    procBoundary1to0
    {
        type            processor;
        value           nonuniform List<scalar> 
21
(
1.277e-09
6.66437e-10
4.77762e-10
4.33445e-10
4.22066e-10
4.20078e-10
4.19377e-10
4.2062e-10
4.19578e-10
4.20426e-10
4.46331e-10
4.46331e-10
4.4276e-10
4.46371e-10
4.4226e-10
4.44974e-10
4.45039e-10
4.54431e-10
5.08339e-10
7.2913e-10
1.66587e-09
)
;
    }
}


// ************************************************************************* //
