/*--------------------------------*- C++ -*----------------------------------*\
| =========                 |                                                 |
| \\      /  F ield         | OpenFOAM: The Open Source CFD Toolbox           |
|  \\    /   O peration     | Version:  dev                                   |
|   \\  /    A nd           | Web:      www.OpenFOAM.org                      |
|    \\/     M anipulation  |                                                 |
\*---------------------------------------------------------------------------*/
FoamFile
{
    version     2.0;
    format      ascii;
    class       volScalarField;
    location    "0.165";
    object      P2-H;
}
// * * * * * * * * * * * * * * * * * * * * * * * * * * * * * * * * * * * * * //

dimensions      [0 0 0 0 0 0 0];

internalField   nonuniform List<scalar> 
250
(
1.71243e-16
1.08905e-16
8.74035e-17
7.97441e-17
7.74777e-17
7.67219e-17
7.66448e-17
7.64288e-17
7.64577e-17
7.64067e-17
1.39478e-16
9.57687e-17
8.00756e-17
7.37429e-17
7.18186e-17
7.10998e-17
7.10443e-17
7.07841e-17
7.0847e-17
7.07726e-17
7.05367e-17
7.11788e-17
7.05816e-17
7.14211e-17
7.11537e-17
7.22548e-17
7.4976e-17
8.09741e-17
1.16279e-16
2.23753e-16
1.1401e-16
8.35014e-17
7.22295e-17
6.70747e-17
6.54732e-17
6.48014e-17
6.47654e-17
6.44841e-17
6.45698e-17
6.44826e-17
6.42312e-17
6.49435e-17
6.42711e-17
6.5196e-17
6.48576e-17
6.59136e-17
6.83101e-17
7.27444e-17
1.01151e-16
1.81194e-16
9.37224e-17
7.24658e-17
6.44621e-17
6.03375e-17
5.90323e-17
5.8401e-17
5.83807e-17
5.80979e-17
5.81958e-17
5.81048e-17
5.78527e-17
5.85841e-17
5.78876e-17
5.88539e-17
5.84562e-17
5.94539e-17
6.15045e-17
6.46574e-17
8.69344e-17
1.4482e-16
7.77121e-17
6.27845e-17
5.72377e-17
5.38715e-17
5.27985e-17
5.23533e-17
5.23455e-17
5.20741e-17
5.21763e-17
5.20874e-17
5.1844e-17
5.25593e-17
5.1874e-17
5.27079e-17
5.24021e-17
5.32136e-17
5.49598e-17
5.72011e-17
7.43038e-17
1.15222e-16
6.52359e-17
5.47338e-17
5.08711e-17
4.8199e-17
4.73326e-17
4.69561e-17
4.69573e-17
4.67041e-17
4.68056e-17
4.6722e-17
4.64915e-17
4.71719e-17
4.65172e-17
4.73036e-17
4.69977e-17
4.77199e-17
4.91662e-17
5.06778e-17
6.36073e-17
9.12754e-17
5.568e-17
4.82204e-17
4.55424e-17
4.34246e-17
4.27247e-17
4.24089e-17
4.24162e-17
4.21841e-17
4.22818e-17
4.22048e-17
4.19889e-17
4.26252e-17
4.20112e-17
4.27422e-17
4.2443e-17
4.30846e-17
4.42718e-17
4.52561e-17
5.49395e-17
7.362e-17
4.87676e-17
4.34417e-17
4.1588e-17
3.99367e-17
3.93732e-17
3.91175e-17
3.91258e-17
3.89216e-17
3.90103e-17
3.89433e-17
3.87496e-17
3.93162e-17
3.87697e-17
3.94203e-17
3.91436e-17
3.97023e-17
4.06534e-17
4.12783e-17
4.84369e-17
6.0749e-17
4.5908e-17
4.233e-17
4.10067e-17
3.99181e-17
3.94912e-17
3.93409e-17
3.93274e-17
3.91918e-17
3.92476e-17
3.92097e-17
3.9088e-17
3.94339e-17
3.91103e-17
3.95265e-17
3.93546e-17
3.97576e-17
4.03878e-17
4.08548e-17
4.56697e-17
5.37079e-17
5.94711e-17
5.841e-17
5.7088e-17
5.73917e-17
5.71427e-17
5.73517e-17
5.72028e-17
5.73172e-17
5.72383e-17
5.73099e-17
5.74855e-17
5.69241e-17
5.75379e-17
5.70247e-17
5.73188e-17
5.72465e-17
5.70034e-17
5.78897e-17
5.86846e-17
6.4802e-17
1.80213e-16
1.85057e-16
1.80869e-16
1.85598e-16
1.84977e-16
1.8651e-16
1.85703e-16
1.86583e-16
1.86084e-16
1.86434e-16
1.87539e-16
1.84092e-16
1.87778e-16
1.84445e-16
1.86122e-16
1.85212e-16
1.81967e-16
1.86145e-16
1.76099e-16
1.86742e-16
1.1874e-15
1.19814e-15
1.16512e-15
1.18164e-15
1.17047e-15
1.17671e-15
1.17231e-15
1.17424e-15
1.17315e-15
1.17304e-15
1.17476e-15
1.16862e-15
1.17613e-15
1.17173e-15
1.17245e-15
1.17922e-15
1.16483e-15
1.19418e-15
1.16327e-15
1.2239e-15
1.30128e-14
1.29085e-14
1.24837e-14
1.25377e-14
1.23558e-14
1.23918e-14
1.23511e-14
1.23419e-14
1.23459e-14
1.23279e-14
1.2298e-14
1.23728e-14
1.23091e-14
1.2412e-14
1.23284e-14
1.25115e-14
1.24097e-14
1.27577e-14
1.27752e-14
1.35136e-14
)
;

boundaryField
{
    fuel
    {
        type            fixedValue;
        value           nonuniform 0();
    }
    wall
    {
        type            zeroGradient;
    }
    outlet
    {
        type            zeroGradient;
    }
    frontAndBack
    {
        type            empty;
    }
    procBoundary1to0
    {
        type            processor;
        value           nonuniform List<scalar> 
21
(
2.11289e-16
1.22547e-16
9.3629e-17
8.44823e-17
8.18648e-17
8.10887e-17
8.09905e-17
8.08396e-17
8.08256e-17
8.08072e-17
7.62009e-17
7.62009e-17
7.67141e-17
7.62507e-17
7.69406e-17
7.67687e-17
7.7879e-17
8.08843e-17
8.8692e-17
1.31269e-16
2.70078e-16
)
;
    }
}


// ************************************************************************* //
