/*--------------------------------*- C++ -*----------------------------------*\
| =========                 |                                                 |
| \\      /  F ield         | OpenFOAM: The Open Source CFD Toolbox           |
|  \\    /   O peration     | Version:  dev                                   |
|   \\  /    A nd           | Web:      www.OpenFOAM.org                      |
|    \\/     M anipulation  |                                                 |
\*---------------------------------------------------------------------------*/
FoamFile
{
    version     2.0;
    format      ascii;
    class       volScalarField;
    location    "0.06";
    object      A1C2H*;
}
// * * * * * * * * * * * * * * * * * * * * * * * * * * * * * * * * * * * * * //

dimensions      [0 0 0 0 0 0 0];

internalField   nonuniform List<scalar> 
25
(
1.59311e-07
4.9928e-08
1.41714e-08
3.93674e-09
1.06779e-09
2.92325e-10
7.86456e-11
2.10063e-11
5.66094e-12
1.52353e-12
4.08402e-13
1.09305e-13
3.00228e-14
8.89459e-15
3.1369e-15
1.45822e-15
8.83312e-16
6.27157e-16
4.80239e-16
3.84144e-16
3.20288e-16
2.81782e-16
2.63322e-16
2.62254e-16
2.76847e-16
)
;

boundaryField
{
    wall
    {
        type            zeroGradient;
    }
    fuel
    {
        type            fixedValue;
        value           uniform 0;
    }
    outlet
    {
        type            inletOutlet;
        inletValue      nonuniform 0();
        value           nonuniform 0();
    }
    procBoundary0to1
    {
        type            processor;
        value           uniform 3.05771e-16;
    }
}


// ************************************************************************* //
