/*--------------------------------*- C++ -*----------------------------------*\
| =========                 |                                                 |
| \\      /  F ield         | OpenFOAM: The Open Source CFD Toolbox           |
|  \\    /   O peration     | Version:  dev                                   |
|   \\  /    A nd           | Web:      www.OpenFOAM.org                      |
|    \\/     M anipulation  |                                                 |
\*---------------------------------------------------------------------------*/
FoamFile
{
    version     2.0;
    format      ascii;
    class       volScalarField;
    location    "0.06";
    object      A2-2;
}
// * * * * * * * * * * * * * * * * * * * * * * * * * * * * * * * * * * * * * //

dimensions      [0 0 0 0 0 0 0];

internalField   nonuniform List<scalar> 
250
(
1.06026e-10
1.0602e-10
1.05888e-10
1.05949e-10
1.06202e-10
1.0821e-10
1.18329e-10
1.79937e-10
6.80686e-10
3.79389e-09
1.04283e-10
1.04224e-10
1.04139e-10
1.04139e-10
1.04392e-10
1.06237e-10
1.15625e-10
1.7096e-10
5.95398e-10
3.19433e-09
1.32834e-09
5.32185e-10
1.63867e-10
1.1498e-10
1.06097e-10
1.04368e-10
1.04092e-10
1.04156e-10
1.04122e-10
1.0436e-10
1.04308e-10
1.04183e-10
1.04158e-10
1.04082e-10
1.04341e-10
1.06019e-10
1.14766e-10
1.64239e-10
5.21638e-10
2.70834e-09
1.13294e-09
4.53889e-10
1.58653e-10
1.15762e-10
1.07913e-10
1.0625e-10
1.06006e-10
1.06166e-10
1.06044e-10
1.06386e-10
1.06339e-10
1.06132e-10
1.06182e-10
1.06012e-10
1.06283e-10
1.07788e-10
1.15925e-10
1.59964e-10
4.58883e-10
2.2683e-09
9.57317e-10
3.89707e-10
1.56479e-10
1.188e-10
1.11966e-10
1.10364e-10
1.10152e-10
1.10424e-10
1.10197e-10
1.10663e-10
1.10621e-10
1.10319e-10
1.10457e-10
1.10178e-10
1.10468e-10
1.11794e-10
1.19339e-10
1.58315e-10
4.06364e-10
1.88116e-09
8.04004e-10
3.45122e-10
1.57385e-10
1.24266e-10
1.18412e-10
1.1687e-10
1.16687e-10
1.17077e-10
1.16736e-10
1.17336e-10
1.17299e-10
1.16895e-10
1.17128e-10
1.16733e-10
1.17048e-10
1.18193e-10
1.2515e-10
1.5938e-10
3.67054e-10
1.55099e-09
6.74084e-10
3.10851e-10
1.61113e-10
1.3208e-10
1.27132e-10
1.25653e-10
1.2549e-10
1.25984e-10
1.25537e-10
1.2626e-10
1.26225e-10
1.25728e-10
1.26051e-10
1.25553e-10
1.25895e-10
1.26871e-10
1.33225e-10
1.62978e-10
3.33605e-10
1.23882e-09
5.67065e-10
2.85932e-10
1.66954e-10
1.41879e-10
1.37493e-10
1.36086e-10
1.35927e-10
1.36475e-10
1.35961e-10
1.36758e-10
1.36724e-10
1.3617e-10
1.36549e-10
1.35996e-10
1.36359e-10
1.37201e-10
1.43322e-10
1.68508e-10
3.08016e-10
1.00544e-09
4.80644e-10
2.67307e-10
1.73549e-10
1.52057e-10
1.48843e-10
1.47454e-10
1.47273e-10
1.47794e-10
1.47296e-10
1.48087e-10
1.48042e-10
1.47504e-10
1.4786e-10
1.4734e-10
1.47699e-10
1.4857e-10
1.53316e-10
1.74739e-10
2.86704e-10
7.99986e-10
4.1109e-10
2.52125e-10
1.79198e-10
1.60751e-10
1.57461e-10
1.56144e-10
1.55923e-10
1.56292e-10
1.5591e-10
1.56538e-10
1.56495e-10
1.56072e-10
1.5633e-10
1.55959e-10
1.56287e-10
1.57203e-10
1.61499e-10
1.80351e-10
2.66487e-10
6.4335e-10
3.53901e-10
2.37352e-10
1.80604e-10
1.65512e-10
1.61746e-10
1.60497e-10
1.60223e-10
1.6033e-10
1.6017e-10
1.605e-10
1.60461e-10
1.6025e-10
1.6032e-10
1.60212e-10
1.60473e-10
1.6153e-10
1.6544e-10
1.81511e-10
2.46496e-10
5.16146e-10
3.04624e-10
2.20284e-10
1.76116e-10
1.64149e-10
1.59679e-10
1.58512e-10
1.58186e-10
1.57962e-10
1.581e-10
1.5804e-10
1.58006e-10
1.58077e-10
1.57895e-10
1.58121e-10
1.5828e-10
1.59529e-10
1.63082e-10
1.76948e-10
2.24049e-10
4.12472e-10
2.59697e-10
1.99204e-10
1.64683e-10
1.55534e-10
1.50394e-10
1.49336e-10
1.48975e-10
1.48426e-10
1.48872e-10
1.48411e-10
1.48386e-10
1.48747e-10
1.48304e-10
1.48865e-10
1.48906e-10
1.50324e-10
1.53524e-10
1.65596e-10
1.98247e-10
3.26993e-10
1.32404e-10
1.33e-10
1.32345e-10
1.33167e-10
1.33099e-10
1.34598e-10
1.37408e-10
1.47878e-10
1.69487e-10
2.55668e-10
)
;

boundaryField
{
    fuel
    {
        type            fixedValue;
        value           nonuniform 0();
    }
    wall
    {
        type            zeroGradient;
    }
    outlet
    {
        type            zeroGradient;
    }
    frontAndBack
    {
        type            empty;
    }
    procBoundary0to1
    {
        type            processor;
        value           nonuniform List<scalar> 
21
(
2.16994e-10
1.73836e-10
1.46811e-10
1.40099e-10
1.34594e-10
1.33675e-10
1.33309e-10
1.3251e-10
1.33206e-10
1.32422e-10
1.32422e-10
1.12136e-10
1.12867e-10
1.1209e-10
1.13052e-10
1.12907e-10
1.14373e-10
1.1673e-10
1.25642e-10
1.3925e-10
1.95962e-10
)
;
    }
    procBoundary0to2
    {
        type            processor;
        value           nonuniform List<scalar> 
12
(
1.06098e-10
1.54029e-09
6.21065e-10
1.71999e-10
1.16206e-10
1.06272e-10
1.04469e-10
1.04163e-10
1.04149e-10
1.04186e-10
1.04343e-10
1.04343e-10
)
;
    }
    procBoundary0to3
    {
        type            processor;
        value           nonuniform List<scalar> 10(1.0937e-10 1.09405e-10 1.09236e-10 1.09345e-10 1.09602e-10 1.11772e-10 1.22606e-10 1.91911e-10 7.76358e-10 4.38148e-09);
    }
}


// ************************************************************************* //
