/*--------------------------------*- C++ -*----------------------------------*\
| =========                 |                                                 |
| \\      /  F ield         | OpenFOAM: The Open Source CFD Toolbox           |
|  \\    /   O peration     | Version:  dev                                   |
|   \\  /    A nd           | Web:      www.OpenFOAM.org                      |
|    \\/     M anipulation  |                                                 |
\*---------------------------------------------------------------------------*/
FoamFile
{
    version     2.0;
    format      ascii;
    class       volScalarField;
    location    "0.06";
    object      A2R5-;
}
// * * * * * * * * * * * * * * * * * * * * * * * * * * * * * * * * * * * * * //

dimensions      [0 0 0 0 0 0 0];

internalField   nonuniform List<scalar> 
250
(
3.58277e-09
3.59141e-09
3.57628e-09
3.60715e-09
3.62111e-09
3.68828e-09
3.99386e-09
4.51301e-09
6.11131e-09
4.74018e-09
3.22064e-09
3.22926e-09
3.21494e-09
3.24414e-09
3.25666e-09
3.31817e-09
3.6029e-09
4.08551e-09
5.64353e-09
4.92608e-09
7.54436e-09
5.8513e-09
3.89949e-09
3.23884e-09
3.0404e-09
2.90532e-09
2.94349e-09
2.87294e-09
2.91692e-09
2.88162e-09
2.89133e-09
2.89986e-09
2.88638e-09
2.9138e-09
2.92498e-09
2.98119e-09
3.24306e-09
3.68541e-09
5.13568e-09
4.99026e-09
7.17278e-09
5.31081e-09
3.49534e-09
2.90447e-09
2.72678e-09
2.60335e-09
2.63833e-09
2.57353e-09
2.61436e-09
2.58151e-09
2.59035e-09
2.59876e-09
2.58611e-09
2.61171e-09
2.62164e-09
2.67282e-09
2.91069e-09
3.31084e-09
4.6626e-09
4.93137e-09
6.66933e-09
4.77258e-09
3.11507e-09
2.5942e-09
2.43757e-09
2.32532e-09
2.35742e-09
2.29795e-09
2.33589e-09
2.30525e-09
2.31333e-09
2.32158e-09
2.30973e-09
2.33351e-09
2.34229e-09
2.38859e-09
2.60204e-09
2.95889e-09
4.22395e-09
4.75973e-09
6.0687e-09
4.23998e-09
2.75646e-09
2.30434e-09
2.16887e-09
2.06707e-09
2.09668e-09
2.04204e-09
2.0774e-09
2.04872e-09
2.05613e-09
2.0642e-09
2.05311e-09
2.07511e-09
2.08283e-09
2.12442e-09
2.31353e-09
2.6266e-09
3.78708e-09
4.48855e-09
5.40439e-09
3.71819e-09
2.41762e-09
2.03184e-09
1.91731e-09
1.825e-09
1.85249e-09
1.80221e-09
1.83527e-09
1.80832e-09
1.81518e-09
1.82303e-09
1.81265e-09
1.83293e-09
1.83969e-09
1.87693e-09
2.04206e-09
2.31178e-09
3.35686e-09
4.13524e-09
4.7074e-09
3.21327e-09
2.09712e-09
1.77453e-09
1.68052e-09
1.59632e-09
1.62202e-09
1.57569e-09
1.60668e-09
1.58129e-09
1.58766e-09
1.59526e-09
1.58557e-09
1.60417e-09
1.61002e-09
1.64455e-09
1.78543e-09
2.01381e-09
2.93559e-09
3.71966e-09
4.00584e-09
2.73184e-09
1.79451e-09
1.53104e-09
1.44449e-09
1.37932e-09
1.40345e-09
1.36082e-09
1.38984e-09
1.36594e-09
1.37187e-09
1.37917e-09
1.37015e-09
1.38709e-09
1.39209e-09
1.41634e-09
1.54217e-09
1.72316e-09
2.52633e-09
3.26318e-09
3.32619e-09
2.28008e-09
1.51096e-09
1.30107e-09
1.23124e-09
1.17366e-09
1.19623e-09
1.15724e-09
1.18426e-09
1.1619e-09
1.1674e-09
1.1743e-09
1.166e-09
1.18127e-09
1.18548e-09
1.20706e-09
1.31216e-09
1.44805e-09
2.13392e-09
2.78781e-09
2.6504e-09
1.86373e-09
1.24836e-09
1.0855e-09
1.03035e-09
9.80289e-10
1.00117e-09
9.65931e-10
9.9079e-10
9.70137e-10
9.75178e-10
9.81593e-10
9.74043e-10
9.87605e-10
9.9108e-10
1.00886e-09
1.09633e-09
1.19963e-09
1.76453e-09
2.31533e-09
2.08406e-09
1.48846e-09
1.00933e-09
8.86494e-10
8.43998e-10
8.01304e-10
8.20279e-10
7.89004e-10
8.11432e-10
7.92732e-10
7.97274e-10
8.03089e-10
7.96367e-10
8.08158e-10
8.10971e-10
8.24992e-10
8.96734e-10
9.71941e-10
1.42447e-09
1.86595e-09
1.59234e-09
1.15892e-09
7.96728e-10
7.06822e-10
6.74979e-10
6.3942e-10
6.56218e-10
6.29151e-10
6.48864e-10
6.32381e-10
6.36369e-10
6.41485e-10
6.35658e-10
6.45639e-10
6.47864e-10
6.58552e-10
7.16121e-10
7.68351e-10
1.11995e-09
1.4569e-09
4.95003e-10
4.99352e-10
4.94457e-10
5.02649e-10
5.04364e-10
5.12252e-10
5.57222e-10
5.91642e-10
8.55962e-10
1.10084e-09
)
;

boundaryField
{
    fuel
    {
        type            fixedValue;
        value           nonuniform 0();
    }
    wall
    {
        type            zeroGradient;
    }
    outlet
    {
        type            zeroGradient;
    }
    frontAndBack
    {
        type            empty;
    }
    procBoundary0to1
    {
        type            processor;
        value           nonuniform List<scalar> 
21
(
1.18019e-09
8.78239e-10
6.12927e-10
5.49152e-10
5.2601e-10
4.97205e-10
5.11616e-10
4.88884e-10
5.05679e-10
4.91605e-10
4.91605e-10
3.74783e-10
3.78352e-10
3.74377e-10
3.80878e-10
3.82167e-10
3.87795e-10
4.21897e-10
4.43263e-10
6.352e-10
8.04518e-10
)
;
    }
    procBoundary0to2
    {
        type            processor;
        value           nonuniform List<scalar> 
12
(
3.57098e-09
7.75505e-09
6.39399e-09
4.32997e-09
3.60115e-09
3.38242e-09
3.23547e-09
3.2771e-09
3.20044e-09
3.24779e-09
3.20987e-09
3.20987e-09
)
;
    }
    procBoundary0to3
    {
        type            processor;
        value           nonuniform List<scalar> 10(3.98188e-09 3.99049e-09 3.97457e-09 4.00696e-09 4.02238e-09 4.09465e-09 4.45526e-09 4.96928e-09 6.59611e-09 4.44367e-09);
    }
}


// ************************************************************************* //
