/*--------------------------------*- C++ -*----------------------------------*\
| =========                 |                                                 |
| \\      /  F ield         | OpenFOAM: The Open Source CFD Toolbox           |
|  \\    /   O peration     | Version:  dev                                   |
|   \\  /    A nd           | Web:      www.OpenFOAM.org                      |
|    \\/     M anipulation  |                                                 |
\*---------------------------------------------------------------------------*/
FoamFile
{
    version     2.0;
    format      ascii;
    class       volScalarField;
    location    "0.06";
    object      C;
}
// * * * * * * * * * * * * * * * * * * * * * * * * * * * * * * * * * * * * * //

dimensions      [0 0 0 0 0 0 0];

internalField   nonuniform List<scalar> 
250
(
2.93566e-09
2.95156e-09
2.93231e-09
2.9697e-09
2.97254e-09
2.99369e-09
3.04661e-09
2.68204e-09
1.73946e-09
5.00728e-10
2.5236e-09
2.53943e-09
2.52049e-09
2.55697e-09
2.56001e-09
2.58117e-09
2.64961e-09
2.35279e-09
1.65844e-09
5.74068e-10
9.71314e-10
1.65514e-09
2.02063e-09
2.20639e-09
2.23225e-09
2.13298e-09
2.18712e-09
2.10389e-09
2.15733e-09
2.11188e-09
2.12232e-09
2.13771e-09
2.11948e-09
2.15428e-09
2.15735e-09
2.17802e-09
2.25664e-09
2.01893e-09
1.52483e-09
6.24861e-10
8.68263e-10
1.42918e-09
1.6853e-09
1.82976e-09
1.84445e-09
1.74986e-09
1.80023e-09
1.72241e-09
1.77305e-09
1.72994e-09
1.73985e-09
1.75441e-09
1.73731e-09
1.76962e-09
1.77258e-09
1.79211e-09
1.8753e-09
1.68889e-09
1.36171e-09
6.40303e-10
7.43501e-10
1.19812e-09
1.36633e-09
1.47415e-09
1.48113e-09
1.39368e-09
1.43936e-09
1.3687e-09
1.41529e-09
1.37561e-09
1.38475e-09
1.39808e-09
1.38255e-09
1.41158e-09
1.41432e-09
1.4321e-09
1.51432e-09
1.3718e-09
1.18197e-09
6.18885e-10
6.10533e-10
9.71751e-10
1.07191e-09
1.14867e-09
1.15092e-09
1.07283e-09
1.1129e-09
1.05099e-09
1.09234e-09
1.05711e-09
1.06524e-09
1.077e-09
1.0634e-09
1.08853e-09
1.09095e-09
1.10654e-09
1.18272e-09
1.07704e-09
9.86088e-10
5.63757e-10
4.80882e-10
7.59491e-10
8.09726e-10
8.61396e-10
8.6153e-10
7.94309e-10
8.28115e-10
7.76074e-10
8.11273e-10
7.81272e-10
7.88207e-10
7.98147e-10
7.86736e-10
8.07573e-10
8.09605e-10
8.23006e-10
8.88905e-10
8.1359e-10
7.88427e-10
4.83692e-10
3.6283e-10
5.69444e-10
5.85881e-10
6.18362e-10
6.18724e-10
5.6273e-10
5.89979e-10
5.4827e-10
5.76831e-10
5.52477e-10
5.58119e-10
5.66118e-10
5.56994e-10
5.73449e-10
5.75066e-10
5.87665e-10
6.39551e-10
5.89109e-10
6.01578e-10
3.90445e-10
2.61497e-10
4.07673e-10
4.03831e-10
4.22482e-10
4.13788e-10
3.79443e-10
4.00311e-10
3.68638e-10
3.9059e-10
3.71863e-10
3.7621e-10
3.82303e-10
3.75396e-10
3.87694e-10
3.88898e-10
3.94079e-10
4.38148e-10
4.01423e-10
4.35836e-10
2.95999e-10
1.79444e-10
2.77222e-10
2.63708e-10
2.73444e-10
2.67022e-10
2.42288e-10
2.57339e-10
2.34691e-10
2.50572e-10
2.37017e-10
2.4017e-10
2.44537e-10
2.39614e-10
2.48261e-10
2.49108e-10
2.53631e-10
2.84417e-10
2.57424e-10
2.98358e-10
2.10243e-10
1.12986e-10
1.78063e-10
1.62304e-10
1.66817e-10
1.62468e-10
1.45805e-10
1.55969e-10
1.40809e-10
1.51559e-10
1.42378e-10
1.44517e-10
1.47445e-10
1.44163e-10
1.49849e-10
1.50407e-10
1.53475e-10
1.7406e-10
1.57614e-10
1.92145e-10
1.39524e-10
6.90756e-11
1.07463e-10
9.37241e-11
9.54963e-11
9.27754e-11
8.23538e-11
8.87479e-11
7.92956e-11
8.60716e-11
8.0282e-11
8.16324e-11
8.34602e-11
8.14222e-11
8.49025e-11
8.52452e-11
8.70799e-11
9.99728e-11
9.05168e-11
1.15867e-10
8.62648e-11
3.97019e-11
6.06349e-11
5.06048e-11
5.11116e-11
4.95563e-11
4.35195e-11
4.72571e-11
4.17864e-11
4.57487e-11
4.23626e-11
4.31531e-11
4.42113e-11
4.30376e-11
4.50123e-11
4.52082e-11
4.6207e-11
5.36934e-11
4.85821e-11
6.51582e-11
4.95658e-11
2.13094e-11
2.18765e-11
2.12506e-11
2.22875e-11
2.23905e-11
2.28915e-11
2.68989e-11
2.43145e-11
3.4068e-11
2.64168e-11
)
;

boundaryField
{
    fuel
    {
        type            fixedValue;
        value           nonuniform 0();
    }
    wall
    {
        type            zeroGradient;
    }
    outlet
    {
        type            zeroGradient;
    }
    frontAndBack
    {
        type            empty;
    }
    procBoundary0to1
    {
        type            processor;
        value           nonuniform List<scalar> 
21
(
2.13286e-11
3.18629e-11
2.54914e-11
2.55147e-11
2.47098e-11
2.14754e-11
2.35015e-11
2.05691e-11
2.27137e-11
2.08815e-11
2.08815e-11
9.8257e-12
1.01071e-11
9.79788e-12
1.03018e-11
1.0351e-11
1.05837e-11
1.25569e-11
1.13393e-11
1.65339e-11
1.30504e-11
)
;
    }
    procBoundary0to2
    {
        type            processor;
        value           nonuniform List<scalar> 
12
(
2.92482e-09
1.03346e-09
1.86765e-09
2.3645e-09
2.59606e-09
2.63545e-09
2.53469e-09
2.59126e-09
2.50466e-09
2.55957e-09
2.51287e-09
2.51287e-09
)
;
    }
    procBoundary0to3
    {
        type            processor;
        value           nonuniform List<scalar> 10(3.3515e-09 3.36714e-09 3.34798e-09 3.38545e-09 3.38809e-09 3.40832e-09 3.47541e-09 2.99781e-09 1.77593e-09 4.13798e-10);
    }
}


// ************************************************************************* //
