/*--------------------------------*- C++ -*----------------------------------*\
| =========                 |                                                 |
| \\      /  F ield         | OpenFOAM: The Open Source CFD Toolbox           |
|  \\    /   O peration     | Version:  dev                                   |
|   \\  /    A nd           | Web:      www.OpenFOAM.org                      |
|    \\/     M anipulation  |                                                 |
\*---------------------------------------------------------------------------*/
FoamFile
{
    version     2.0;
    format      ascii;
    class       volScalarField;
    location    "0.06";
    object      C2H3O;
}
// * * * * * * * * * * * * * * * * * * * * * * * * * * * * * * * * * * * * * //

dimensions      [0 0 0 0 0 0 0];

internalField   nonuniform List<scalar> 
2014
(
5.5665e-10
5.58348e-10
5.60011e-10
5.6087e-10
5.6122e-10
5.61413e-10
5.61377e-10
5.61397e-10
5.6133e-10
5.6133e-10
5.61285e-10
5.61287e-10
5.61259e-10
5.61262e-10
5.61245e-10
5.61249e-10
5.61237e-10
5.61243e-10
5.61236e-10
5.61239e-10
5.61234e-10
5.61236e-10
5.61233e-10
5.61234e-10
5.61234e-10
5.61234e-10
5.61234e-10
5.61233e-10
5.61236e-10
5.61234e-10
5.61239e-10
5.61235e-10
5.61243e-10
5.61237e-10
5.61249e-10
5.61245e-10
5.61262e-10
5.61259e-10
5.61287e-10
5.61285e-10
5.6133e-10
5.6133e-10
5.61396e-10
5.61376e-10
5.61413e-10
5.6122e-10
5.60869e-10
5.60011e-10
5.58348e-10
5.5665e-10
5.49504e-10
5.51172e-10
5.52794e-10
5.53627e-10
5.53968e-10
5.54155e-10
5.54117e-10
5.54134e-10
5.54067e-10
5.54066e-10
5.54021e-10
5.54022e-10
5.53993e-10
5.53996e-10
5.53978e-10
5.53982e-10
5.53971e-10
5.53976e-10
5.53969e-10
5.53972e-10
5.53968e-10
5.53969e-10
5.53967e-10
5.53968e-10
5.53967e-10
5.53967e-10
5.53968e-10
5.53967e-10
5.53969e-10
5.53968e-10
5.53972e-10
5.53969e-10
5.53976e-10
5.53971e-10
5.53982e-10
5.53978e-10
5.53996e-10
5.53993e-10
5.54021e-10
5.54021e-10
5.54066e-10
5.54067e-10
5.54134e-10
5.54117e-10
5.54155e-10
5.53968e-10
5.53627e-10
5.52794e-10
5.51172e-10
5.49504e-10
5.4261e-10
5.44252e-10
5.4583e-10
5.46639e-10
5.4697e-10
5.4715e-10
5.47112e-10
5.47125e-10
5.47058e-10
5.47054e-10
5.4701e-10
5.47009e-10
5.46981e-10
5.46983e-10
5.46965e-10
5.46969e-10
5.46958e-10
5.46962e-10
5.46955e-10
5.46958e-10
5.46954e-10
5.46956e-10
5.46953e-10
5.46954e-10
5.46953e-10
5.46953e-10
5.46954e-10
5.46953e-10
5.46956e-10
5.46954e-10
5.46958e-10
5.46955e-10
5.46962e-10
5.46958e-10
5.46969e-10
5.46965e-10
5.46983e-10
5.46981e-10
5.47009e-10
5.4701e-10
5.47054e-10
5.47058e-10
5.47125e-10
5.47111e-10
5.4715e-10
5.4697e-10
5.46638e-10
5.4583e-10
5.44251e-10
5.4261e-10
5.35932e-10
5.37553e-10
5.39085e-10
5.3987e-10
5.40191e-10
5.40365e-10
5.40324e-10
5.40335e-10
5.40267e-10
5.40261e-10
5.40217e-10
5.40215e-10
5.40187e-10
5.40188e-10
5.40171e-10
5.40174e-10
5.40163e-10
5.40167e-10
5.4016e-10
5.40163e-10
5.40158e-10
5.4016e-10
5.40157e-10
5.40158e-10
5.40158e-10
5.40158e-10
5.40158e-10
5.40157e-10
5.4016e-10
5.40158e-10
5.40163e-10
5.4016e-10
5.40167e-10
5.40163e-10
5.40174e-10
5.40171e-10
5.40188e-10
5.40187e-10
5.40215e-10
5.40217e-10
5.40261e-10
5.40267e-10
5.40334e-10
5.40324e-10
5.40364e-10
5.4019e-10
5.3987e-10
5.39084e-10
5.37552e-10
5.35932e-10
5.29444e-10
5.31043e-10
5.32533e-10
5.33292e-10
5.33602e-10
5.33769e-10
5.33727e-10
5.33734e-10
5.33666e-10
5.33659e-10
5.33613e-10
5.33611e-10
5.33582e-10
5.33583e-10
5.33566e-10
5.33568e-10
5.33557e-10
5.33561e-10
5.33554e-10
5.33557e-10
5.33553e-10
5.33554e-10
5.33552e-10
5.33553e-10
5.33552e-10
5.33552e-10
5.33553e-10
5.33552e-10
5.33554e-10
5.33553e-10
5.33557e-10
5.33554e-10
5.33561e-10
5.33557e-10
5.33568e-10
5.33566e-10
5.33583e-10
5.33582e-10
5.33611e-10
5.33613e-10
5.33658e-10
5.33666e-10
5.33734e-10
5.33726e-10
5.33769e-10
5.33601e-10
5.33292e-10
5.32532e-10
5.31043e-10
5.29443e-10
5.23122e-10
5.24702e-10
5.26148e-10
5.26882e-10
5.2718e-10
5.2734e-10
5.27296e-10
5.273e-10
5.27232e-10
5.27222e-10
5.27177e-10
5.27173e-10
5.27144e-10
5.27144e-10
5.27127e-10
5.27129e-10
5.27118e-10
5.27122e-10
5.27115e-10
5.27118e-10
5.27114e-10
5.27115e-10
5.27112e-10
5.27113e-10
5.27113e-10
5.27113e-10
5.27113e-10
5.27112e-10
5.27115e-10
5.27114e-10
5.27118e-10
5.27115e-10
5.27122e-10
5.27118e-10
5.27129e-10
5.27127e-10
5.27144e-10
5.27144e-10
5.27173e-10
5.27177e-10
5.27222e-10
5.27231e-10
5.273e-10
5.27295e-10
5.2734e-10
5.27179e-10
5.26882e-10
5.26147e-10
5.24702e-10
5.23121e-10
5.16948e-10
5.1851e-10
5.19911e-10
5.2062e-10
5.20905e-10
5.21059e-10
5.21012e-10
5.21013e-10
5.20944e-10
5.20933e-10
5.20887e-10
5.20882e-10
5.20853e-10
5.20853e-10
5.20835e-10
5.20838e-10
5.20826e-10
5.2083e-10
5.20823e-10
5.20826e-10
5.20821e-10
5.20823e-10
5.2082e-10
5.20821e-10
5.2082e-10
5.2082e-10
5.20821e-10
5.2082e-10
5.20823e-10
5.20821e-10
5.20826e-10
5.20823e-10
5.2083e-10
5.20826e-10
5.20838e-10
5.20835e-10
5.20853e-10
5.20853e-10
5.20882e-10
5.20887e-10
5.20933e-10
5.20944e-10
5.21013e-10
5.21012e-10
5.21059e-10
5.20905e-10
5.2062e-10
5.1991e-10
5.1851e-10
5.16947e-10
5.10906e-10
5.1245e-10
5.13805e-10
5.1449e-10
5.14762e-10
5.14909e-10
5.14859e-10
5.14857e-10
5.14787e-10
5.14774e-10
5.14728e-10
5.14722e-10
5.14693e-10
5.14692e-10
5.14675e-10
5.14676e-10
5.14665e-10
5.14669e-10
5.14662e-10
5.14664e-10
5.1466e-10
5.14662e-10
5.14659e-10
5.1466e-10
5.14659e-10
5.14659e-10
5.1466e-10
5.14659e-10
5.14662e-10
5.1466e-10
5.14664e-10
5.14662e-10
5.14669e-10
5.14665e-10
5.14676e-10
5.14675e-10
5.14692e-10
5.14693e-10
5.14722e-10
5.14728e-10
5.14774e-10
5.14787e-10
5.14857e-10
5.14859e-10
5.14908e-10
5.14762e-10
5.14489e-10
5.13804e-10
5.1245e-10
5.10905e-10
5.04983e-10
5.06508e-10
5.07817e-10
5.08477e-10
5.08737e-10
5.08876e-10
5.08824e-10
5.08818e-10
5.08748e-10
5.08733e-10
5.08687e-10
5.08679e-10
5.08651e-10
5.08649e-10
5.08631e-10
5.08633e-10
5.08622e-10
5.08625e-10
5.08618e-10
5.0862e-10
5.08616e-10
5.08617e-10
5.08615e-10
5.08616e-10
5.08615e-10
5.08615e-10
5.08616e-10
5.08615e-10
5.08617e-10
5.08616e-10
5.0862e-10
5.08618e-10
5.08625e-10
5.08622e-10
5.08633e-10
5.08631e-10
5.08649e-10
5.08651e-10
5.08679e-10
5.08687e-10
5.08733e-10
5.08748e-10
5.08818e-10
5.08823e-10
5.08876e-10
5.08737e-10
5.08477e-10
5.07816e-10
5.06508e-10
5.04983e-10
4.99168e-10
5.00673e-10
5.01935e-10
5.02572e-10
5.02818e-10
5.0295e-10
5.02894e-10
5.02886e-10
5.02814e-10
5.02798e-10
5.02751e-10
5.02743e-10
5.02714e-10
5.02711e-10
5.02694e-10
5.02695e-10
5.02684e-10
5.02687e-10
5.0268e-10
5.02682e-10
5.02678e-10
5.02679e-10
5.02677e-10
5.02677e-10
5.02677e-10
5.02677e-10
5.02677e-10
5.02677e-10
5.02679e-10
5.02678e-10
5.02682e-10
5.0268e-10
5.02687e-10
5.02684e-10
5.02695e-10
5.02694e-10
5.02711e-10
5.02714e-10
5.02743e-10
5.02751e-10
5.02797e-10
5.02814e-10
5.02885e-10
5.02894e-10
5.0295e-10
5.02818e-10
5.02571e-10
5.01934e-10
5.00673e-10
4.99168e-10
4.93452e-10
4.94934e-10
4.9615e-10
4.96763e-10
4.96996e-10
4.9712e-10
4.97061e-10
4.97049e-10
4.96977e-10
4.96958e-10
4.96911e-10
4.96902e-10
4.96873e-10
4.9687e-10
4.96852e-10
4.96853e-10
4.96842e-10
4.96845e-10
4.96838e-10
4.9684e-10
4.96836e-10
4.96837e-10
4.96834e-10
4.96835e-10
4.96835e-10
4.96835e-10
4.96835e-10
4.96834e-10
4.96837e-10
4.96836e-10
4.9684e-10
4.96838e-10
4.96845e-10
4.96842e-10
4.96853e-10
4.96852e-10
4.9687e-10
4.96873e-10
4.96902e-10
4.96911e-10
4.96958e-10
4.96976e-10
4.97049e-10
4.97061e-10
4.9712e-10
4.96996e-10
4.96762e-10
4.96149e-10
4.94934e-10
4.93452e-10
4.87827e-10
4.89282e-10
4.90453e-10
4.91042e-10
4.91262e-10
4.91378e-10
4.91316e-10
4.913e-10
4.91227e-10
4.91207e-10
4.91159e-10
4.91149e-10
4.9112e-10
4.91116e-10
4.91098e-10
4.91099e-10
4.91088e-10
4.9109e-10
4.91084e-10
4.91086e-10
4.91081e-10
4.91083e-10
4.9108e-10
4.91081e-10
4.9108e-10
4.9108e-10
4.91081e-10
4.9108e-10
4.91083e-10
4.91081e-10
4.91086e-10
4.91084e-10
4.9109e-10
4.91088e-10
4.91099e-10
4.91098e-10
4.91116e-10
4.9112e-10
4.91149e-10
4.91159e-10
4.91207e-10
4.91227e-10
4.913e-10
4.91316e-10
4.91378e-10
4.91262e-10
4.91042e-10
4.90451e-10
4.89282e-10
4.87827e-10
4.82285e-10
4.8371e-10
4.84836e-10
4.85403e-10
4.85609e-10
4.85717e-10
4.85651e-10
4.85632e-10
4.85557e-10
4.85536e-10
4.85488e-10
4.85476e-10
4.85447e-10
4.85443e-10
4.85425e-10
4.85425e-10
4.85414e-10
4.85416e-10
4.8541e-10
4.85412e-10
4.85407e-10
4.85408e-10
4.85406e-10
4.85407e-10
4.85406e-10
4.85406e-10
4.85407e-10
4.85406e-10
4.85408e-10
4.85407e-10
4.85412e-10
4.8541e-10
4.85416e-10
4.85414e-10
4.85425e-10
4.85425e-10
4.85443e-10
4.85447e-10
4.85476e-10
4.85487e-10
4.85536e-10
4.85557e-10
4.85632e-10
4.85651e-10
4.85716e-10
4.85609e-10
4.85402e-10
4.84835e-10
4.8371e-10
4.82285e-10
4.7682e-10
4.78211e-10
4.79294e-10
4.79838e-10
4.8003e-10
4.8013e-10
4.80061e-10
4.80037e-10
4.79962e-10
4.79938e-10
4.7989e-10
4.79878e-10
4.79848e-10
4.79844e-10
4.79825e-10
4.79825e-10
4.79814e-10
4.79816e-10
4.7981e-10
4.79811e-10
4.79807e-10
4.79808e-10
4.79806e-10
4.79807e-10
4.79806e-10
4.79806e-10
4.79807e-10
4.79806e-10
4.79808e-10
4.79807e-10
4.79811e-10
4.7981e-10
4.79816e-10
4.79814e-10
4.79825e-10
4.79825e-10
4.79843e-10
4.79848e-10
4.79878e-10
4.7989e-10
4.79938e-10
4.79962e-10
4.80037e-10
4.8006e-10
4.80129e-10
4.8003e-10
4.79837e-10
4.79292e-10
4.78212e-10
4.7682e-10
4.71426e-10
4.72779e-10
4.7382e-10
4.74342e-10
4.7452e-10
4.74611e-10
4.74538e-10
4.74511e-10
4.74435e-10
4.74409e-10
4.7436e-10
4.74347e-10
4.74317e-10
4.74312e-10
4.74294e-10
4.74294e-10
4.74283e-10
4.74285e-10
4.74278e-10
4.7428e-10
4.74275e-10
4.74276e-10
4.74274e-10
4.74275e-10
4.74274e-10
4.74274e-10
4.74275e-10
4.74274e-10
4.74276e-10
4.74275e-10
4.74279e-10
4.74278e-10
4.74284e-10
4.74283e-10
4.74294e-10
4.74294e-10
4.74312e-10
4.74317e-10
4.74347e-10
4.7436e-10
4.74409e-10
4.74434e-10
4.74511e-10
4.74538e-10
4.7461e-10
4.74519e-10
4.74341e-10
4.73818e-10
4.72781e-10
4.71425e-10
4.66096e-10
4.6741e-10
4.6841e-10
4.6891e-10
4.69072e-10
4.69155e-10
4.69079e-10
4.69048e-10
4.6897e-10
4.68943e-10
4.68894e-10
4.6888e-10
4.6885e-10
4.68844e-10
4.68826e-10
4.68825e-10
4.68814e-10
4.68816e-10
4.68809e-10
4.68811e-10
4.68806e-10
4.68807e-10
4.68805e-10
4.68806e-10
4.68805e-10
4.68805e-10
4.68806e-10
4.68805e-10
4.68807e-10
4.68806e-10
4.68811e-10
4.68809e-10
4.68816e-10
4.68814e-10
4.68825e-10
4.68826e-10
4.68844e-10
4.68849e-10
4.6888e-10
4.68894e-10
4.68943e-10
4.6897e-10
4.69048e-10
4.69079e-10
4.69155e-10
4.69072e-10
4.68909e-10
4.68406e-10
4.67413e-10
4.66096e-10
4.60827e-10
4.621e-10
4.63057e-10
4.63536e-10
4.63683e-10
4.63758e-10
4.63678e-10
4.63643e-10
4.63564e-10
4.63536e-10
4.63485e-10
4.63471e-10
4.6344e-10
4.63434e-10
4.63416e-10
4.63415e-10
4.63403e-10
4.63405e-10
4.63398e-10
4.634e-10
4.63396e-10
4.63397e-10
4.63394e-10
4.63395e-10
4.63394e-10
4.63394e-10
4.63395e-10
4.63394e-10
4.63397e-10
4.63395e-10
4.634e-10
4.63398e-10
4.63405e-10
4.63403e-10
4.63415e-10
4.63415e-10
4.63434e-10
4.6344e-10
4.63471e-10
4.63485e-10
4.63535e-10
4.63564e-10
4.63643e-10
4.63678e-10
4.63758e-10
4.63683e-10
4.63535e-10
4.63053e-10
4.62103e-10
4.60827e-10
4.55613e-10
4.56842e-10
4.57759e-10
4.58217e-10
4.58349e-10
4.58415e-10
4.58331e-10
4.58292e-10
4.58211e-10
4.58181e-10
4.58131e-10
4.58115e-10
4.58084e-10
4.58078e-10
4.58059e-10
4.58058e-10
4.58047e-10
4.58048e-10
4.58041e-10
4.58043e-10
4.58038e-10
4.5804e-10
4.58037e-10
4.58038e-10
4.58037e-10
4.58037e-10
4.58038e-10
4.58037e-10
4.5804e-10
4.58038e-10
4.58043e-10
4.58041e-10
4.58048e-10
4.58047e-10
4.58058e-10
4.58059e-10
4.58078e-10
4.58084e-10
4.58115e-10
4.58131e-10
4.58181e-10
4.58211e-10
4.58292e-10
4.58331e-10
4.58415e-10
4.58348e-10
4.58216e-10
4.57754e-10
4.56846e-10
4.55613e-10
4.50449e-10
4.51634e-10
4.52511e-10
4.52947e-10
4.53064e-10
4.53122e-10
4.53034e-10
4.5299e-10
4.52908e-10
4.52877e-10
4.52826e-10
4.52809e-10
4.52778e-10
4.52771e-10
4.52752e-10
4.52751e-10
4.52739e-10
4.52741e-10
4.52734e-10
4.52735e-10
4.52731e-10
4.52732e-10
4.5273e-10
4.5273e-10
4.52729e-10
4.52729e-10
4.5273e-10
4.5273e-10
4.52732e-10
4.52731e-10
4.52735e-10
4.52734e-10
4.52741e-10
4.52739e-10
4.52751e-10
4.52752e-10
4.52771e-10
4.52778e-10
4.52809e-10
4.52826e-10
4.52877e-10
4.52908e-10
4.5299e-10
4.53033e-10
4.53121e-10
4.53063e-10
4.52946e-10
4.52504e-10
4.5164e-10
4.50449e-10
4.4533e-10
4.46471e-10
4.47309e-10
4.47723e-10
4.47825e-10
4.47874e-10
4.47782e-10
4.47734e-10
4.47651e-10
4.47618e-10
4.47566e-10
4.47549e-10
4.47517e-10
4.4751e-10
4.47491e-10
4.47489e-10
4.47478e-10
4.47479e-10
4.47472e-10
4.47473e-10
4.47469e-10
4.4747e-10
4.47467e-10
4.47468e-10
4.47467e-10
4.47467e-10
4.47468e-10
4.47467e-10
4.4747e-10
4.47469e-10
4.47473e-10
4.47472e-10
4.47479e-10
4.47478e-10
4.47489e-10
4.47491e-10
4.4751e-10
4.47517e-10
4.47548e-10
4.47566e-10
4.47617e-10
4.47651e-10
4.47733e-10
4.47782e-10
4.47874e-10
4.47824e-10
4.47722e-10
4.47301e-10
4.46478e-10
4.4533e-10
4.40253e-10
4.4135e-10
4.42149e-10
4.4254e-10
4.42627e-10
4.42668e-10
4.42572e-10
4.42519e-10
4.42435e-10
4.424e-10
4.42348e-10
4.42329e-10
4.42298e-10
4.4229e-10
4.42271e-10
4.42269e-10
4.42258e-10
4.42258e-10
4.42252e-10
4.42253e-10
4.42249e-10
4.42249e-10
4.42247e-10
4.42248e-10
4.42247e-10
4.42247e-10
4.42248e-10
4.42247e-10
4.42249e-10
4.42248e-10
4.42253e-10
4.42251e-10
4.42258e-10
4.42257e-10
4.42269e-10
4.42271e-10
4.4229e-10
4.42298e-10
4.42329e-10
4.42348e-10
4.424e-10
4.42434e-10
4.42519e-10
4.42571e-10
4.42668e-10
4.42627e-10
4.42539e-10
4.42142e-10
4.41356e-10
4.40253e-10
4.35213e-10
4.36269e-10
4.37026e-10
4.37396e-10
4.37468e-10
4.375e-10
4.374e-10
4.37342e-10
4.37256e-10
4.3722e-10
4.37167e-10
4.37148e-10
4.37116e-10
4.37108e-10
4.37089e-10
4.37087e-10
4.37075e-10
4.37076e-10
4.37069e-10
4.3707e-10
4.37066e-10
4.37067e-10
4.37064e-10
4.37065e-10
4.37064e-10
4.37064e-10
4.37065e-10
4.37064e-10
4.37067e-10
4.37066e-10
4.3707e-10
4.37069e-10
4.37076e-10
4.37075e-10
4.37086e-10
4.37089e-10
4.37108e-10
4.37116e-10
4.37148e-10
4.37167e-10
4.3722e-10
4.37256e-10
4.37341e-10
4.37399e-10
4.375e-10
4.37468e-10
4.37395e-10
4.3702e-10
4.36273e-10
4.35213e-10
4.30207e-10
4.31222e-10
4.31936e-10
4.32285e-10
4.32343e-10
4.32367e-10
4.32262e-10
4.32198e-10
4.32112e-10
4.32074e-10
4.32021e-10
4.32001e-10
4.31969e-10
4.3196e-10
4.31941e-10
4.31938e-10
4.31927e-10
4.31927e-10
4.31921e-10
4.31922e-10
4.31917e-10
4.31918e-10
4.31916e-10
4.31916e-10
4.31916e-10
4.31916e-10
4.31916e-10
4.31916e-10
4.31918e-10
4.31917e-10
4.31922e-10
4.3192e-10
4.31927e-10
4.31927e-10
4.31938e-10
4.31941e-10
4.3196e-10
4.31969e-10
4.32001e-10
4.32021e-10
4.32074e-10
4.32111e-10
4.32198e-10
4.32261e-10
4.32366e-10
4.32343e-10
4.32284e-10
4.31932e-10
4.31225e-10
4.30207e-10
4.25232e-10
4.26208e-10
4.26877e-10
4.27206e-10
4.2725e-10
4.27264e-10
4.27155e-10
4.27086e-10
4.26998e-10
4.26959e-10
4.26906e-10
4.26885e-10
4.26853e-10
4.26843e-10
4.26824e-10
4.26821e-10
4.2681e-10
4.2681e-10
4.26803e-10
4.26804e-10
4.268e-10
4.26801e-10
4.26798e-10
4.26799e-10
4.26798e-10
4.26798e-10
4.26799e-10
4.26798e-10
4.26801e-10
4.268e-10
4.26804e-10
4.26803e-10
4.2681e-10
4.2681e-10
4.26821e-10
4.26824e-10
4.26843e-10
4.26852e-10
4.26885e-10
4.26906e-10
4.26959e-10
4.26998e-10
4.27086e-10
4.27155e-10
4.27264e-10
4.27249e-10
4.27205e-10
4.26874e-10
4.2621e-10
4.25232e-10
4.20287e-10
4.21223e-10
4.21847e-10
4.22156e-10
4.22186e-10
4.22192e-10
4.22079e-10
4.22003e-10
4.21914e-10
4.21874e-10
4.2182e-10
4.21798e-10
4.21766e-10
4.21756e-10
4.21737e-10
4.21734e-10
4.21722e-10
4.21723e-10
4.21716e-10
4.21717e-10
4.21712e-10
4.21713e-10
4.21711e-10
4.21711e-10
4.2171e-10
4.2171e-10
4.21711e-10
4.21711e-10
4.21713e-10
4.21712e-10
4.21716e-10
4.21715e-10
4.21722e-10
4.21722e-10
4.21734e-10
4.21737e-10
4.21756e-10
4.21766e-10
4.21798e-10
4.2182e-10
4.21873e-10
4.21914e-10
4.22003e-10
4.22079e-10
4.22191e-10
4.22186e-10
4.22156e-10
4.21844e-10
4.21225e-10
4.20287e-10
4.15542e-10
4.16447e-10
4.17024e-10
4.17317e-10
4.17332e-10
4.1733e-10
4.17212e-10
4.1713e-10
4.17039e-10
4.16997e-10
4.16943e-10
4.16921e-10
4.16888e-10
4.16878e-10
4.16858e-10
4.16855e-10
4.16843e-10
4.16844e-10
4.16837e-10
4.16838e-10
4.16833e-10
4.16834e-10
4.16831e-10
4.16832e-10
4.16831e-10
4.16831e-10
4.16832e-10
4.16831e-10
4.16834e-10
4.16833e-10
4.16837e-10
4.16836e-10
4.16843e-10
4.16843e-10
4.16855e-10
4.16858e-10
4.16878e-10
4.16888e-10
4.16921e-10
4.16943e-10
4.16997e-10
4.17039e-10
4.17129e-10
4.17212e-10
4.17329e-10
4.17332e-10
4.17316e-10
4.17022e-10
4.16448e-10
4.15541e-10
4.1079e-10
4.11672e-10
4.12184e-10
4.12448e-10
4.12433e-10
4.12413e-10
4.12282e-10
4.12186e-10
4.12089e-10
4.12044e-10
4.11987e-10
4.11962e-10
4.11928e-10
4.11917e-10
4.11896e-10
4.11892e-10
4.1188e-10
4.1188e-10
4.11873e-10
4.11874e-10
4.11869e-10
4.1187e-10
4.11867e-10
4.11868e-10
4.11867e-10
4.11867e-10
4.11868e-10
4.11867e-10
4.1187e-10
4.11869e-10
4.11873e-10
4.11873e-10
4.1188e-10
4.1188e-10
4.11892e-10
4.11896e-10
4.11917e-10
4.11928e-10
4.11962e-10
4.11986e-10
4.12043e-10
4.12089e-10
4.12185e-10
4.12281e-10
4.12412e-10
4.12432e-10
4.12447e-10
4.12182e-10
4.11673e-10
4.1079e-10
4.05926e-10
4.06773e-10
4.07235e-10
4.07481e-10
4.0745e-10
4.07421e-10
4.07286e-10
4.0718e-10
4.07083e-10
4.07035e-10
4.06978e-10
4.06953e-10
4.06918e-10
4.06906e-10
4.06886e-10
4.06882e-10
4.06869e-10
4.06869e-10
4.06862e-10
4.06863e-10
4.06858e-10
4.06859e-10
4.06856e-10
4.06857e-10
4.06856e-10
4.06856e-10
4.06857e-10
4.06856e-10
4.06859e-10
4.06858e-10
4.06862e-10
4.06862e-10
4.06869e-10
4.06869e-10
4.06882e-10
4.06886e-10
4.06906e-10
4.06918e-10
4.06953e-10
4.06978e-10
4.07035e-10
4.07082e-10
4.0718e-10
4.07285e-10
4.07421e-10
4.0745e-10
4.0748e-10
4.07233e-10
4.06773e-10
4.05926e-10
4.01073e-10
4.01884e-10
4.02298e-10
4.02524e-10
4.0248e-10
4.02441e-10
4.02301e-10
4.02185e-10
4.02087e-10
4.02038e-10
4.01981e-10
4.01955e-10
4.0192e-10
4.01908e-10
4.01887e-10
4.01882e-10
4.0187e-10
4.0187e-10
4.01862e-10
4.01863e-10
4.01858e-10
4.01859e-10
4.01857e-10
4.01857e-10
4.01856e-10
4.01856e-10
4.01857e-10
4.01857e-10
4.01859e-10
4.01858e-10
4.01863e-10
4.01862e-10
4.0187e-10
4.0187e-10
4.01882e-10
4.01887e-10
4.01907e-10
4.0192e-10
4.01954e-10
4.0198e-10
4.02038e-10
4.02087e-10
4.02185e-10
4.02301e-10
4.02441e-10
4.02479e-10
4.02524e-10
4.02297e-10
4.01884e-10
4.01073e-10
3.96229e-10
3.97002e-10
3.97372e-10
3.97578e-10
3.97519e-10
3.97472e-10
3.97328e-10
3.972e-10
3.97101e-10
3.9705e-10
3.96992e-10
3.96966e-10
3.96931e-10
3.96918e-10
3.96897e-10
3.96893e-10
3.9688e-10
3.9688e-10
3.96872e-10
3.96873e-10
3.96868e-10
3.96869e-10
3.96866e-10
3.96867e-10
3.96866e-10
3.96866e-10
3.96867e-10
3.96866e-10
3.96869e-10
3.96868e-10
3.96873e-10
3.96872e-10
3.9688e-10
3.9688e-10
3.96892e-10
3.96897e-10
3.96918e-10
3.96931e-10
3.96966e-10
3.96992e-10
3.9705e-10
3.971e-10
3.97199e-10
3.97327e-10
3.97471e-10
3.97518e-10
3.97577e-10
3.9737e-10
3.97002e-10
3.96229e-10
3.91395e-10
3.9213e-10
3.92454e-10
3.92641e-10
3.92568e-10
3.92511e-10
3.92364e-10
3.92222e-10
3.92123e-10
3.92071e-10
3.92013e-10
3.91986e-10
3.91951e-10
3.91937e-10
3.91916e-10
3.91912e-10
3.91899e-10
3.91898e-10
3.91891e-10
3.91892e-10
3.91887e-10
3.91888e-10
3.91885e-10
3.91886e-10
3.91885e-10
3.91885e-10
3.91886e-10
3.91885e-10
3.91888e-10
3.91887e-10
3.91891e-10
3.91891e-10
3.91898e-10
3.91899e-10
3.91911e-10
3.91916e-10
3.91937e-10
3.9195e-10
3.91986e-10
3.92013e-10
3.92071e-10
3.92123e-10
3.92222e-10
3.92364e-10
3.92511e-10
3.92567e-10
3.9264e-10
3.92453e-10
3.9213e-10
3.91394e-10
3.86735e-10
3.87439e-10
3.87719e-10
3.87887e-10
3.87799e-10
3.87735e-10
3.87584e-10
3.87427e-10
3.87327e-10
3.87275e-10
3.87216e-10
3.87188e-10
3.87152e-10
3.87139e-10
3.87118e-10
3.87112e-10
3.871e-10
3.87099e-10
3.87092e-10
3.87092e-10
3.87088e-10
3.87088e-10
3.87086e-10
3.87086e-10
3.87085e-10
3.87085e-10
3.87086e-10
3.87086e-10
3.87088e-10
3.87088e-10
3.87092e-10
3.87092e-10
3.87099e-10
3.871e-10
3.87112e-10
3.87118e-10
3.87139e-10
3.87152e-10
3.87188e-10
3.87216e-10
3.87274e-10
3.87327e-10
3.87427e-10
3.87584e-10
3.87735e-10
3.87799e-10
3.87886e-10
3.87718e-10
3.87438e-10
3.86735e-10
3.82086e-10
3.82757e-10
3.82996e-10
3.83145e-10
3.83042e-10
3.8297e-10
3.82817e-10
3.82641e-10
3.82533e-10
3.82475e-10
3.82411e-10
3.8238e-10
3.82342e-10
3.82327e-10
3.82304e-10
3.82298e-10
3.82284e-10
3.82283e-10
3.82275e-10
3.82276e-10
3.82271e-10
3.82271e-10
3.82269e-10
3.82269e-10
3.82268e-10
3.82268e-10
3.82269e-10
3.82269e-10
3.82271e-10
3.82271e-10
3.82276e-10
3.82275e-10
3.82283e-10
3.82284e-10
3.82298e-10
3.82304e-10
3.82327e-10
3.82342e-10
3.8238e-10
3.82411e-10
3.82474e-10
3.82532e-10
3.8264e-10
3.82816e-10
3.8297e-10
3.83042e-10
3.83144e-10
3.82995e-10
3.82757e-10
3.82086e-10
3.77296e-10
3.77936e-10
3.78129e-10
3.78255e-10
3.78131e-10
3.78048e-10
3.7789e-10
3.77695e-10
3.77585e-10
3.77524e-10
3.77459e-10
3.77427e-10
3.77387e-10
3.77371e-10
3.77348e-10
3.77341e-10
3.77328e-10
3.77326e-10
3.77318e-10
3.77319e-10
3.77314e-10
3.77314e-10
3.77312e-10
3.77312e-10
3.77311e-10
3.77311e-10
3.77312e-10
3.77312e-10
3.77314e-10
3.77314e-10
3.77319e-10
3.77318e-10
3.77326e-10
3.77328e-10
3.77342e-10
3.77348e-10
3.77371e-10
3.77387e-10
3.77427e-10
3.77459e-10
3.77524e-10
3.77585e-10
3.77695e-10
3.7789e-10
3.78048e-10
3.78131e-10
3.78254e-10
3.78128e-10
3.77935e-10
3.77295e-10
3.72478e-10
3.73079e-10
3.73232e-10
3.73336e-10
3.73198e-10
3.73106e-10
3.72949e-10
3.7291e-10
3.728e-10
3.72738e-10
3.72672e-10
3.72639e-10
3.72599e-10
3.72583e-10
3.72559e-10
3.72552e-10
3.72538e-10
3.72537e-10
3.72529e-10
3.72529e-10
3.72524e-10
3.72525e-10
3.72522e-10
3.72522e-10
3.72522e-10
3.72522e-10
3.72522e-10
3.72522e-10
3.72525e-10
3.72524e-10
3.72529e-10
3.72529e-10
3.72537e-10
3.72538e-10
3.72552e-10
3.72559e-10
3.72583e-10
3.72599e-10
3.72639e-10
3.72672e-10
3.72738e-10
3.728e-10
3.7291e-10
3.72949e-10
3.73106e-10
3.73198e-10
3.73336e-10
3.73231e-10
3.73078e-10
3.72477e-10
3.67819e-10
3.68386e-10
3.685e-10
3.68585e-10
3.6843e-10
3.68331e-10
3.68173e-10
3.68128e-10
3.68018e-10
3.67954e-10
3.67888e-10
3.67854e-10
3.67814e-10
3.67796e-10
3.67772e-10
3.67765e-10
3.67751e-10
3.6775e-10
3.67742e-10
3.67742e-10
3.67737e-10
3.67737e-10
3.67735e-10
3.67735e-10
3.67734e-10
3.67734e-10
3.67735e-10
3.67735e-10
3.67737e-10
3.67737e-10
3.67742e-10
3.67742e-10
3.6775e-10
3.67752e-10
3.67766e-10
3.67773e-10
3.67797e-10
3.67814e-10
3.67854e-10
3.67888e-10
3.67954e-10
3.68018e-10
3.68128e-10
3.68173e-10
3.68331e-10
3.6843e-10
3.68584e-10
3.68499e-10
3.68386e-10
3.67818e-10
3.63134e-10
3.63686e-10
3.63751e-10
3.63808e-10
3.63617e-10
3.63504e-10
3.63335e-10
3.63277e-10
3.63162e-10
3.63094e-10
3.63025e-10
3.62988e-10
3.62946e-10
3.62928e-10
3.62902e-10
3.62895e-10
3.6288e-10
3.62878e-10
3.6287e-10
3.6287e-10
3.62864e-10
3.62865e-10
3.62862e-10
3.62863e-10
3.62862e-10
3.62862e-10
3.62862e-10
3.62862e-10
3.62865e-10
3.62865e-10
3.6287e-10
3.6287e-10
3.62878e-10
3.6288e-10
3.62895e-10
3.62903e-10
3.62928e-10
3.62947e-10
3.62988e-10
3.63025e-10
3.63094e-10
3.63162e-10
3.63277e-10
3.63335e-10
3.63504e-10
3.63618e-10
3.63807e-10
3.6375e-10
3.63686e-10
3.63134e-10
3.58471e-10
3.5899e-10
3.59016e-10
3.59053e-10
3.58845e-10
3.58724e-10
3.58553e-10
3.58485e-10
3.58369e-10
3.583e-10
3.5823e-10
3.58192e-10
3.5815e-10
3.58131e-10
3.58105e-10
3.58097e-10
3.58082e-10
3.5808e-10
3.58071e-10
3.58071e-10
3.58066e-10
3.58067e-10
3.58064e-10
3.58064e-10
3.58063e-10
3.58063e-10
3.58064e-10
3.58064e-10
3.58067e-10
3.58066e-10
3.58072e-10
3.58072e-10
3.5808e-10
3.58083e-10
3.58098e-10
3.58106e-10
3.58131e-10
3.5815e-10
3.58193e-10
3.5823e-10
3.583e-10
3.5837e-10
3.58485e-10
3.58553e-10
3.58724e-10
3.58846e-10
3.59053e-10
3.59015e-10
3.5899e-10
3.5847e-10
3.538e-10
3.54286e-10
3.54274e-10
3.54293e-10
3.54066e-10
3.53938e-10
3.53764e-10
3.53688e-10
3.53571e-10
3.535e-10
3.5343e-10
3.53391e-10
3.53348e-10
3.53329e-10
3.53303e-10
3.53294e-10
3.53279e-10
3.53277e-10
3.53268e-10
3.53268e-10
3.53263e-10
3.53263e-10
3.5326e-10
3.53261e-10
3.5326e-10
3.5326e-10
3.53261e-10
3.5326e-10
3.53263e-10
3.53263e-10
3.53268e-10
3.53268e-10
3.53277e-10
3.53279e-10
3.53295e-10
3.53303e-10
3.53329e-10
3.53349e-10
3.53392e-10
3.5343e-10
3.53501e-10
3.53571e-10
3.53688e-10
3.53764e-10
3.53939e-10
3.54067e-10
3.54292e-10
3.54274e-10
3.54286e-10
3.538e-10
3.48456e-10
3.48456e-10
3.48451e-10
3.48451e-10
3.48448e-10
3.48449e-10
3.48448e-10
3.48448e-10
3.48449e-10
3.48448e-10
3.48451e-10
3.48451e-10
3.48456e-10
3.48456e-10
3.48465e-10
3.48468e-10
3.48483e-10
3.48492e-10
3.48518e-10
3.48538e-10
3.48582e-10
3.48621e-10
3.48692e-10
3.48764e-10
3.48882e-10
3.48967e-10
3.49144e-10
3.4928e-10
3.49521e-10
3.49524e-10
3.49573e-10
3.49119e-10
3.43628e-10
3.43627e-10
3.43633e-10
3.43633e-10
3.43642e-10
3.43645e-10
3.43661e-10
3.4367e-10
3.43697e-10
3.43717e-10
3.43761e-10
3.43801e-10
3.43872e-10
3.43946e-10
3.44065e-10
3.44157e-10
3.44337e-10
3.44481e-10
3.44739e-10
3.44761e-10
3.44847e-10
3.44425e-10
3.39039e-10
3.39114e-10
3.39234e-10
3.39334e-10
3.39517e-10
3.39667e-10
3.39943e-10
3.39985e-10
3.40106e-10
3.39717e-10
)
;

boundaryField
{
    fuel
    {
        type            fixedValue;
        value           nonuniform 0();
    }
    wall
    {
        type            zeroGradient;
    }
    outlet
    {
        type            zeroGradient;
    }
    frontAndBack
    {
        type            empty;
    }
    procBoundary0to1
    {
        type            processor;
        value           nonuniform List<scalar> 
50
(
5.64088e-10
5.65822e-10
5.67524e-10
5.68408e-10
5.68768e-10
5.68967e-10
5.68931e-10
5.68955e-10
5.68887e-10
5.6889e-10
5.68845e-10
5.68848e-10
5.6882e-10
5.68824e-10
5.68806e-10
5.68811e-10
5.68799e-10
5.68805e-10
5.68798e-10
5.68801e-10
5.68796e-10
5.68798e-10
5.68796e-10
5.68797e-10
5.68796e-10
5.68796e-10
5.68797e-10
5.68796e-10
5.68798e-10
5.68796e-10
5.68801e-10
5.68798e-10
5.68805e-10
5.68799e-10
5.68811e-10
5.68806e-10
5.68824e-10
5.6882e-10
5.68848e-10
5.68845e-10
5.6889e-10
5.68887e-10
5.68954e-10
5.68931e-10
5.68967e-10
5.68767e-10
5.68408e-10
5.67524e-10
5.65822e-10
5.64088e-10
)
;
    }
    procBoundary0to2
    {
        type            processor;
        value           nonuniform List<scalar> 
53
(
3.49119e-10
3.49573e-10
3.49524e-10
3.49522e-10
3.49279e-10
3.49144e-10
3.48967e-10
3.48882e-10
3.48764e-10
3.48692e-10
3.48621e-10
3.48582e-10
3.48538e-10
3.48519e-10
3.48492e-10
3.48483e-10
3.48468e-10
3.48465e-10
3.48465e-10
3.43633e-10
3.43633e-10
3.43628e-10
3.43628e-10
3.43625e-10
3.43626e-10
3.43625e-10
3.43625e-10
3.43626e-10
3.43625e-10
3.43625e-10
3.38791e-10
3.38791e-10
3.38796e-10
3.38797e-10
3.38806e-10
3.38809e-10
3.38825e-10
3.38834e-10
3.38862e-10
3.38882e-10
3.38927e-10
3.38967e-10
3.38967e-10
3.34191e-10
3.34267e-10
3.34388e-10
3.34494e-10
3.34681e-10
3.34837e-10
3.35132e-10
3.35193e-10
3.35348e-10
3.34993e-10
)
;
    }
}


// ************************************************************************* //
