/*--------------------------------*- C++ -*----------------------------------*\
| =========                 |                                                 |
| \\      /  F ield         | OpenFOAM: The Open Source CFD Toolbox           |
|  \\    /   O peration     | Version:  dev                                   |
|   \\  /    A nd           | Web:      www.OpenFOAM.org                      |
|    \\/     M anipulation  |                                                 |
\*---------------------------------------------------------------------------*/
FoamFile
{
    version     2.0;
    format      ascii;
    class       volScalarField;
    location    "0.06";
    object      C3H2;
}
// * * * * * * * * * * * * * * * * * * * * * * * * * * * * * * * * * * * * * //

dimensions      [0 0 0 0 0 0 0];

internalField   nonuniform List<scalar> 
2014
(
1.05865e-05
1.06234e-05
1.06598e-05
1.0679e-05
1.0687e-05
1.06912e-05
1.06905e-05
1.06908e-05
1.06894e-05
1.06893e-05
1.06883e-05
1.06882e-05
1.06876e-05
1.06876e-05
1.06872e-05
1.06873e-05
1.0687e-05
1.06871e-05
1.0687e-05
1.0687e-05
1.06869e-05
1.0687e-05
1.06869e-05
1.06869e-05
1.06869e-05
1.06869e-05
1.06869e-05
1.06869e-05
1.0687e-05
1.06869e-05
1.0687e-05
1.0687e-05
1.06871e-05
1.0687e-05
1.06873e-05
1.06872e-05
1.06876e-05
1.06876e-05
1.06882e-05
1.06883e-05
1.06893e-05
1.06894e-05
1.06908e-05
1.06905e-05
1.06912e-05
1.0687e-05
1.0679e-05
1.06598e-05
1.06234e-05
1.05865e-05
1.04418e-05
1.04782e-05
1.05138e-05
1.05324e-05
1.05401e-05
1.05443e-05
1.05435e-05
1.05438e-05
1.05423e-05
1.05421e-05
1.05411e-05
1.05411e-05
1.05404e-05
1.05404e-05
1.054e-05
1.05401e-05
1.05398e-05
1.05399e-05
1.05398e-05
1.05398e-05
1.05397e-05
1.05398e-05
1.05397e-05
1.05397e-05
1.05397e-05
1.05397e-05
1.05397e-05
1.05397e-05
1.05398e-05
1.05397e-05
1.05398e-05
1.05398e-05
1.05399e-05
1.05398e-05
1.05401e-05
1.054e-05
1.05404e-05
1.05404e-05
1.05411e-05
1.05411e-05
1.05421e-05
1.05423e-05
1.05438e-05
1.05435e-05
1.05443e-05
1.05401e-05
1.05324e-05
1.05138e-05
1.04782e-05
1.04418e-05
1.02996e-05
1.03355e-05
1.03701e-05
1.03882e-05
1.03957e-05
1.03997e-05
1.03989e-05
1.03991e-05
1.03976e-05
1.03974e-05
1.03964e-05
1.03963e-05
1.03956e-05
1.03956e-05
1.03952e-05
1.03953e-05
1.0395e-05
1.03951e-05
1.0395e-05
1.0395e-05
1.03949e-05
1.0395e-05
1.03949e-05
1.03949e-05
1.03949e-05
1.03949e-05
1.03949e-05
1.03949e-05
1.0395e-05
1.03949e-05
1.0395e-05
1.0395e-05
1.03951e-05
1.0395e-05
1.03953e-05
1.03952e-05
1.03956e-05
1.03956e-05
1.03963e-05
1.03964e-05
1.03974e-05
1.03976e-05
1.03991e-05
1.03989e-05
1.03997e-05
1.03957e-05
1.03882e-05
1.03701e-05
1.03355e-05
1.02996e-05
1.01597e-05
1.01951e-05
1.02288e-05
1.02464e-05
1.02536e-05
1.02575e-05
1.02566e-05
1.02567e-05
1.02552e-05
1.02549e-05
1.02539e-05
1.02538e-05
1.02532e-05
1.02531e-05
1.02528e-05
1.02528e-05
1.02525e-05
1.02526e-05
1.02525e-05
1.02525e-05
1.02524e-05
1.02525e-05
1.02524e-05
1.02524e-05
1.02524e-05
1.02524e-05
1.02524e-05
1.02524e-05
1.02525e-05
1.02524e-05
1.02525e-05
1.02525e-05
1.02526e-05
1.02525e-05
1.02528e-05
1.02528e-05
1.02531e-05
1.02532e-05
1.02538e-05
1.02539e-05
1.02549e-05
1.02552e-05
1.02567e-05
1.02566e-05
1.02574e-05
1.02536e-05
1.02463e-05
1.02288e-05
1.01951e-05
1.01597e-05
1.00221e-05
1.0057e-05
1.00898e-05
1.01067e-05
1.01137e-05
1.01174e-05
1.01165e-05
1.01165e-05
1.0115e-05
1.01147e-05
1.01137e-05
1.01135e-05
1.01129e-05
1.01129e-05
1.01125e-05
1.01125e-05
1.01122e-05
1.01123e-05
1.01122e-05
1.01122e-05
1.01121e-05
1.01121e-05
1.01121e-05
1.01121e-05
1.01121e-05
1.01121e-05
1.01121e-05
1.01121e-05
1.01121e-05
1.01121e-05
1.01122e-05
1.01122e-05
1.01123e-05
1.01122e-05
1.01125e-05
1.01125e-05
1.01129e-05
1.01129e-05
1.01135e-05
1.01137e-05
1.01147e-05
1.0115e-05
1.01165e-05
1.01165e-05
1.01174e-05
1.01137e-05
1.01067e-05
1.00898e-05
1.0057e-05
1.00221e-05
9.88654e-06
9.92108e-06
9.95286e-06
9.96926e-06
9.97595e-06
9.97947e-06
9.97847e-06
9.97844e-06
9.97687e-06
9.97656e-06
9.97551e-06
9.97536e-06
9.9747e-06
9.97466e-06
9.97426e-06
9.97429e-06
9.97404e-06
9.9741e-06
9.97395e-06
9.974e-06
9.9739e-06
9.97393e-06
9.97387e-06
9.97389e-06
9.97387e-06
9.97387e-06
9.97389e-06
9.97387e-06
9.97393e-06
9.9739e-06
9.974e-06
9.97395e-06
9.9741e-06
9.97403e-06
9.97429e-06
9.97426e-06
9.97466e-06
9.9747e-06
9.97535e-06
9.97551e-06
9.97656e-06
9.97687e-06
9.97844e-06
9.97847e-06
9.97946e-06
9.97594e-06
9.96925e-06
9.95284e-06
9.92107e-06
9.88654e-06
9.75306e-06
9.78717e-06
9.81794e-06
9.83378e-06
9.84017e-06
9.84353e-06
9.84245e-06
9.84235e-06
9.84076e-06
9.84041e-06
9.83934e-06
9.83917e-06
9.8385e-06
9.83845e-06
9.83805e-06
9.83807e-06
9.83781e-06
9.83788e-06
9.83773e-06
9.83777e-06
9.83767e-06
9.8377e-06
9.83764e-06
9.83766e-06
9.83764e-06
9.83764e-06
9.83766e-06
9.83764e-06
9.8377e-06
9.83767e-06
9.83777e-06
9.83772e-06
9.83788e-06
9.83781e-06
9.83807e-06
9.83805e-06
9.83845e-06
9.8385e-06
9.83916e-06
9.83934e-06
9.8404e-06
9.84075e-06
9.84235e-06
9.84245e-06
9.84352e-06
9.84017e-06
9.83377e-06
9.81793e-06
9.78717e-06
9.75306e-06
9.62151e-06
9.6552e-06
9.68493e-06
9.7002e-06
9.70629e-06
9.70947e-06
9.70832e-06
9.70814e-06
9.70652e-06
9.70613e-06
9.70506e-06
9.70486e-06
9.70419e-06
9.70412e-06
9.70371e-06
9.70373e-06
9.70348e-06
9.70353e-06
9.70338e-06
9.70343e-06
9.70333e-06
9.70335e-06
9.70329e-06
9.70331e-06
9.7033e-06
9.7033e-06
9.70331e-06
9.7033e-06
9.70335e-06
9.70333e-06
9.70342e-06
9.70338e-06
9.70353e-06
9.70347e-06
9.70373e-06
9.70371e-06
9.70412e-06
9.70419e-06
9.70485e-06
9.70506e-06
9.70613e-06
9.70652e-06
9.70814e-06
9.70832e-06
9.70946e-06
9.70628e-06
9.70019e-06
9.68492e-06
9.65519e-06
9.62151e-06
9.4918e-06
9.52503e-06
9.55372e-06
9.56843e-06
9.5742e-06
9.5772e-06
9.57597e-06
9.57571e-06
9.57407e-06
9.57364e-06
9.57255e-06
9.57233e-06
9.57165e-06
9.57157e-06
9.57116e-06
9.57117e-06
9.57091e-06
9.57097e-06
9.57081e-06
9.57086e-06
9.57076e-06
9.57078e-06
9.57073e-06
9.57074e-06
9.57073e-06
9.57073e-06
9.57074e-06
9.57073e-06
9.57078e-06
9.57076e-06
9.57086e-06
9.57081e-06
9.57097e-06
9.57091e-06
9.57117e-06
9.57116e-06
9.57157e-06
9.57165e-06
9.57232e-06
9.57255e-06
9.57363e-06
9.57407e-06
9.57571e-06
9.57597e-06
9.57719e-06
9.57419e-06
9.56842e-06
9.5537e-06
9.52503e-06
9.4918e-06
9.36383e-06
9.39657e-06
9.4242e-06
9.43835e-06
9.4438e-06
9.44662e-06
9.44531e-06
9.44497e-06
9.4433e-06
9.44282e-06
9.44172e-06
9.44147e-06
9.44079e-06
9.4407e-06
9.44029e-06
9.44029e-06
9.44003e-06
9.44008e-06
9.43993e-06
9.43997e-06
9.43987e-06
9.43989e-06
9.43984e-06
9.43985e-06
9.43984e-06
9.43984e-06
9.43985e-06
9.43984e-06
9.43989e-06
9.43987e-06
9.43997e-06
9.43992e-06
9.44008e-06
9.44003e-06
9.44029e-06
9.44029e-06
9.4407e-06
9.44079e-06
9.44147e-06
9.44172e-06
9.44282e-06
9.44329e-06
9.44496e-06
9.4453e-06
9.44661e-06
9.44379e-06
9.43834e-06
9.42418e-06
9.39657e-06
9.36383e-06
9.23751e-06
9.2697e-06
9.29628e-06
9.30987e-06
9.31499e-06
9.31762e-06
9.31623e-06
9.3158e-06
9.3141e-06
9.31359e-06
9.31248e-06
9.3122e-06
9.31152e-06
9.31141e-06
9.31099e-06
9.31099e-06
9.31073e-06
9.31078e-06
9.31062e-06
9.31066e-06
9.31056e-06
9.31059e-06
9.31053e-06
9.31054e-06
9.31053e-06
9.31053e-06
9.31054e-06
9.31053e-06
9.31058e-06
9.31056e-06
9.31066e-06
9.31062e-06
9.31077e-06
9.31073e-06
9.31099e-06
9.31099e-06
9.31141e-06
9.31151e-06
9.3122e-06
9.31247e-06
9.31358e-06
9.3141e-06
9.3158e-06
9.31622e-06
9.31761e-06
9.31498e-06
9.30986e-06
9.29625e-06
9.2697e-06
9.2375e-06
9.11275e-06
9.14432e-06
9.16985e-06
9.18289e-06
9.18769e-06
9.19012e-06
9.18864e-06
9.18813e-06
9.1864e-06
9.18584e-06
9.18472e-06
9.18442e-06
9.18373e-06
9.18361e-06
9.18319e-06
9.18318e-06
9.18292e-06
9.18296e-06
9.18281e-06
9.18284e-06
9.18274e-06
9.18277e-06
9.18271e-06
9.18272e-06
9.18271e-06
9.18271e-06
9.18272e-06
9.18271e-06
9.18277e-06
9.18274e-06
9.18284e-06
9.1828e-06
9.18296e-06
9.18292e-06
9.18318e-06
9.18319e-06
9.18361e-06
9.18373e-06
9.18442e-06
9.18472e-06
9.18584e-06
9.18639e-06
9.18812e-06
9.18863e-06
9.19011e-06
9.18768e-06
9.18288e-06
9.16982e-06
9.14433e-06
9.11274e-06
8.98946e-06
9.02033e-06
9.04484e-06
9.05733e-06
9.0618e-06
9.06403e-06
9.06246e-06
9.06186e-06
9.0601e-06
9.0595e-06
9.05836e-06
9.05805e-06
9.05734e-06
9.05721e-06
9.05679e-06
9.05677e-06
9.05651e-06
9.05655e-06
9.05639e-06
9.05643e-06
9.05633e-06
9.05635e-06
9.05629e-06
9.05631e-06
9.05629e-06
9.05629e-06
9.05631e-06
9.05629e-06
9.05635e-06
9.05633e-06
9.05642e-06
9.05639e-06
9.05654e-06
9.05651e-06
9.05677e-06
9.05679e-06
9.05721e-06
9.05734e-06
9.05804e-06
9.05836e-06
9.0595e-06
9.06009e-06
9.06185e-06
9.06245e-06
9.06402e-06
9.06179e-06
9.05732e-06
9.0448e-06
9.02035e-06
8.98946e-06
8.86755e-06
8.89765e-06
8.92115e-06
8.9331e-06
8.93723e-06
8.93926e-06
8.93759e-06
8.9369e-06
8.93511e-06
8.93447e-06
8.93332e-06
8.93298e-06
8.93227e-06
8.93213e-06
8.9317e-06
8.93167e-06
8.93141e-06
8.93145e-06
8.93129e-06
8.93132e-06
8.93122e-06
8.93124e-06
8.93119e-06
8.9312e-06
8.93119e-06
8.93119e-06
8.9312e-06
8.93119e-06
8.93124e-06
8.93122e-06
8.93132e-06
8.93129e-06
8.93144e-06
8.93141e-06
8.93167e-06
8.9317e-06
8.93213e-06
8.93227e-06
8.93298e-06
8.93332e-06
8.93447e-06
8.9351e-06
8.93689e-06
8.93758e-06
8.93925e-06
8.93722e-06
8.93309e-06
8.92111e-06
8.89767e-06
8.86755e-06
8.74694e-06
8.77619e-06
8.7987e-06
8.81013e-06
8.81389e-06
8.81572e-06
8.81396e-06
8.81318e-06
8.81135e-06
8.81068e-06
8.80951e-06
8.80915e-06
8.80843e-06
8.80827e-06
8.80784e-06
8.80781e-06
8.80755e-06
8.80758e-06
8.80742e-06
8.80745e-06
8.80735e-06
8.80737e-06
8.80731e-06
8.80733e-06
8.80731e-06
8.80731e-06
8.80733e-06
8.80731e-06
8.80737e-06
8.80735e-06
8.80745e-06
8.80742e-06
8.80757e-06
8.80755e-06
8.80781e-06
8.80784e-06
8.80827e-06
8.80843e-06
8.80914e-06
8.80951e-06
8.81067e-06
8.81135e-06
8.81317e-06
8.81395e-06
8.81571e-06
8.81388e-06
8.81011e-06
8.79864e-06
8.77622e-06
8.74694e-06
8.62752e-06
8.65587e-06
8.6774e-06
8.68831e-06
8.69171e-06
8.69334e-06
8.69148e-06
8.6906e-06
8.68874e-06
8.68803e-06
8.68685e-06
8.68646e-06
8.68574e-06
8.68557e-06
8.68513e-06
8.68509e-06
8.68483e-06
8.68486e-06
8.6847e-06
8.68473e-06
8.68463e-06
8.68465e-06
8.68459e-06
8.6846e-06
8.68459e-06
8.68459e-06
8.6846e-06
8.68459e-06
8.68464e-06
8.68462e-06
8.68472e-06
8.68469e-06
8.68485e-06
8.68483e-06
8.68509e-06
8.68513e-06
8.68557e-06
8.68574e-06
8.68646e-06
8.68684e-06
8.68802e-06
8.68874e-06
8.69059e-06
8.69147e-06
8.69333e-06
8.6917e-06
8.68829e-06
8.67733e-06
8.65591e-06
8.62752e-06
8.50921e-06
8.53662e-06
8.55718e-06
8.56757e-06
8.57061e-06
8.57203e-06
8.57007e-06
8.56909e-06
8.5672e-06
8.56645e-06
8.56525e-06
8.56485e-06
8.56411e-06
8.56393e-06
8.5635e-06
8.56345e-06
8.56318e-06
8.5632e-06
8.56304e-06
8.56307e-06
8.56297e-06
8.56299e-06
8.56293e-06
8.56295e-06
8.56293e-06
8.56293e-06
8.56295e-06
8.56293e-06
8.56299e-06
8.56297e-06
8.56307e-06
8.56304e-06
8.5632e-06
8.56318e-06
8.56345e-06
8.56349e-06
8.56393e-06
8.56411e-06
8.56484e-06
8.56525e-06
8.56644e-06
8.5672e-06
8.56909e-06
8.57006e-06
8.57202e-06
8.5706e-06
8.56756e-06
8.55709e-06
8.53668e-06
8.50921e-06
8.39192e-06
8.41836e-06
8.43795e-06
8.44784e-06
8.4505e-06
8.45172e-06
8.44966e-06
8.44858e-06
8.44665e-06
8.44586e-06
8.44465e-06
8.44422e-06
8.44348e-06
8.44329e-06
8.44285e-06
8.44279e-06
8.44253e-06
8.44254e-06
8.44238e-06
8.44241e-06
8.44231e-06
8.44233e-06
8.44227e-06
8.44228e-06
8.44227e-06
8.44227e-06
8.44228e-06
8.44227e-06
8.44233e-06
8.44231e-06
8.44241e-06
8.44238e-06
8.44254e-06
8.44253e-06
8.44279e-06
8.44285e-06
8.44329e-06
8.44348e-06
8.44422e-06
8.44465e-06
8.44585e-06
8.44665e-06
8.44857e-06
8.44965e-06
8.45171e-06
8.45049e-06
8.44782e-06
8.43784e-06
8.41844e-06
8.39192e-06
8.27556e-06
8.30101e-06
8.31966e-06
8.32902e-06
8.33132e-06
8.33233e-06
8.33017e-06
8.32898e-06
8.32702e-06
8.32618e-06
8.32496e-06
8.32451e-06
8.32376e-06
8.32356e-06
8.32311e-06
8.32305e-06
8.32279e-06
8.3228e-06
8.32264e-06
8.32266e-06
8.32256e-06
8.32258e-06
8.32252e-06
8.32253e-06
8.32251e-06
8.32251e-06
8.32253e-06
8.32252e-06
8.32257e-06
8.32256e-06
8.32266e-06
8.32263e-06
8.32279e-06
8.32278e-06
8.32305e-06
8.32311e-06
8.32356e-06
8.32376e-06
8.32451e-06
8.32496e-06
8.32618e-06
8.32701e-06
8.32897e-06
8.33016e-06
8.33232e-06
8.33131e-06
8.329e-06
8.31951e-06
8.30112e-06
8.27556e-06
8.16005e-06
8.18448e-06
8.20223e-06
8.21105e-06
8.21298e-06
8.21378e-06
8.21151e-06
8.21021e-06
8.20822e-06
8.20734e-06
8.20611e-06
8.20564e-06
8.20488e-06
8.20467e-06
8.20421e-06
8.20415e-06
8.20388e-06
8.20389e-06
8.20372e-06
8.20375e-06
8.20365e-06
8.20366e-06
8.20361e-06
8.20362e-06
8.2036e-06
8.2036e-06
8.20362e-06
8.2036e-06
8.20366e-06
8.20364e-06
8.20374e-06
8.20372e-06
8.20388e-06
8.20388e-06
8.20415e-06
8.20421e-06
8.20466e-06
8.20488e-06
8.20563e-06
8.2061e-06
8.20734e-06
8.20821e-06
8.2102e-06
8.2115e-06
8.21377e-06
8.21297e-06
8.21103e-06
8.20205e-06
8.18463e-06
8.16005e-06
8.04528e-06
8.06874e-06
8.08555e-06
8.09383e-06
8.09541e-06
8.09599e-06
8.09362e-06
8.0922e-06
8.09017e-06
8.08926e-06
8.08801e-06
8.08752e-06
8.08676e-06
8.08653e-06
8.08608e-06
8.086e-06
8.08573e-06
8.08574e-06
8.08557e-06
8.08559e-06
8.08549e-06
8.08551e-06
8.08545e-06
8.08546e-06
8.08545e-06
8.08545e-06
8.08546e-06
8.08545e-06
8.08551e-06
8.08549e-06
8.08559e-06
8.08557e-06
8.08573e-06
8.08573e-06
8.086e-06
8.08607e-06
8.08653e-06
8.08676e-06
8.08751e-06
8.08801e-06
8.08926e-06
8.09017e-06
8.09219e-06
8.09361e-06
8.09598e-06
8.0954e-06
8.09381e-06
8.0854e-06
8.06885e-06
8.04529e-06
7.9312e-06
7.95371e-06
7.96954e-06
7.97731e-06
7.97852e-06
7.97889e-06
7.97641e-06
7.97487e-06
7.97281e-06
7.97186e-06
7.9706e-06
7.97008e-06
7.96932e-06
7.96908e-06
7.96862e-06
7.96854e-06
7.96827e-06
7.96827e-06
7.9681e-06
7.96812e-06
7.96802e-06
7.96803e-06
7.96798e-06
7.96799e-06
7.96797e-06
7.96797e-06
7.96799e-06
7.96798e-06
7.96803e-06
7.96802e-06
7.96812e-06
7.9681e-06
7.96826e-06
7.96826e-06
7.96854e-06
7.96862e-06
7.96908e-06
7.96931e-06
7.97008e-06
7.97059e-06
7.97185e-06
7.9728e-06
7.97486e-06
7.9764e-06
7.97888e-06
7.97851e-06
7.97729e-06
7.96942e-06
7.95379e-06
7.9312e-06
7.81771e-06
7.8393e-06
7.85413e-06
7.86139e-06
7.86224e-06
7.86239e-06
7.85981e-06
7.85814e-06
7.85605e-06
7.85506e-06
7.85379e-06
7.85325e-06
7.85248e-06
7.85223e-06
7.85177e-06
7.85168e-06
7.8514e-06
7.8514e-06
7.85124e-06
7.85125e-06
7.85115e-06
7.85116e-06
7.85111e-06
7.85112e-06
7.8511e-06
7.8511e-06
7.85112e-06
7.85111e-06
7.85116e-06
7.85115e-06
7.85125e-06
7.85123e-06
7.8514e-06
7.8514e-06
7.85168e-06
7.85176e-06
7.85223e-06
7.85248e-06
7.85325e-06
7.85378e-06
7.85505e-06
7.85604e-06
7.85813e-06
7.8598e-06
7.86238e-06
7.86223e-06
7.86137e-06
7.85403e-06
7.83936e-06
7.8177e-06
7.70473e-06
7.72542e-06
7.73922e-06
7.74599e-06
7.74649e-06
7.74643e-06
7.74374e-06
7.74193e-06
7.73981e-06
7.73879e-06
7.7375e-06
7.73695e-06
7.73617e-06
7.7359e-06
7.73544e-06
7.73534e-06
7.73507e-06
7.73506e-06
7.73489e-06
7.73491e-06
7.73481e-06
7.73482e-06
7.73476e-06
7.73477e-06
7.73476e-06
7.73476e-06
7.73477e-06
7.73476e-06
7.73482e-06
7.7348e-06
7.7349e-06
7.73489e-06
7.73505e-06
7.73506e-06
7.73534e-06
7.73543e-06
7.7359e-06
7.73616e-06
7.73694e-06
7.73749e-06
7.73878e-06
7.7398e-06
7.74192e-06
7.74373e-06
7.74641e-06
7.74648e-06
7.74597e-06
7.73914e-06
7.72547e-06
7.70473e-06
7.5922e-06
7.612e-06
7.62474e-06
7.63103e-06
7.63119e-06
7.63091e-06
7.62812e-06
7.62617e-06
7.62401e-06
7.62295e-06
7.62165e-06
7.62108e-06
7.62029e-06
7.62002e-06
7.61955e-06
7.61945e-06
7.61917e-06
7.61916e-06
7.619e-06
7.61901e-06
7.61891e-06
7.61892e-06
7.61886e-06
7.61887e-06
7.61885e-06
7.61885e-06
7.61887e-06
7.61886e-06
7.61892e-06
7.6189e-06
7.619e-06
7.61899e-06
7.61916e-06
7.61917e-06
7.61945e-06
7.61955e-06
7.62002e-06
7.62029e-06
7.62107e-06
7.62165e-06
7.62294e-06
7.624e-06
7.62615e-06
7.62811e-06
7.63089e-06
7.63118e-06
7.63101e-06
7.62468e-06
7.61203e-06
7.5922e-06
7.48387e-06
7.50294e-06
7.51462e-06
7.52049e-06
7.5203e-06
7.51982e-06
7.51692e-06
7.51481e-06
7.51262e-06
7.51153e-06
7.51022e-06
7.50963e-06
7.50883e-06
7.50855e-06
7.50807e-06
7.50797e-06
7.50769e-06
7.50767e-06
7.50751e-06
7.50752e-06
7.50742e-06
7.50743e-06
7.50737e-06
7.50738e-06
7.50736e-06
7.50736e-06
7.50738e-06
7.50737e-06
7.50743e-06
7.50741e-06
7.50751e-06
7.5075e-06
7.50767e-06
7.50769e-06
7.50797e-06
7.50807e-06
7.50855e-06
7.50883e-06
7.50962e-06
7.51021e-06
7.51152e-06
7.51262e-06
7.5148e-06
7.51691e-06
7.51981e-06
7.52029e-06
7.52047e-06
7.51457e-06
7.50295e-06
7.48386e-06
7.37523e-06
7.39374e-06
7.40395e-06
7.40915e-06
7.40826e-06
7.40738e-06
7.40417e-06
7.40176e-06
7.39944e-06
7.39826e-06
7.39689e-06
7.39625e-06
7.39542e-06
7.39511e-06
7.39461e-06
7.39449e-06
7.3942e-06
7.39418e-06
7.394e-06
7.39401e-06
7.3939e-06
7.39391e-06
7.39386e-06
7.39387e-06
7.39385e-06
7.39385e-06
7.39386e-06
7.39386e-06
7.39391e-06
7.3939e-06
7.394e-06
7.394e-06
7.39417e-06
7.39419e-06
7.39449e-06
7.39461e-06
7.3951e-06
7.39541e-06
7.39624e-06
7.39688e-06
7.39825e-06
7.39943e-06
7.40175e-06
7.40416e-06
7.40736e-06
7.40825e-06
7.40913e-06
7.40391e-06
7.39375e-06
7.37522e-06
7.26404e-06
7.28173e-06
7.29083e-06
7.29556e-06
7.29431e-06
7.2932e-06
7.28989e-06
7.28728e-06
7.28493e-06
7.28371e-06
7.28233e-06
7.28167e-06
7.28083e-06
7.28051e-06
7.28001e-06
7.27988e-06
7.27958e-06
7.27956e-06
7.27938e-06
7.27939e-06
7.27928e-06
7.27929e-06
7.27924e-06
7.27924e-06
7.27923e-06
7.27923e-06
7.27924e-06
7.27924e-06
7.27929e-06
7.27928e-06
7.27939e-06
7.27938e-06
7.27955e-06
7.27958e-06
7.27988e-06
7.28e-06
7.2805e-06
7.28083e-06
7.28166e-06
7.28232e-06
7.28371e-06
7.28492e-06
7.28727e-06
7.28987e-06
7.29319e-06
7.2943e-06
7.29554e-06
7.29079e-06
7.28173e-06
7.26403e-06
7.153e-06
7.16986e-06
7.17787e-06
7.18213e-06
7.18052e-06
7.1792e-06
7.17578e-06
7.17295e-06
7.17057e-06
7.16932e-06
7.16792e-06
7.16725e-06
7.1664e-06
7.16607e-06
7.16556e-06
7.16543e-06
7.16513e-06
7.1651e-06
7.16492e-06
7.16493e-06
7.16482e-06
7.16483e-06
7.16477e-06
7.16478e-06
7.16476e-06
7.16476e-06
7.16478e-06
7.16477e-06
7.16483e-06
7.16482e-06
7.16492e-06
7.16492e-06
7.1651e-06
7.16513e-06
7.16542e-06
7.16556e-06
7.16606e-06
7.1664e-06
7.16724e-06
7.16792e-06
7.16931e-06
7.17056e-06
7.17294e-06
7.17576e-06
7.17918e-06
7.18051e-06
7.18211e-06
7.17784e-06
7.16986e-06
7.15299e-06
7.04204e-06
7.05804e-06
7.06502e-06
7.06878e-06
7.06682e-06
7.06527e-06
7.06176e-06
7.05868e-06
7.05628e-06
7.055e-06
7.05359e-06
7.05289e-06
7.05204e-06
7.0517e-06
7.05119e-06
7.05105e-06
7.05075e-06
7.05071e-06
7.05054e-06
7.05054e-06
7.05043e-06
7.05044e-06
7.05038e-06
7.05039e-06
7.05037e-06
7.05037e-06
7.05039e-06
7.05038e-06
7.05044e-06
7.05043e-06
7.05054e-06
7.05053e-06
7.05071e-06
7.05074e-06
7.05104e-06
7.05119e-06
7.05169e-06
7.05204e-06
7.05289e-06
7.05359e-06
7.05499e-06
7.05627e-06
7.05867e-06
7.06174e-06
7.06526e-06
7.06681e-06
7.06876e-06
7.06499e-06
7.05803e-06
7.04203e-06
6.93106e-06
6.9462e-06
6.95215e-06
6.95543e-06
6.95311e-06
6.95135e-06
6.94775e-06
6.94439e-06
6.94198e-06
6.94066e-06
6.93925e-06
6.93853e-06
6.93768e-06
6.93732e-06
6.9368e-06
6.93666e-06
6.93636e-06
6.93632e-06
6.93614e-06
6.93614e-06
6.93603e-06
6.93604e-06
6.93598e-06
6.93599e-06
6.93597e-06
6.93597e-06
6.93599e-06
6.93598e-06
6.93604e-06
6.93603e-06
6.93613e-06
6.93614e-06
6.93631e-06
6.93635e-06
6.93665e-06
6.9368e-06
6.93731e-06
6.93767e-06
6.93852e-06
6.93924e-06
6.94065e-06
6.94197e-06
6.94438e-06
6.94773e-06
6.95134e-06
6.9531e-06
6.95541e-06
6.95213e-06
6.9462e-06
6.93105e-06
6.82371e-06
6.83811e-06
6.84307e-06
6.84588e-06
6.8432e-06
6.84124e-06
6.83755e-06
6.83389e-06
6.83146e-06
6.83011e-06
6.82868e-06
6.82795e-06
6.82709e-06
6.82672e-06
6.8262e-06
6.82605e-06
6.82574e-06
6.8257e-06
6.82552e-06
6.82552e-06
6.82541e-06
6.82542e-06
6.82536e-06
6.82537e-06
6.82535e-06
6.82535e-06
6.82537e-06
6.82536e-06
6.82542e-06
6.82541e-06
6.82552e-06
6.82552e-06
6.8257e-06
6.82574e-06
6.82604e-06
6.8262e-06
6.82672e-06
6.82708e-06
6.82794e-06
6.82868e-06
6.8301e-06
6.83145e-06
6.83387e-06
6.83753e-06
6.84123e-06
6.84319e-06
6.84586e-06
6.84304e-06
6.8381e-06
6.82369e-06
6.71641e-06
6.73007e-06
6.73407e-06
6.73642e-06
6.73337e-06
6.73121e-06
6.72745e-06
6.72338e-06
6.72077e-06
6.7193e-06
6.71778e-06
6.71698e-06
6.71606e-06
6.71565e-06
6.7151e-06
6.71492e-06
6.71459e-06
6.71454e-06
6.71435e-06
6.71435e-06
6.71423e-06
6.71424e-06
6.71418e-06
6.71418e-06
6.71417e-06
6.71417e-06
6.71418e-06
6.71418e-06
6.71424e-06
6.71423e-06
6.71434e-06
6.71435e-06
6.71454e-06
6.71459e-06
6.71492e-06
6.71509e-06
6.71565e-06
6.71605e-06
6.71697e-06
6.71777e-06
6.71929e-06
6.72076e-06
6.72336e-06
6.72744e-06
6.7312e-06
6.73336e-06
6.7364e-06
6.73404e-06
6.73005e-06
6.71639e-06
6.60591e-06
6.61884e-06
6.62181e-06
6.6236e-06
6.62005e-06
6.61763e-06
6.61375e-06
6.60921e-06
6.60655e-06
6.60502e-06
6.60346e-06
6.60263e-06
6.60169e-06
6.60126e-06
6.60069e-06
6.60051e-06
6.60018e-06
6.60013e-06
6.59993e-06
6.59992e-06
6.59981e-06
6.59982e-06
6.59976e-06
6.59976e-06
6.59974e-06
6.59974e-06
6.59976e-06
6.59975e-06
6.59981e-06
6.59981e-06
6.59992e-06
6.59993e-06
6.60012e-06
6.60018e-06
6.60051e-06
6.60069e-06
6.60126e-06
6.60169e-06
6.60263e-06
6.60346e-06
6.60501e-06
6.60654e-06
6.6092e-06
6.61374e-06
6.61762e-06
6.62005e-06
6.62358e-06
6.62178e-06
6.61883e-06
6.60589e-06
6.49465e-06
6.5067e-06
6.50875e-06
6.51003e-06
6.50612e-06
6.5035e-06
6.49961e-06
6.49841e-06
6.49576e-06
6.4942e-06
6.49262e-06
6.49177e-06
6.49082e-06
6.49038e-06
6.4898e-06
6.48961e-06
6.48928e-06
6.48922e-06
6.48903e-06
6.48902e-06
6.4889e-06
6.48891e-06
6.48884e-06
6.48885e-06
6.48883e-06
6.48883e-06
6.48885e-06
6.48884e-06
6.4889e-06
6.4889e-06
6.48901e-06
6.48902e-06
6.48922e-06
6.48928e-06
6.48961e-06
6.4898e-06
6.49038e-06
6.49082e-06
6.49177e-06
6.49262e-06
6.49419e-06
6.49575e-06
6.4984e-06
6.4996e-06
6.50349e-06
6.50612e-06
6.51001e-06
6.50873e-06
6.50668e-06
6.49464e-06
6.38668e-06
6.39796e-06
6.39911e-06
6.39992e-06
6.39563e-06
6.39283e-06
6.38891e-06
6.38748e-06
6.38482e-06
6.38323e-06
6.38164e-06
6.38077e-06
6.37981e-06
6.37936e-06
6.37878e-06
6.37858e-06
6.37824e-06
6.37818e-06
6.37798e-06
6.37797e-06
6.37785e-06
6.37786e-06
6.37779e-06
6.3778e-06
6.37778e-06
6.37778e-06
6.3778e-06
6.37779e-06
6.37785e-06
6.37785e-06
6.37796e-06
6.37798e-06
6.37817e-06
6.37824e-06
6.37858e-06
6.37878e-06
6.37936e-06
6.37981e-06
6.38077e-06
6.38164e-06
6.38322e-06
6.38482e-06
6.38747e-06
6.3889e-06
6.39282e-06
6.39563e-06
6.3999e-06
6.39909e-06
6.39794e-06
6.38667e-06
6.27792e-06
6.28879e-06
6.28885e-06
6.28902e-06
6.28392e-06
6.28078e-06
6.27661e-06
6.27487e-06
6.2721e-06
6.27041e-06
6.26875e-06
6.26784e-06
6.26683e-06
6.26635e-06
6.26574e-06
6.26553e-06
6.26517e-06
6.2651e-06
6.2649e-06
6.26488e-06
6.26476e-06
6.26476e-06
6.2647e-06
6.26471e-06
6.26468e-06
6.26468e-06
6.2647e-06
6.2647e-06
6.26476e-06
6.26476e-06
6.26488e-06
6.26489e-06
6.2651e-06
6.26517e-06
6.26553e-06
6.26574e-06
6.26635e-06
6.26683e-06
6.26783e-06
6.26875e-06
6.2704e-06
6.27209e-06
6.27486e-06
6.27661e-06
6.28078e-06
6.28393e-06
6.28899e-06
6.28883e-06
6.28878e-06
6.27791e-06
6.16941e-06
6.17953e-06
6.1787e-06
6.1784e-06
6.17289e-06
6.16957e-06
6.16534e-06
6.16339e-06
6.1606e-06
6.15888e-06
6.15721e-06
6.15627e-06
6.15526e-06
6.15477e-06
6.15415e-06
6.15393e-06
6.15356e-06
6.15349e-06
6.15328e-06
6.15326e-06
6.15314e-06
6.15314e-06
6.15308e-06
6.15309e-06
6.15306e-06
6.15306e-06
6.15309e-06
6.15308e-06
6.15314e-06
6.15314e-06
6.15326e-06
6.15328e-06
6.15349e-06
6.15356e-06
6.15393e-06
6.15415e-06
6.15477e-06
6.15526e-06
6.15627e-06
6.15721e-06
6.15888e-06
6.1606e-06
6.16338e-06
6.16533e-06
6.16957e-06
6.17291e-06
6.17838e-06
6.17869e-06
6.17952e-06
6.1694e-06
6.06056e-06
6.06993e-06
6.06825e-06
6.06747e-06
6.06154e-06
6.05805e-06
6.05374e-06
6.0516e-06
6.0488e-06
6.04704e-06
6.04535e-06
6.0444e-06
6.04337e-06
6.04287e-06
6.04225e-06
6.04201e-06
6.04165e-06
6.04157e-06
6.04136e-06
6.04134e-06
6.04122e-06
6.04122e-06
6.04115e-06
6.04116e-06
6.04114e-06
6.04114e-06
6.04116e-06
6.04115e-06
6.04122e-06
6.04121e-06
6.04134e-06
6.04136e-06
6.04157e-06
6.04165e-06
6.04202e-06
6.04225e-06
6.04288e-06
6.04338e-06
6.0444e-06
6.04536e-06
6.04704e-06
6.04879e-06
6.0516e-06
6.05374e-06
6.05805e-06
6.06156e-06
6.06745e-06
6.06823e-06
6.06992e-06
6.06055e-06
5.92908e-06
5.92906e-06
5.92894e-06
5.92894e-06
5.92887e-06
5.92888e-06
5.92886e-06
5.92886e-06
5.92888e-06
5.92887e-06
5.92894e-06
5.92894e-06
5.92906e-06
5.92908e-06
5.9293e-06
5.92938e-06
5.92976e-06
5.93e-06
5.93063e-06
5.93114e-06
5.93218e-06
5.93315e-06
5.93485e-06
5.93664e-06
5.93947e-06
5.94178e-06
5.94616e-06
5.94986e-06
5.95615e-06
5.95741e-06
5.95994e-06
5.95131e-06
5.81627e-06
5.81627e-06
5.81639e-06
5.81642e-06
5.81664e-06
5.81673e-06
5.81711e-06
5.81735e-06
5.818e-06
5.81852e-06
5.81956e-06
5.82055e-06
5.82226e-06
5.82408e-06
5.82694e-06
5.82942e-06
5.83388e-06
5.83776e-06
5.84443e-06
5.84618e-06
5.84952e-06
5.84164e-06
5.70925e-06
5.7111e-06
5.71398e-06
5.71661e-06
5.72116e-06
5.72521e-06
5.73229e-06
5.7345e-06
5.73865e-06
5.73151e-06
)
;

boundaryField
{
    fuel
    {
        type            fixedValue;
        value           nonuniform 0();
    }
    wall
    {
        type            zeroGradient;
    }
    outlet
    {
        type            zeroGradient;
    }
    frontAndBack
    {
        type            empty;
    }
    procBoundary0to1
    {
        type            processor;
        value           nonuniform List<scalar> 
50
(
1.07336e-05
1.07713e-05
1.08084e-05
1.08281e-05
1.08363e-05
1.08407e-05
1.084e-05
1.08404e-05
1.08389e-05
1.08389e-05
1.08379e-05
1.08379e-05
1.08372e-05
1.08373e-05
1.08369e-05
1.0837e-05
1.08367e-05
1.08368e-05
1.08367e-05
1.08367e-05
1.08366e-05
1.08367e-05
1.08366e-05
1.08366e-05
1.08366e-05
1.08366e-05
1.08366e-05
1.08366e-05
1.08367e-05
1.08366e-05
1.08367e-05
1.08367e-05
1.08368e-05
1.08367e-05
1.0837e-05
1.08369e-05
1.08373e-05
1.08372e-05
1.08379e-05
1.08379e-05
1.08389e-05
1.08389e-05
1.08404e-05
1.084e-05
1.08407e-05
1.08363e-05
1.0828e-05
1.08084e-05
1.07713e-05
1.07336e-05
)
;
    }
    procBoundary0to2
    {
        type            processor;
        value           nonuniform List<scalar> 
53
(
5.95132e-06
5.95994e-06
5.95742e-06
5.95617e-06
5.94985e-06
5.94617e-06
5.94178e-06
5.93947e-06
5.93664e-06
5.93485e-06
5.93315e-06
5.93218e-06
5.93114e-06
5.93063e-06
5.93e-06
5.92976e-06
5.92938e-06
5.9293e-06
5.9293e-06
5.81642e-06
5.8164e-06
5.81627e-06
5.81627e-06
5.81621e-06
5.81621e-06
5.81619e-06
5.81619e-06
5.81621e-06
5.81621e-06
5.81621e-06
5.70318e-06
5.70318e-06
5.70331e-06
5.70334e-06
5.70356e-06
5.70365e-06
5.70404e-06
5.70429e-06
5.70495e-06
5.70548e-06
5.70653e-06
5.70753e-06
5.70753e-06
5.59579e-06
5.59767e-06
5.60058e-06
5.60335e-06
5.60798e-06
5.61219e-06
5.61969e-06
5.62234e-06
5.62728e-06
5.62089e-06
)
;
    }
}


// ************************************************************************* //
