/*--------------------------------*- C++ -*----------------------------------*\
| =========                 |                                                 |
| \\      /  F ield         | OpenFOAM: The Open Source CFD Toolbox           |
|  \\    /   O peration     | Version:  dev                                   |
|   \\  /    A nd           | Web:      www.OpenFOAM.org                      |
|    \\/     M anipulation  |                                                 |
\*---------------------------------------------------------------------------*/
FoamFile
{
    version     2.0;
    format      ascii;
    class       volScalarField;
    location    "0.06";
    object      C6H;
}
// * * * * * * * * * * * * * * * * * * * * * * * * * * * * * * * * * * * * * //

dimensions      [0 0 0 0 0 0 0];

internalField   nonuniform List<scalar> 
2014
(
4.06782e-10
4.10272e-10
4.13704e-10
4.15508e-10
4.16251e-10
4.16653e-10
4.1658e-10
4.16615e-10
4.16476e-10
4.16471e-10
4.16377e-10
4.16378e-10
4.16319e-10
4.16324e-10
4.16287e-10
4.16295e-10
4.16272e-10
4.16281e-10
4.16267e-10
4.16273e-10
4.16264e-10
4.16267e-10
4.16262e-10
4.16264e-10
4.16262e-10
4.16262e-10
4.16264e-10
4.16262e-10
4.16267e-10
4.16264e-10
4.16273e-10
4.16267e-10
4.16281e-10
4.16272e-10
4.16295e-10
4.16287e-10
4.16324e-10
4.16319e-10
4.16378e-10
4.16378e-10
4.16471e-10
4.16476e-10
4.16615e-10
4.1658e-10
4.16652e-10
4.1625e-10
4.15507e-10
4.13703e-10
4.10271e-10
4.06782e-10
3.92697e-10
3.96058e-10
3.99342e-10
4.0106e-10
4.01767e-10
4.02149e-10
4.02074e-10
4.02102e-10
4.01965e-10
4.01956e-10
4.01864e-10
4.01863e-10
4.01805e-10
4.01808e-10
4.01772e-10
4.01779e-10
4.01756e-10
4.01765e-10
4.01751e-10
4.01757e-10
4.01748e-10
4.01751e-10
4.01746e-10
4.01748e-10
4.01747e-10
4.01747e-10
4.01748e-10
4.01746e-10
4.01751e-10
4.01748e-10
4.01757e-10
4.01751e-10
4.01765e-10
4.01756e-10
4.0178e-10
4.01772e-10
4.01808e-10
4.01805e-10
4.01863e-10
4.01864e-10
4.01956e-10
4.01965e-10
4.02102e-10
4.02073e-10
4.02148e-10
4.01767e-10
4.01059e-10
3.99341e-10
3.96058e-10
3.92697e-10
3.79217e-10
3.8246e-10
3.85593e-10
3.87228e-10
3.87901e-10
3.88261e-10
3.88184e-10
3.88206e-10
3.8807e-10
3.88058e-10
3.87968e-10
3.87964e-10
3.87907e-10
3.87909e-10
3.87874e-10
3.8788e-10
3.87858e-10
3.87866e-10
3.87852e-10
3.87858e-10
3.87849e-10
3.87852e-10
3.87847e-10
3.87849e-10
3.87847e-10
3.87847e-10
3.87849e-10
3.87847e-10
3.87852e-10
3.87849e-10
3.87858e-10
3.87852e-10
3.87866e-10
3.87858e-10
3.8788e-10
3.87874e-10
3.87909e-10
3.87907e-10
3.87964e-10
3.87968e-10
3.88058e-10
3.8807e-10
3.88205e-10
3.88183e-10
3.8826e-10
3.879e-10
3.87227e-10
3.85592e-10
3.82459e-10
3.79216e-10
3.66297e-10
3.69432e-10
3.72414e-10
3.7397e-10
3.74606e-10
3.74947e-10
3.74867e-10
3.74882e-10
3.74749e-10
3.74733e-10
3.74644e-10
3.74639e-10
3.74582e-10
3.74584e-10
3.74549e-10
3.74554e-10
3.74532e-10
3.7454e-10
3.74527e-10
3.74532e-10
3.74523e-10
3.74526e-10
3.74521e-10
3.74523e-10
3.74522e-10
3.74522e-10
3.74523e-10
3.74521e-10
3.74526e-10
3.74523e-10
3.74532e-10
3.74527e-10
3.7454e-10
3.74532e-10
3.74554e-10
3.74549e-10
3.74583e-10
3.74582e-10
3.74638e-10
3.74644e-10
3.74733e-10
3.74748e-10
3.74882e-10
3.74866e-10
3.74946e-10
3.74606e-10
3.73969e-10
3.72413e-10
3.69432e-10
3.66297e-10
3.53901e-10
3.56931e-10
3.59771e-10
3.61246e-10
3.61846e-10
3.62167e-10
3.62084e-10
3.62093e-10
3.61961e-10
3.61943e-10
3.61855e-10
3.61847e-10
3.61792e-10
3.61792e-10
3.61758e-10
3.61763e-10
3.61741e-10
3.61749e-10
3.61736e-10
3.61741e-10
3.61732e-10
3.61735e-10
3.6173e-10
3.61732e-10
3.6173e-10
3.6173e-10
3.61732e-10
3.6173e-10
3.61735e-10
3.61732e-10
3.61741e-10
3.61735e-10
3.61749e-10
3.61741e-10
3.61763e-10
3.61758e-10
3.61792e-10
3.61792e-10
3.61847e-10
3.61855e-10
3.61943e-10
3.61961e-10
3.62093e-10
3.62084e-10
3.62166e-10
3.61845e-10
3.61245e-10
3.59771e-10
3.56931e-10
3.539e-10
3.41994e-10
3.44926e-10
3.47625e-10
3.49021e-10
3.49586e-10
3.49887e-10
3.49801e-10
3.49805e-10
3.49674e-10
3.49653e-10
3.49566e-10
3.49557e-10
3.49502e-10
3.49501e-10
3.49468e-10
3.49472e-10
3.49451e-10
3.49458e-10
3.49445e-10
3.49449e-10
3.49441e-10
3.49444e-10
3.49439e-10
3.49441e-10
3.49439e-10
3.49439e-10
3.49441e-10
3.49439e-10
3.49444e-10
3.49441e-10
3.49449e-10
3.49445e-10
3.49457e-10
3.49451e-10
3.49472e-10
3.49468e-10
3.49501e-10
3.49502e-10
3.49556e-10
3.49566e-10
3.49653e-10
3.49674e-10
3.49804e-10
3.49801e-10
3.49886e-10
3.49585e-10
3.49021e-10
3.47625e-10
3.44925e-10
3.41994e-10
3.30548e-10
3.33384e-10
3.35946e-10
3.37266e-10
3.37795e-10
3.38077e-10
3.37988e-10
3.37986e-10
3.37856e-10
3.37832e-10
3.37747e-10
3.37736e-10
3.37682e-10
3.3768e-10
3.37647e-10
3.3765e-10
3.3763e-10
3.37636e-10
3.37623e-10
3.37628e-10
3.3762e-10
3.37622e-10
3.37617e-10
3.37619e-10
3.37618e-10
3.37618e-10
3.37619e-10
3.37618e-10
3.37622e-10
3.3762e-10
3.37628e-10
3.37623e-10
3.37636e-10
3.3763e-10
3.3765e-10
3.37647e-10
3.3768e-10
3.37682e-10
3.37735e-10
3.37747e-10
3.37832e-10
3.37856e-10
3.37985e-10
3.37988e-10
3.38076e-10
3.37795e-10
3.37265e-10
3.35944e-10
3.33384e-10
3.30548e-10
3.19536e-10
3.22278e-10
3.24704e-10
3.25952e-10
3.26446e-10
3.26709e-10
3.26617e-10
3.26608e-10
3.2648e-10
3.26454e-10
3.26369e-10
3.26356e-10
3.26304e-10
3.26301e-10
3.26268e-10
3.26271e-10
3.26251e-10
3.26257e-10
3.26244e-10
3.26248e-10
3.2624e-10
3.26243e-10
3.26238e-10
3.2624e-10
3.26238e-10
3.26239e-10
3.2624e-10
3.26238e-10
3.26243e-10
3.2624e-10
3.26248e-10
3.26244e-10
3.26256e-10
3.26251e-10
3.26271e-10
3.26268e-10
3.26301e-10
3.26304e-10
3.26356e-10
3.26369e-10
3.26453e-10
3.2648e-10
3.26608e-10
3.26616e-10
3.26708e-10
3.26446e-10
3.25951e-10
3.24703e-10
3.22278e-10
3.19536e-10
3.08933e-10
3.11582e-10
3.13875e-10
3.15053e-10
3.15514e-10
3.15758e-10
3.15662e-10
3.15648e-10
3.15521e-10
3.15492e-10
3.15408e-10
3.15394e-10
3.15342e-10
3.15338e-10
3.15307e-10
3.15309e-10
3.15289e-10
3.15294e-10
3.15282e-10
3.15286e-10
3.15278e-10
3.15281e-10
3.15276e-10
3.15277e-10
3.15276e-10
3.15276e-10
3.15277e-10
3.15276e-10
3.15281e-10
3.15278e-10
3.15286e-10
3.15282e-10
3.15294e-10
3.15289e-10
3.15309e-10
3.15307e-10
3.15338e-10
3.15342e-10
3.15394e-10
3.15408e-10
3.15492e-10
3.15521e-10
3.15648e-10
3.15662e-10
3.15757e-10
3.15513e-10
3.15052e-10
3.13874e-10
3.11582e-10
3.08932e-10
2.98716e-10
3.01272e-10
3.03437e-10
3.04548e-10
3.04975e-10
3.052e-10
3.05101e-10
3.05082e-10
3.04956e-10
3.04924e-10
3.04842e-10
3.04826e-10
3.04775e-10
3.0477e-10
3.04739e-10
3.0474e-10
3.04721e-10
3.04726e-10
3.04714e-10
3.04718e-10
3.0471e-10
3.04712e-10
3.04708e-10
3.04709e-10
3.04708e-10
3.04708e-10
3.04709e-10
3.04708e-10
3.04712e-10
3.0471e-10
3.04718e-10
3.04714e-10
3.04726e-10
3.04721e-10
3.0474e-10
3.04739e-10
3.0477e-10
3.04775e-10
3.04826e-10
3.04842e-10
3.04924e-10
3.04955e-10
3.05081e-10
3.05101e-10
3.052e-10
3.04974e-10
3.04547e-10
3.03436e-10
3.01272e-10
2.98716e-10
2.88865e-10
2.91327e-10
2.93369e-10
2.94414e-10
2.94809e-10
2.95016e-10
2.94914e-10
2.94888e-10
2.94763e-10
2.9473e-10
2.94648e-10
2.94631e-10
2.94581e-10
2.94575e-10
2.94545e-10
2.94545e-10
2.94527e-10
2.94531e-10
2.94519e-10
2.94523e-10
2.94515e-10
2.94517e-10
2.94513e-10
2.94514e-10
2.94513e-10
2.94513e-10
2.94514e-10
2.94513e-10
2.94517e-10
2.94515e-10
2.94523e-10
2.94519e-10
2.94531e-10
2.94526e-10
2.94545e-10
2.94545e-10
2.94575e-10
2.94581e-10
2.94631e-10
2.94648e-10
2.94729e-10
2.94763e-10
2.94888e-10
2.94913e-10
2.95015e-10
2.94809e-10
2.94413e-10
2.93367e-10
2.91327e-10
2.88865e-10
2.79362e-10
2.81727e-10
2.8365e-10
2.84633e-10
2.84997e-10
2.85185e-10
2.8508e-10
2.85049e-10
2.84925e-10
2.84889e-10
2.84809e-10
2.8479e-10
2.84741e-10
2.84734e-10
2.84704e-10
2.84704e-10
2.84686e-10
2.8469e-10
2.84679e-10
2.84682e-10
2.84674e-10
2.84676e-10
2.84672e-10
2.84673e-10
2.84672e-10
2.84672e-10
2.84673e-10
2.84672e-10
2.84676e-10
2.84674e-10
2.84682e-10
2.84678e-10
2.8469e-10
2.84686e-10
2.84704e-10
2.84704e-10
2.84734e-10
2.84741e-10
2.8479e-10
2.84809e-10
2.84889e-10
2.84925e-10
2.85049e-10
2.85079e-10
2.85185e-10
2.84996e-10
2.84632e-10
2.83648e-10
2.81727e-10
2.79361e-10
2.70188e-10
2.72453e-10
2.74263e-10
2.75187e-10
2.7552e-10
2.75691e-10
2.75582e-10
2.75546e-10
2.75422e-10
2.75385e-10
2.75305e-10
2.75286e-10
2.75237e-10
2.75229e-10
2.752e-10
2.752e-10
2.75181e-10
2.75185e-10
2.75174e-10
2.75177e-10
2.7517e-10
2.75172e-10
2.75167e-10
2.75169e-10
2.75168e-10
2.75168e-10
2.75169e-10
2.75168e-10
2.75172e-10
2.7517e-10
2.75177e-10
2.75174e-10
2.75185e-10
2.75181e-10
2.752e-10
2.752e-10
2.75229e-10
2.75237e-10
2.75285e-10
2.75305e-10
2.75384e-10
2.75422e-10
2.75545e-10
2.75581e-10
2.7569e-10
2.75519e-10
2.75186e-10
2.7426e-10
2.72454e-10
2.70188e-10
2.61327e-10
2.63489e-10
2.65192e-10
2.66058e-10
2.66362e-10
2.66515e-10
2.66403e-10
2.66361e-10
2.66239e-10
2.66199e-10
2.66121e-10
2.661e-10
2.66052e-10
2.66044e-10
2.66015e-10
2.66014e-10
2.65997e-10
2.66e-10
2.65989e-10
2.65992e-10
2.65985e-10
2.65986e-10
2.65982e-10
2.65984e-10
2.65982e-10
2.65982e-10
2.65984e-10
2.65982e-10
2.65986e-10
2.65985e-10
2.65991e-10
2.65989e-10
2.65999e-10
2.65996e-10
2.66014e-10
2.66015e-10
2.66044e-10
2.66052e-10
2.661e-10
2.66121e-10
2.66199e-10
2.66239e-10
2.66361e-10
2.66402e-10
2.66514e-10
2.66361e-10
2.66057e-10
2.65189e-10
2.63491e-10
2.61327e-10
2.52763e-10
2.54821e-10
2.56421e-10
2.57233e-10
2.57506e-10
2.57643e-10
2.57528e-10
2.57481e-10
2.5736e-10
2.57318e-10
2.57241e-10
2.57219e-10
2.57172e-10
2.57163e-10
2.57134e-10
2.57133e-10
2.57116e-10
2.57118e-10
2.57108e-10
2.5711e-10
2.57104e-10
2.57105e-10
2.57101e-10
2.57102e-10
2.57101e-10
2.57101e-10
2.57102e-10
2.57101e-10
2.57105e-10
2.57103e-10
2.5711e-10
2.57108e-10
2.57118e-10
2.57116e-10
2.57133e-10
2.57134e-10
2.57163e-10
2.57171e-10
2.57219e-10
2.57241e-10
2.57318e-10
2.57359e-10
2.57481e-10
2.57527e-10
2.57643e-10
2.57506e-10
2.57232e-10
2.56417e-10
2.54824e-10
2.52762e-10
2.4448e-10
2.46435e-10
2.47935e-10
2.48696e-10
2.4894e-10
2.49061e-10
2.48942e-10
2.4889e-10
2.4877e-10
2.48727e-10
2.4865e-10
2.48627e-10
2.4858e-10
2.48571e-10
2.48543e-10
2.48541e-10
2.48524e-10
2.48527e-10
2.48516e-10
2.48519e-10
2.48512e-10
2.48514e-10
2.4851e-10
2.48511e-10
2.4851e-10
2.4851e-10
2.48511e-10
2.4851e-10
2.48514e-10
2.48512e-10
2.48519e-10
2.48516e-10
2.48526e-10
2.48524e-10
2.48541e-10
2.48543e-10
2.48571e-10
2.4858e-10
2.48627e-10
2.4865e-10
2.48726e-10
2.48769e-10
2.4889e-10
2.48942e-10
2.4906e-10
2.48939e-10
2.48695e-10
2.4793e-10
2.46438e-10
2.4448e-10
2.36464e-10
2.38316e-10
2.39722e-10
2.40433e-10
2.40648e-10
2.40754e-10
2.40632e-10
2.40575e-10
2.40455e-10
2.40411e-10
2.40335e-10
2.40311e-10
2.40265e-10
2.40255e-10
2.40228e-10
2.40226e-10
2.40209e-10
2.40211e-10
2.40201e-10
2.40203e-10
2.40196e-10
2.40198e-10
2.40194e-10
2.40195e-10
2.40194e-10
2.40194e-10
2.40195e-10
2.40194e-10
2.40198e-10
2.40196e-10
2.40203e-10
2.40201e-10
2.40211e-10
2.40209e-10
2.40226e-10
2.40228e-10
2.40255e-10
2.40265e-10
2.40311e-10
2.40335e-10
2.4041e-10
2.40455e-10
2.40575e-10
2.40631e-10
2.40753e-10
2.40648e-10
2.40431e-10
2.39716e-10
2.3832e-10
2.36464e-10
2.28703e-10
2.30452e-10
2.31768e-10
2.32431e-10
2.32619e-10
2.3271e-10
2.32585e-10
2.32523e-10
2.32404e-10
2.32358e-10
2.32283e-10
2.32259e-10
2.32213e-10
2.32203e-10
2.32175e-10
2.32173e-10
2.32156e-10
2.32158e-10
2.32148e-10
2.3215e-10
2.32144e-10
2.32145e-10
2.32142e-10
2.32143e-10
2.32142e-10
2.32142e-10
2.32143e-10
2.32142e-10
2.32145e-10
2.32144e-10
2.3215e-10
2.32148e-10
2.32158e-10
2.32156e-10
2.32173e-10
2.32175e-10
2.32203e-10
2.32213e-10
2.32258e-10
2.32283e-10
2.32357e-10
2.32403e-10
2.32522e-10
2.32584e-10
2.32709e-10
2.32618e-10
2.32429e-10
2.3176e-10
2.30458e-10
2.28703e-10
2.21183e-10
2.22833e-10
2.24061e-10
2.24678e-10
2.2484e-10
2.24916e-10
2.24788e-10
2.24721e-10
2.24603e-10
2.24555e-10
2.24482e-10
2.24457e-10
2.24412e-10
2.24401e-10
2.24374e-10
2.24371e-10
2.24355e-10
2.24356e-10
2.24347e-10
2.24348e-10
2.24342e-10
2.24344e-10
2.2434e-10
2.24341e-10
2.2434e-10
2.2434e-10
2.24341e-10
2.2434e-10
2.24344e-10
2.24342e-10
2.24348e-10
2.24346e-10
2.24356e-10
2.24355e-10
2.24371e-10
2.24374e-10
2.24401e-10
2.24412e-10
2.24456e-10
2.24481e-10
2.24555e-10
2.24603e-10
2.24721e-10
2.24787e-10
2.24916e-10
2.24839e-10
2.24676e-10
2.24052e-10
2.2284e-10
2.21184e-10
2.13893e-10
2.15444e-10
2.16592e-10
2.17162e-10
2.17299e-10
2.17362e-10
2.1723e-10
2.17159e-10
2.17041e-10
2.16992e-10
2.1692e-10
2.16894e-10
2.1685e-10
2.16838e-10
2.16812e-10
2.16809e-10
2.16793e-10
2.16794e-10
2.16784e-10
2.16786e-10
2.1678e-10
2.16781e-10
2.16778e-10
2.16779e-10
2.16778e-10
2.16778e-10
2.16779e-10
2.16778e-10
2.16781e-10
2.1678e-10
2.16786e-10
2.16784e-10
2.16794e-10
2.16793e-10
2.16809e-10
2.16812e-10
2.16838e-10
2.16849e-10
2.16894e-10
2.16919e-10
2.16992e-10
2.17041e-10
2.17158e-10
2.1723e-10
2.17361e-10
2.17299e-10
2.17161e-10
2.16581e-10
2.15453e-10
2.13893e-10
2.06821e-10
2.08279e-10
2.09347e-10
2.09873e-10
2.09986e-10
2.10035e-10
2.09901e-10
2.09824e-10
2.09708e-10
2.09658e-10
2.09586e-10
2.09559e-10
2.09516e-10
2.09504e-10
2.09478e-10
2.09475e-10
2.09459e-10
2.0946e-10
2.0945e-10
2.09452e-10
2.09446e-10
2.09447e-10
2.09444e-10
2.09445e-10
2.09444e-10
2.09444e-10
2.09445e-10
2.09444e-10
2.09447e-10
2.09446e-10
2.09452e-10
2.0945e-10
2.0946e-10
2.09459e-10
2.09474e-10
2.09478e-10
2.09504e-10
2.09516e-10
2.09559e-10
2.09586e-10
2.09657e-10
2.09707e-10
2.09824e-10
2.099e-10
2.10034e-10
2.09986e-10
2.09871e-10
2.09338e-10
2.08286e-10
2.06821e-10
1.99956e-10
2.01326e-10
2.02315e-10
2.02799e-10
2.0289e-10
2.02926e-10
2.02789e-10
2.02707e-10
2.02591e-10
2.0254e-10
2.0247e-10
2.02443e-10
2.024e-10
2.02388e-10
2.02362e-10
2.02358e-10
2.02343e-10
2.02343e-10
2.02334e-10
2.02336e-10
2.0233e-10
2.02331e-10
2.02328e-10
2.02328e-10
2.02327e-10
2.02327e-10
2.02328e-10
2.02328e-10
2.02331e-10
2.0233e-10
2.02335e-10
2.02334e-10
2.02343e-10
2.02343e-10
2.02358e-10
2.02362e-10
2.02387e-10
2.024e-10
2.02442e-10
2.02469e-10
2.0254e-10
2.02591e-10
2.02706e-10
2.02788e-10
2.02925e-10
2.02889e-10
2.02798e-10
2.02308e-10
2.01331e-10
1.99956e-10
1.93289e-10
1.94575e-10
1.95486e-10
1.95931e-10
1.96e-10
1.96023e-10
1.95884e-10
1.95797e-10
1.95683e-10
1.95631e-10
1.95561e-10
1.95533e-10
1.95491e-10
1.95479e-10
1.95453e-10
1.95449e-10
1.95434e-10
1.95435e-10
1.95426e-10
1.95427e-10
1.95421e-10
1.95422e-10
1.95419e-10
1.9542e-10
1.95419e-10
1.95419e-10
1.9542e-10
1.95419e-10
1.95422e-10
1.95421e-10
1.95427e-10
1.95426e-10
1.95435e-10
1.95434e-10
1.95449e-10
1.95453e-10
1.95478e-10
1.95491e-10
1.95533e-10
1.95561e-10
1.9563e-10
1.95682e-10
1.95797e-10
1.95884e-10
1.96023e-10
1.96e-10
1.9593e-10
1.9548e-10
1.94579e-10
1.93289e-10
1.86809e-10
1.88016e-10
1.88851e-10
1.89258e-10
1.89307e-10
1.89318e-10
1.89177e-10
1.89084e-10
1.88971e-10
1.88918e-10
1.8885e-10
1.88822e-10
1.8878e-10
1.88767e-10
1.88742e-10
1.88738e-10
1.88723e-10
1.88723e-10
1.88715e-10
1.88716e-10
1.8871e-10
1.88711e-10
1.88708e-10
1.88709e-10
1.88708e-10
1.88708e-10
1.88709e-10
1.88708e-10
1.88711e-10
1.8871e-10
1.88716e-10
1.88714e-10
1.88723e-10
1.88723e-10
1.88738e-10
1.88742e-10
1.88767e-10
1.8878e-10
1.88821e-10
1.88849e-10
1.88918e-10
1.8897e-10
1.89084e-10
1.89176e-10
1.89317e-10
1.89307e-10
1.89257e-10
1.88846e-10
1.88019e-10
1.86809e-10
1.80508e-10
1.81639e-10
1.82398e-10
1.8277e-10
1.828e-10
1.82799e-10
1.82656e-10
1.82558e-10
1.82446e-10
1.82393e-10
1.82325e-10
1.82297e-10
1.82256e-10
1.82243e-10
1.82218e-10
1.82214e-10
1.82199e-10
1.82199e-10
1.82191e-10
1.82192e-10
1.82186e-10
1.82187e-10
1.82184e-10
1.82185e-10
1.82184e-10
1.82184e-10
1.82185e-10
1.82184e-10
1.82187e-10
1.82186e-10
1.82191e-10
1.8219e-10
1.82199e-10
1.82199e-10
1.82214e-10
1.82218e-10
1.82243e-10
1.82256e-10
1.82296e-10
1.82325e-10
1.82392e-10
1.82446e-10
1.82558e-10
1.82656e-10
1.82798e-10
1.82799e-10
1.82769e-10
1.82394e-10
1.8164e-10
1.80508e-10
1.74583e-10
1.75649e-10
1.76336e-10
1.76679e-10
1.7669e-10
1.76679e-10
1.76534e-10
1.76431e-10
1.76319e-10
1.76265e-10
1.76199e-10
1.7617e-10
1.7613e-10
1.76116e-10
1.76092e-10
1.76088e-10
1.76073e-10
1.76073e-10
1.76065e-10
1.76065e-10
1.7606e-10
1.76061e-10
1.76058e-10
1.76059e-10
1.76058e-10
1.76058e-10
1.76059e-10
1.76058e-10
1.76061e-10
1.7606e-10
1.76065e-10
1.76064e-10
1.76073e-10
1.76073e-10
1.76087e-10
1.76092e-10
1.76116e-10
1.76129e-10
1.7617e-10
1.76198e-10
1.76265e-10
1.76319e-10
1.7643e-10
1.76533e-10
1.76678e-10
1.76689e-10
1.76677e-10
1.76333e-10
1.7565e-10
1.74582e-10
1.68782e-10
1.69796e-10
1.70391e-10
1.70691e-10
1.70667e-10
1.70635e-10
1.70478e-10
1.70362e-10
1.70246e-10
1.70189e-10
1.70121e-10
1.70091e-10
1.70049e-10
1.70035e-10
1.7001e-10
1.70005e-10
1.6999e-10
1.6999e-10
1.69981e-10
1.69982e-10
1.69976e-10
1.69977e-10
1.69974e-10
1.69975e-10
1.69974e-10
1.69974e-10
1.69975e-10
1.69974e-10
1.69977e-10
1.69976e-10
1.69982e-10
1.69981e-10
1.6999e-10
1.6999e-10
1.70005e-10
1.7001e-10
1.70035e-10
1.70049e-10
1.7009e-10
1.70121e-10
1.70189e-10
1.70246e-10
1.70361e-10
1.70478e-10
1.70635e-10
1.70666e-10
1.7069e-10
1.70388e-10
1.69797e-10
1.68782e-10
1.62992e-10
1.6394e-10
1.64464e-10
1.64735e-10
1.64693e-10
1.64652e-10
1.64493e-10
1.6437e-10
1.64256e-10
1.64198e-10
1.64131e-10
1.641e-10
1.6406e-10
1.64045e-10
1.64021e-10
1.64015e-10
1.64001e-10
1.64e-10
1.63992e-10
1.63992e-10
1.63987e-10
1.63988e-10
1.63985e-10
1.63985e-10
1.63984e-10
1.63984e-10
1.63985e-10
1.63985e-10
1.63988e-10
1.63987e-10
1.63992e-10
1.63992e-10
1.64e-10
1.64001e-10
1.64015e-10
1.64021e-10
1.64045e-10
1.6406e-10
1.641e-10
1.64131e-10
1.64198e-10
1.64255e-10
1.64369e-10
1.64492e-10
1.64651e-10
1.64693e-10
1.64734e-10
1.64462e-10
1.6394e-10
1.62991e-10
1.5735e-10
1.58235e-10
1.58694e-10
1.58935e-10
1.58877e-10
1.58826e-10
1.58666e-10
1.58536e-10
1.58423e-10
1.58365e-10
1.58299e-10
1.58268e-10
1.58228e-10
1.58213e-10
1.58189e-10
1.58184e-10
1.5817e-10
1.58169e-10
1.5816e-10
1.58161e-10
1.58156e-10
1.58156e-10
1.58154e-10
1.58154e-10
1.58153e-10
1.58153e-10
1.58154e-10
1.58153e-10
1.58156e-10
1.58156e-10
1.58161e-10
1.5816e-10
1.58168e-10
1.58169e-10
1.58184e-10
1.58189e-10
1.58213e-10
1.58228e-10
1.58268e-10
1.58299e-10
1.58365e-10
1.58423e-10
1.58535e-10
1.58666e-10
1.58825e-10
1.58877e-10
1.58934e-10
1.58692e-10
1.58235e-10
1.5735e-10
1.51851e-10
1.52674e-10
1.53071e-10
1.53284e-10
1.53211e-10
1.5315e-10
1.52989e-10
1.52851e-10
1.5274e-10
1.52682e-10
1.52617e-10
1.52586e-10
1.52547e-10
1.52531e-10
1.52508e-10
1.52502e-10
1.52488e-10
1.52487e-10
1.52479e-10
1.52479e-10
1.52474e-10
1.52475e-10
1.52472e-10
1.52472e-10
1.52472e-10
1.52472e-10
1.52472e-10
1.52472e-10
1.52475e-10
1.52474e-10
1.52479e-10
1.52479e-10
1.52487e-10
1.52488e-10
1.52502e-10
1.52508e-10
1.52531e-10
1.52546e-10
1.52585e-10
1.52616e-10
1.52681e-10
1.52739e-10
1.5285e-10
1.52989e-10
1.53149e-10
1.5321e-10
1.53282e-10
1.5307e-10
1.52673e-10
1.51851e-10
1.46486e-10
1.47248e-10
1.47587e-10
1.47771e-10
1.47684e-10
1.47615e-10
1.47454e-10
1.47306e-10
1.47198e-10
1.47139e-10
1.47076e-10
1.47044e-10
1.47006e-10
1.46991e-10
1.46968e-10
1.46961e-10
1.46948e-10
1.46946e-10
1.46938e-10
1.46939e-10
1.46934e-10
1.46934e-10
1.46932e-10
1.46932e-10
1.46931e-10
1.46931e-10
1.46932e-10
1.46932e-10
1.46934e-10
1.46934e-10
1.46938e-10
1.46938e-10
1.46946e-10
1.46948e-10
1.46961e-10
1.46967e-10
1.4699e-10
1.47006e-10
1.47044e-10
1.47075e-10
1.47139e-10
1.47197e-10
1.47306e-10
1.47454e-10
1.47614e-10
1.47684e-10
1.4777e-10
1.47586e-10
1.47247e-10
1.46485e-10
1.41419e-10
1.42129e-10
1.42415e-10
1.42574e-10
1.42472e-10
1.42395e-10
1.42234e-10
1.42076e-10
1.41969e-10
1.41911e-10
1.41848e-10
1.41817e-10
1.41779e-10
1.41764e-10
1.41741e-10
1.41735e-10
1.41722e-10
1.4172e-10
1.41712e-10
1.41712e-10
1.41708e-10
1.41708e-10
1.41705e-10
1.41706e-10
1.41705e-10
1.41705e-10
1.41706e-10
1.41705e-10
1.41708e-10
1.41707e-10
1.41712e-10
1.41712e-10
1.4172e-10
1.41721e-10
1.41735e-10
1.41741e-10
1.41764e-10
1.41779e-10
1.41817e-10
1.41848e-10
1.4191e-10
1.41969e-10
1.42075e-10
1.42233e-10
1.42394e-10
1.42471e-10
1.42572e-10
1.42413e-10
1.42128e-10
1.41418e-10
1.36479e-10
1.37138e-10
1.37374e-10
1.37508e-10
1.37393e-10
1.37308e-10
1.37149e-10
1.36976e-10
1.36863e-10
1.36801e-10
1.36736e-10
1.36702e-10
1.36663e-10
1.36646e-10
1.36622e-10
1.36615e-10
1.36601e-10
1.36599e-10
1.36591e-10
1.36591e-10
1.36586e-10
1.36586e-10
1.36584e-10
1.36584e-10
1.36583e-10
1.36583e-10
1.36584e-10
1.36584e-10
1.36586e-10
1.36586e-10
1.36591e-10
1.36591e-10
1.36599e-10
1.36601e-10
1.36615e-10
1.36622e-10
1.36646e-10
1.36663e-10
1.36702e-10
1.36735e-10
1.36801e-10
1.36863e-10
1.36975e-10
1.37148e-10
1.37308e-10
1.37392e-10
1.37507e-10
1.37373e-10
1.37137e-10
1.36478e-10
1.3152e-10
1.3213e-10
1.32315e-10
1.32421e-10
1.32287e-10
1.32193e-10
1.32032e-10
1.31841e-10
1.31729e-10
1.31666e-10
1.31601e-10
1.31567e-10
1.31527e-10
1.3151e-10
1.31486e-10
1.31479e-10
1.31465e-10
1.31463e-10
1.31455e-10
1.31455e-10
1.3145e-10
1.3145e-10
1.31448e-10
1.31448e-10
1.31447e-10
1.31447e-10
1.31448e-10
1.31448e-10
1.3145e-10
1.3145e-10
1.31455e-10
1.31455e-10
1.31463e-10
1.31465e-10
1.31479e-10
1.31486e-10
1.3151e-10
1.31527e-10
1.31566e-10
1.316e-10
1.31665e-10
1.31729e-10
1.3184e-10
1.32031e-10
1.32192e-10
1.32287e-10
1.3242e-10
1.32314e-10
1.3213e-10
1.31519e-10
1.26651e-10
1.27208e-10
1.27349e-10
1.2743e-10
1.27285e-10
1.27184e-10
1.27027e-10
1.26981e-10
1.26873e-10
1.26809e-10
1.26745e-10
1.26711e-10
1.26672e-10
1.26655e-10
1.26631e-10
1.26624e-10
1.2661e-10
1.26608e-10
1.266e-10
1.266e-10
1.26595e-10
1.26595e-10
1.26593e-10
1.26593e-10
1.26592e-10
1.26592e-10
1.26593e-10
1.26593e-10
1.26595e-10
1.26595e-10
1.26599e-10
1.266e-10
1.26608e-10
1.2661e-10
1.26624e-10
1.26631e-10
1.26654e-10
1.26672e-10
1.2671e-10
1.26744e-10
1.26809e-10
1.26872e-10
1.26981e-10
1.27026e-10
1.27184e-10
1.27284e-10
1.27429e-10
1.27348e-10
1.27208e-10
1.26651e-10
1.22042e-10
1.22552e-10
1.22651e-10
1.2271e-10
1.22553e-10
1.22447e-10
1.22292e-10
1.22238e-10
1.22131e-10
1.22068e-10
1.22005e-10
1.21971e-10
1.21932e-10
1.21915e-10
1.21892e-10
1.21885e-10
1.21871e-10
1.21869e-10
1.21861e-10
1.2186e-10
1.21856e-10
1.21856e-10
1.21854e-10
1.21854e-10
1.21853e-10
1.21853e-10
1.21854e-10
1.21854e-10
1.21856e-10
1.21856e-10
1.2186e-10
1.21861e-10
1.21869e-10
1.21871e-10
1.21884e-10
1.21892e-10
1.21915e-10
1.21932e-10
1.2197e-10
1.22005e-10
1.22068e-10
1.22131e-10
1.22237e-10
1.22292e-10
1.22447e-10
1.22553e-10
1.22709e-10
1.2265e-10
1.22551e-10
1.22041e-10
1.17512e-10
1.17993e-10
1.18044e-10
1.18076e-10
1.17889e-10
1.17772e-10
1.17611e-10
1.17544e-10
1.17436e-10
1.17371e-10
1.17306e-10
1.17271e-10
1.17232e-10
1.17214e-10
1.17191e-10
1.17183e-10
1.17169e-10
1.17166e-10
1.17158e-10
1.17158e-10
1.17153e-10
1.17153e-10
1.17151e-10
1.17151e-10
1.1715e-10
1.1715e-10
1.17151e-10
1.17151e-10
1.17153e-10
1.17153e-10
1.17157e-10
1.17158e-10
1.17166e-10
1.17169e-10
1.17182e-10
1.1719e-10
1.17214e-10
1.17232e-10
1.17271e-10
1.17306e-10
1.17371e-10
1.17436e-10
1.17544e-10
1.17611e-10
1.17772e-10
1.1789e-10
1.18074e-10
1.18043e-10
1.17992e-10
1.17511e-10
1.13104e-10
1.13542e-10
1.13556e-10
1.13568e-10
1.13371e-10
1.13249e-10
1.13089e-10
1.13016e-10
1.12909e-10
1.12844e-10
1.12781e-10
1.12745e-10
1.12707e-10
1.12689e-10
1.12666e-10
1.12657e-10
1.12644e-10
1.12641e-10
1.12633e-10
1.12632e-10
1.12628e-10
1.12628e-10
1.12626e-10
1.12626e-10
1.12625e-10
1.12625e-10
1.12626e-10
1.12625e-10
1.12628e-10
1.12628e-10
1.12632e-10
1.12633e-10
1.12641e-10
1.12644e-10
1.12657e-10
1.12666e-10
1.12689e-10
1.12707e-10
1.12745e-10
1.1278e-10
1.12844e-10
1.12909e-10
1.13015e-10
1.13088e-10
1.13248e-10
1.13371e-10
1.13567e-10
1.13555e-10
1.13542e-10
1.13104e-10
1.08792e-10
1.0919e-10
1.09169e-10
1.09161e-10
1.08953e-10
1.08827e-10
1.08668e-10
1.08589e-10
1.08484e-10
1.0842e-10
1.08357e-10
1.08322e-10
1.08284e-10
1.08266e-10
1.08243e-10
1.08235e-10
1.08221e-10
1.08218e-10
1.0821e-10
1.0821e-10
1.08205e-10
1.08205e-10
1.08203e-10
1.08203e-10
1.08202e-10
1.08202e-10
1.08203e-10
1.08203e-10
1.08205e-10
1.08205e-10
1.0821e-10
1.0821e-10
1.08218e-10
1.08221e-10
1.08235e-10
1.08243e-10
1.08266e-10
1.08284e-10
1.08322e-10
1.08357e-10
1.08419e-10
1.08484e-10
1.08589e-10
1.08667e-10
1.08826e-10
1.08953e-10
1.0916e-10
1.09168e-10
1.09189e-10
1.08792e-10
1.03886e-10
1.03886e-10
1.03881e-10
1.03881e-10
1.03879e-10
1.03879e-10
1.03878e-10
1.03878e-10
1.03879e-10
1.03879e-10
1.03881e-10
1.03881e-10
1.03886e-10
1.03886e-10
1.03894e-10
1.03897e-10
1.03911e-10
1.03919e-10
1.03942e-10
1.0396e-10
1.03997e-10
1.04032e-10
1.04093e-10
1.04158e-10
1.04261e-10
1.04344e-10
1.04502e-10
1.04633e-10
1.0485e-10
1.04876e-10
1.0493e-10
1.04572e-10
9.96527e-11
9.96526e-11
9.96571e-11
9.96579e-11
9.96657e-11
9.96688e-11
9.96822e-11
9.96907e-11
9.97132e-11
9.97312e-11
9.97679e-11
9.98026e-11
9.9863e-11
9.99273e-11
1.00028e-10
1.00116e-10
1.00273e-10
1.00409e-10
1.00634e-10
1.00678e-10
1.00762e-10
1.00441e-10
9.57251e-11
9.57889e-11
9.58885e-11
9.59791e-11
9.61359e-11
9.62747e-11
9.65088e-11
9.65693e-11
9.66814e-11
9.63969e-11
)
;

boundaryField
{
    fuel
    {
        type            fixedValue;
        value           nonuniform 0();
    }
    wall
    {
        type            zeroGradient;
    }
    outlet
    {
        type            zeroGradient;
    }
    frontAndBack
    {
        type            empty;
    }
    procBoundary0to1
    {
        type            processor;
        value           nonuniform List<scalar> 
50
(
4.2152e-10
4.2515e-10
4.28729e-10
4.30622e-10
4.31402e-10
4.31825e-10
4.31754e-10
4.31796e-10
4.31654e-10
4.31653e-10
4.31558e-10
4.31561e-10
4.315e-10
4.31507e-10
4.31469e-10
4.31478e-10
4.31454e-10
4.31464e-10
4.3145e-10
4.31456e-10
4.31447e-10
4.3145e-10
4.31444e-10
4.31447e-10
4.31445e-10
4.31445e-10
4.31447e-10
4.31444e-10
4.3145e-10
4.31447e-10
4.31456e-10
4.31449e-10
4.31464e-10
4.31454e-10
4.31478e-10
4.31469e-10
4.31507e-10
4.315e-10
4.31561e-10
4.31558e-10
4.31653e-10
4.31654e-10
4.31795e-10
4.31753e-10
4.31824e-10
4.31401e-10
4.30622e-10
4.28729e-10
4.2515e-10
4.2152e-10
)
;
    }
    procBoundary0to2
    {
        type            processor;
        value           nonuniform List<scalar> 
53
(
1.04572e-10
1.0493e-10
1.04877e-10
1.04851e-10
1.04633e-10
1.04503e-10
1.04344e-10
1.04261e-10
1.04158e-10
1.04094e-10
1.04032e-10
1.03997e-10
1.0396e-10
1.03942e-10
1.03919e-10
1.03911e-10
1.03897e-10
1.03894e-10
1.03894e-10
9.9658e-11
9.96572e-11
9.96527e-11
9.96528e-11
9.96504e-11
9.96506e-11
9.96498e-11
9.96498e-11
9.96506e-11
9.96504e-11
9.96504e-11
9.5517e-11
9.5517e-11
9.55215e-11
9.55224e-11
9.55301e-11
9.55333e-11
9.55465e-11
9.55551e-11
9.55773e-11
9.55953e-11
9.56313e-11
9.56657e-11
9.56657e-11
9.16773e-11
9.17406e-11
9.18386e-11
9.1932e-11
9.2088e-11
9.22293e-11
9.24724e-11
9.25477e-11
9.26861e-11
9.24361e-11
)
;
    }
}


// ************************************************************************* //
