/*--------------------------------*- C++ -*----------------------------------*\
| =========                 |                                                 |
| \\      /  F ield         | OpenFOAM: The Open Source CFD Toolbox           |
|  \\    /   O peration     | Version:  dev                                   |
|   \\  /    A nd           | Web:      www.OpenFOAM.org                      |
|    \\/     M anipulation  |                                                 |
\*---------------------------------------------------------------------------*/
FoamFile
{
    version     2.0;
    format      ascii;
    class       volScalarField;
    location    "0.06";
    object      CH2O;
}
// * * * * * * * * * * * * * * * * * * * * * * * * * * * * * * * * * * * * * //

dimensions      [0 0 0 0 0 0 0];

internalField   nonuniform List<scalar> 
250
(
2.38767e-06
2.39207e-06
2.38774e-06
2.39347e-06
2.39349e-06
2.40027e-06
2.3964e-06
2.34338e-06
1.98845e-06
2.09908e-06
2.25517e-06
2.25993e-06
2.25528e-06
2.26151e-06
2.26149e-06
2.26901e-06
2.26469e-06
2.22543e-06
1.89655e-06
1.81486e-06
1.21066e-06
1.78211e-06
2.08932e-06
2.16182e-06
2.13256e-06
2.12935e-06
2.1256e-06
2.11774e-06
2.12362e-06
2.11663e-06
2.11621e-06
2.12135e-06
2.11636e-06
2.12309e-06
2.12301e-06
2.13123e-06
2.12922e-06
2.10075e-06
1.80049e-06
1.62126e-06
1.16926e-06
1.7033e-06
1.95913e-06
2.01964e-06
1.98781e-06
1.98439e-06
1.98053e-06
1.97221e-06
1.97851e-06
1.97093e-06
1.97053e-06
1.97605e-06
1.97072e-06
1.97794e-06
1.97777e-06
1.98662e-06
1.98675e-06
1.96886e-06
1.69789e-06
1.46847e-06
1.13575e-06
1.609e-06
1.82083e-06
1.87021e-06
1.83625e-06
1.83266e-06
1.82875e-06
1.82004e-06
1.82674e-06
1.8186e-06
1.81825e-06
1.82413e-06
1.81846e-06
1.82615e-06
1.82586e-06
1.83525e-06
1.8373e-06
1.82958e-06
1.58668e-06
1.34496e-06
1.10163e-06
1.51249e-06
1.67474e-06
1.71402e-06
1.67848e-06
1.67478e-06
1.67089e-06
1.66187e-06
1.66893e-06
1.6603e-06
1.66001e-06
1.66621e-06
1.66023e-06
1.66832e-06
1.66787e-06
1.67773e-06
1.68147e-06
1.68319e-06
1.47708e-06
1.24135e-06
1.0602e-06
1.4017e-06
1.52185e-06
1.55227e-06
1.51582e-06
1.51202e-06
1.50824e-06
1.49903e-06
1.50638e-06
1.49739e-06
1.49715e-06
1.5036e-06
1.49737e-06
1.50575e-06
1.50512e-06
1.51535e-06
1.52069e-06
1.53059e-06
1.35262e-06
1.13652e-06
1.00717e-06
1.28154e-06
1.36398e-06
1.38369e-06
1.35046e-06
1.34651e-06
1.34291e-06
1.3337e-06
1.34121e-06
1.33205e-06
1.33184e-06
1.33845e-06
1.33204e-06
1.34058e-06
1.33975e-06
1.3503e-06
1.35049e-06
1.37353e-06
1.22715e-06
1.04551e-06
9.4052e-07
1.15207e-06
1.20406e-06
1.21588e-06
1.17406e-06
1.17081e-06
1.16753e-06
1.15843e-06
1.16585e-06
1.15647e-06
1.15644e-06
1.16306e-06
1.15681e-06
1.16528e-06
1.16433e-06
1.17381e-06
1.18441e-06
1.21507e-06
1.09631e-06
9.46344e-07
8.60486e-07
1.01625e-06
1.03597e-06
1.04977e-06
1.0102e-06
1.00697e-06
1.00403e-06
9.9534e-07
1.00258e-06
9.93454e-07
9.93454e-07
9.99925e-07
9.93806e-07
1.00201e-06
1.0009e-06
1.01015e-06
1.0205e-06
1.0417e-06
9.55698e-07
8.49886e-07
7.69393e-07
8.78413e-07
8.80347e-07
8.89271e-07
8.52848e-07
8.49831e-07
8.47278e-07
8.39201e-07
8.46071e-07
8.37435e-07
8.37461e-07
8.43614e-07
8.37777e-07
8.45516e-07
8.44295e-07
8.52982e-07
8.62698e-07
8.86654e-07
8.21872e-07
7.50178e-07
6.71171e-07
7.42998e-07
7.3284e-07
7.38308e-07
7.05775e-07
7.03087e-07
7.0094e-07
6.93653e-07
6.99982e-07
6.92051e-07
6.92096e-07
6.97775e-07
6.92368e-07
6.99447e-07
6.98172e-07
7.06054e-07
7.14821e-07
7.39488e-07
6.92326e-07
6.49136e-07
5.70721e-07
6.14541e-07
5.97264e-07
6.00458e-07
5.72314e-07
5.70019e-07
5.68265e-07
5.61897e-07
5.67542e-07
5.60493e-07
5.60553e-07
5.65625e-07
5.60776e-07
5.6704e-07
5.65782e-07
5.72686e-07
5.80312e-07
6.03896e-07
5.7085e-07
5.49568e-07
4.45198e-07
4.49569e-07
4.4537e-07
4.50719e-07
4.49557e-07
4.55378e-07
4.61776e-07
4.82947e-07
4.60805e-07
4.54726e-07
)
;

boundaryField
{
    fuel
    {
        type            fixedValue;
        value           nonuniform 0();
    }
    wall
    {
        type            zeroGradient;
    }
    outlet
    {
        type            zeroGradient;
    }
    frontAndBack
    {
        type            empty;
    }
    procBoundary0to1
    {
        type            processor;
        value           nonuniform List<scalar> 
21
(
4.72913e-07
4.96908e-07
4.76718e-07
4.78469e-07
4.54971e-07
4.5309e-07
4.51692e-07
4.46315e-07
4.51178e-07
4.45134e-07
4.45134e-07
3.4736e-07
3.50979e-07
3.47471e-07
3.51873e-07
3.50877e-07
3.55608e-07
3.60728e-07
3.78775e-07
3.64575e-07
3.67905e-07
)
;
    }
    procBoundary0to2
    {
        type            processor;
        value           nonuniform List<scalar> 
12
(
2.38832e-06
1.27344e-06
1.84515e-06
2.21164e-06
2.29672e-06
2.27046e-06
2.26754e-06
2.26396e-06
2.2566e-06
2.26205e-06
2.25568e-06
2.25568e-06
)
;
    }
    procBoundary0to3
    {
        type            processor;
        value           nonuniform List<scalar> 10(2.51429e-06 2.51836e-06 2.51433e-06 2.51959e-06 2.51961e-06 2.52566e-06 2.51911e-06 2.46486e-06 2.07852e-06 2.4476e-06);
    }
}


// ************************************************************************* //
