/*--------------------------------*- C++ -*----------------------------------*\
| =========                 |                                                 |
| \\      /  F ield         | OpenFOAM: The Open Source CFD Toolbox           |
|  \\    /   O peration     | Version:  dev                                   |
|   \\  /    A nd           | Web:      www.OpenFOAM.org                      |
|    \\/     M anipulation  |                                                 |
\*---------------------------------------------------------------------------*/
FoamFile
{
    version     2.0;
    format      ascii;
    class       volScalarField;
    location    "0.06";
    object      CO;
}
// * * * * * * * * * * * * * * * * * * * * * * * * * * * * * * * * * * * * * //

dimensions      [0 0 0 0 0 0 0];

internalField   nonuniform List<scalar> 
2014
(
0.174804
0.174752
0.174704
0.174679
0.17467
0.174665
0.174666
0.174665
0.174667
0.174667
0.174668
0.174668
0.174669
0.174669
0.174669
0.174669
0.174669
0.174669
0.174669
0.174669
0.174669
0.174669
0.174669
0.174669
0.174669
0.174669
0.174669
0.174669
0.174669
0.174669
0.174669
0.174669
0.174669
0.174669
0.174669
0.174669
0.174669
0.174669
0.174668
0.174668
0.174667
0.174667
0.174666
0.174666
0.174665
0.17467
0.174679
0.174704
0.174752
0.174804
0.175046
0.174994
0.174946
0.174922
0.174913
0.174908
0.174909
0.174908
0.17491
0.17491
0.174911
0.174911
0.174912
0.174912
0.174912
0.174912
0.174912
0.174912
0.174912
0.174912
0.174912
0.174912
0.174912
0.174912
0.174912
0.174912
0.174912
0.174912
0.174912
0.174912
0.174912
0.174912
0.174912
0.174912
0.174912
0.174912
0.174912
0.174912
0.174911
0.174911
0.17491
0.17491
0.174908
0.174909
0.174908
0.174913
0.174922
0.174946
0.174994
0.175046
0.175284
0.175233
0.175185
0.175162
0.175152
0.175147
0.175149
0.175148
0.17515
0.17515
0.175151
0.175151
0.175151
0.175151
0.175152
0.175151
0.175152
0.175151
0.175152
0.175152
0.175152
0.175152
0.175152
0.175152
0.175152
0.175152
0.175152
0.175152
0.175152
0.175152
0.175152
0.175152
0.175151
0.175152
0.175151
0.175152
0.175151
0.175151
0.175151
0.175151
0.17515
0.17515
0.175148
0.175149
0.175147
0.175153
0.175162
0.175185
0.175233
0.175284
0.175519
0.175467
0.175421
0.175397
0.175388
0.175383
0.175385
0.175384
0.175386
0.175386
0.175387
0.175387
0.175387
0.175387
0.175388
0.175387
0.175388
0.175387
0.175388
0.175388
0.175388
0.175388
0.175388
0.175388
0.175388
0.175388
0.175388
0.175388
0.175388
0.175388
0.175388
0.175388
0.175387
0.175388
0.175387
0.175388
0.175387
0.175387
0.175387
0.175387
0.175386
0.175386
0.175384
0.175385
0.175383
0.175388
0.175397
0.175421
0.175467
0.175519
0.17575
0.175698
0.175652
0.175629
0.175621
0.175615
0.175617
0.175616
0.175618
0.175618
0.175619
0.175619
0.17562
0.175619
0.17562
0.17562
0.17562
0.17562
0.17562
0.17562
0.17562
0.17562
0.17562
0.17562
0.17562
0.17562
0.17562
0.17562
0.17562
0.17562
0.17562
0.17562
0.17562
0.17562
0.17562
0.17562
0.175619
0.17562
0.175619
0.175619
0.175618
0.175618
0.175616
0.175617
0.175615
0.175621
0.175629
0.175652
0.175698
0.17575
0.175977
0.175925
0.17588
0.175858
0.175849
0.175844
0.175846
0.175845
0.175847
0.175847
0.175848
0.175848
0.175848
0.175848
0.175849
0.175848
0.175849
0.175848
0.175849
0.175849
0.175849
0.175849
0.175849
0.175849
0.175849
0.175849
0.175849
0.175849
0.175849
0.175849
0.175849
0.175849
0.175848
0.175849
0.175848
0.175849
0.175848
0.175848
0.175848
0.175848
0.175847
0.175847
0.175845
0.175846
0.175844
0.175849
0.175858
0.17588
0.175925
0.175977
0.1762
0.176149
0.176104
0.176082
0.176074
0.176069
0.17607
0.17607
0.176072
0.176072
0.176073
0.176073
0.176073
0.176073
0.176073
0.176073
0.176074
0.176073
0.176074
0.176073
0.176074
0.176073
0.176074
0.176074
0.176074
0.176074
0.176074
0.176074
0.176073
0.176074
0.176073
0.176074
0.176073
0.176074
0.176073
0.176073
0.176073
0.176073
0.176073
0.176073
0.176072
0.176072
0.17607
0.17607
0.176069
0.176074
0.176082
0.176104
0.176149
0.1762
0.176419
0.176368
0.176325
0.176303
0.176295
0.17629
0.176291
0.176291
0.176293
0.176293
0.176294
0.176294
0.176294
0.176294
0.176295
0.176294
0.176295
0.176294
0.176295
0.176295
0.176295
0.176295
0.176295
0.176295
0.176295
0.176295
0.176295
0.176295
0.176295
0.176295
0.176295
0.176295
0.176294
0.176295
0.176294
0.176295
0.176294
0.176294
0.176294
0.176294
0.176293
0.176293
0.176291
0.176291
0.17629
0.176295
0.176303
0.176325
0.176368
0.176419
0.176634
0.176583
0.176541
0.17652
0.176512
0.176507
0.176509
0.176508
0.17651
0.17651
0.176511
0.176511
0.176512
0.176511
0.176512
0.176512
0.176512
0.176512
0.176512
0.176512
0.176512
0.176512
0.176512
0.176512
0.176512
0.176512
0.176512
0.176512
0.176512
0.176512
0.176512
0.176512
0.176512
0.176512
0.176512
0.176512
0.176511
0.176512
0.176511
0.176511
0.17651
0.17651
0.176508
0.176509
0.176507
0.176512
0.17652
0.176541
0.176583
0.176634
0.176845
0.176795
0.176753
0.176733
0.176725
0.17672
0.176722
0.176721
0.176723
0.176723
0.176724
0.176724
0.176725
0.176725
0.176725
0.176725
0.176725
0.176725
0.176725
0.176725
0.176725
0.176725
0.176725
0.176725
0.176725
0.176725
0.176725
0.176725
0.176725
0.176725
0.176725
0.176725
0.176725
0.176725
0.176725
0.176725
0.176725
0.176725
0.176724
0.176724
0.176723
0.176723
0.176721
0.176722
0.17672
0.176725
0.176733
0.176753
0.176795
0.176845
0.177052
0.177002
0.176962
0.176942
0.176934
0.17693
0.176931
0.176931
0.176932
0.176932
0.176933
0.176933
0.176934
0.176934
0.176934
0.176934
0.176934
0.176934
0.176934
0.176934
0.176934
0.176934
0.176934
0.176934
0.176934
0.176934
0.176934
0.176934
0.176934
0.176934
0.176934
0.176934
0.176934
0.176934
0.176934
0.176934
0.176934
0.176934
0.176933
0.176933
0.176932
0.176932
0.176931
0.176931
0.17693
0.176934
0.176942
0.176962
0.177002
0.177052
0.177255
0.177205
0.177166
0.177147
0.177139
0.177135
0.177136
0.177136
0.177138
0.177138
0.177139
0.177139
0.177139
0.177139
0.177139
0.177139
0.17714
0.177139
0.17714
0.177139
0.17714
0.177139
0.17714
0.177139
0.177139
0.177139
0.177139
0.17714
0.177139
0.17714
0.177139
0.17714
0.177139
0.17714
0.177139
0.177139
0.177139
0.177139
0.177139
0.177139
0.177138
0.177138
0.177136
0.177136
0.177135
0.177139
0.177147
0.177166
0.177205
0.177255
0.177453
0.177404
0.177366
0.177347
0.17734
0.177336
0.177337
0.177337
0.177339
0.177339
0.17734
0.17734
0.17734
0.17734
0.17734
0.17734
0.177341
0.17734
0.177341
0.17734
0.177341
0.17734
0.177341
0.17734
0.177341
0.177341
0.17734
0.177341
0.17734
0.177341
0.17734
0.177341
0.17734
0.177341
0.17734
0.17734
0.17734
0.17734
0.17734
0.17734
0.177339
0.177339
0.177337
0.177337
0.177336
0.17734
0.177347
0.177366
0.177404
0.177453
0.177647
0.177599
0.177562
0.177544
0.177537
0.177533
0.177534
0.177534
0.177535
0.177535
0.177537
0.177536
0.177537
0.177537
0.177537
0.177537
0.177537
0.177537
0.177537
0.177537
0.177537
0.177537
0.177537
0.177537
0.177537
0.177537
0.177537
0.177537
0.177537
0.177537
0.177537
0.177537
0.177537
0.177537
0.177537
0.177537
0.177537
0.177537
0.177536
0.177537
0.177535
0.177536
0.177534
0.177534
0.177533
0.177537
0.177544
0.177562
0.177599
0.177647
0.177837
0.17779
0.177754
0.177736
0.177729
0.177725
0.177727
0.177726
0.177728
0.177728
0.177729
0.177729
0.17773
0.177729
0.17773
0.17773
0.17773
0.17773
0.17773
0.17773
0.17773
0.17773
0.17773
0.17773
0.17773
0.17773
0.17773
0.17773
0.17773
0.17773
0.17773
0.17773
0.17773
0.17773
0.17773
0.17773
0.177729
0.17773
0.177729
0.177729
0.177728
0.177728
0.177726
0.177727
0.177725
0.177729
0.177736
0.177754
0.17779
0.177837
0.178022
0.177976
0.177941
0.177924
0.177918
0.177914
0.177915
0.177915
0.177916
0.177916
0.177917
0.177917
0.177918
0.177918
0.177918
0.177918
0.177918
0.177918
0.177918
0.177918
0.177918
0.177918
0.177918
0.177918
0.177918
0.177918
0.177918
0.177918
0.177918
0.177918
0.177918
0.177918
0.177918
0.177918
0.177918
0.177918
0.177918
0.177918
0.177917
0.177917
0.177916
0.177916
0.177915
0.177915
0.177914
0.177918
0.177924
0.177942
0.177976
0.178022
0.178203
0.178159
0.178125
0.178108
0.178101
0.178098
0.178099
0.178099
0.1781
0.1781
0.178101
0.178101
0.178102
0.178102
0.178102
0.178102
0.178102
0.178102
0.178102
0.178102
0.178102
0.178102
0.178102
0.178102
0.178102
0.178102
0.178102
0.178102
0.178102
0.178102
0.178102
0.178102
0.178102
0.178102
0.178102
0.178102
0.178102
0.178102
0.178101
0.178101
0.1781
0.1781
0.178099
0.178099
0.178098
0.178101
0.178108
0.178125
0.178158
0.178203
0.178379
0.178336
0.178303
0.178287
0.178281
0.178277
0.178278
0.178278
0.17828
0.17828
0.178281
0.17828
0.178281
0.178281
0.178281
0.178281
0.178281
0.178281
0.178281
0.178281
0.178281
0.178281
0.178281
0.178281
0.178281
0.178281
0.178281
0.178281
0.178281
0.178281
0.178281
0.178281
0.178281
0.178281
0.178281
0.178281
0.178281
0.178281
0.17828
0.178281
0.17828
0.17828
0.178278
0.178278
0.178277
0.178281
0.178287
0.178303
0.178336
0.178379
0.178551
0.17851
0.178477
0.178461
0.178456
0.178452
0.178453
0.178453
0.178455
0.178455
0.178455
0.178455
0.178456
0.178456
0.178456
0.178456
0.178456
0.178456
0.178456
0.178456
0.178456
0.178456
0.178456
0.178456
0.178456
0.178456
0.178456
0.178456
0.178456
0.178456
0.178456
0.178456
0.178456
0.178456
0.178456
0.178456
0.178456
0.178456
0.178455
0.178455
0.178455
0.178455
0.178453
0.178453
0.178452
0.178456
0.178461
0.178478
0.178509
0.178551
0.178719
0.178678
0.178647
0.178631
0.178626
0.178622
0.178624
0.178624
0.178625
0.178625
0.178626
0.178626
0.178626
0.178626
0.178626
0.178626
0.178626
0.178626
0.178626
0.178626
0.178626
0.178626
0.178626
0.178626
0.178626
0.178626
0.178626
0.178626
0.178626
0.178626
0.178626
0.178626
0.178626
0.178626
0.178626
0.178626
0.178626
0.178626
0.178626
0.178626
0.178625
0.178625
0.178624
0.178624
0.178622
0.178626
0.178631
0.178647
0.178678
0.178719
0.178881
0.178842
0.178812
0.178797
0.178792
0.178788
0.178789
0.178789
0.178791
0.178791
0.178791
0.178791
0.178792
0.178792
0.178792
0.178792
0.178792
0.178792
0.178792
0.178792
0.178792
0.178792
0.178792
0.178792
0.178792
0.178792
0.178792
0.178792
0.178792
0.178792
0.178792
0.178792
0.178792
0.178792
0.178792
0.178792
0.178792
0.178792
0.178791
0.178791
0.178791
0.178791
0.178789
0.178789
0.178788
0.178792
0.178797
0.178812
0.178842
0.178881
0.179039
0.179002
0.178972
0.178958
0.178953
0.178949
0.17895
0.17895
0.178952
0.178952
0.178952
0.178952
0.178953
0.178953
0.178953
0.178953
0.178953
0.178953
0.178953
0.178953
0.178953
0.178953
0.178953
0.178953
0.178953
0.178953
0.178953
0.178953
0.178953
0.178953
0.178953
0.178953
0.178953
0.178953
0.178953
0.178953
0.178953
0.178953
0.178952
0.178952
0.178952
0.178952
0.17895
0.17895
0.178949
0.178953
0.178958
0.178972
0.179002
0.179039
0.179193
0.179157
0.179128
0.179114
0.179109
0.179106
0.179107
0.179107
0.179108
0.179108
0.179109
0.179108
0.179109
0.179109
0.179109
0.179109
0.179109
0.179109
0.179109
0.179109
0.179109
0.179109
0.179109
0.179109
0.179109
0.179109
0.179109
0.179109
0.179109
0.179109
0.179109
0.179109
0.179109
0.179109
0.179109
0.179109
0.179109
0.179109
0.179108
0.179109
0.179108
0.179108
0.179107
0.179107
0.179106
0.179109
0.179114
0.179128
0.179156
0.179193
0.179341
0.179306
0.179279
0.179265
0.17926
0.179257
0.179258
0.179258
0.179259
0.179259
0.17926
0.17926
0.17926
0.17926
0.17926
0.17926
0.17926
0.17926
0.17926
0.17926
0.17926
0.17926
0.17926
0.17926
0.17926
0.17926
0.17926
0.17926
0.17926
0.17926
0.17926
0.17926
0.17926
0.17926
0.17926
0.17926
0.17926
0.17926
0.17926
0.17926
0.179259
0.179259
0.179258
0.179258
0.179257
0.179261
0.179265
0.179279
0.179306
0.179341
0.179485
0.179452
0.179425
0.179412
0.179407
0.179404
0.179405
0.179405
0.179406
0.179406
0.179406
0.179406
0.179407
0.179406
0.179407
0.179406
0.179407
0.179406
0.179407
0.179406
0.179407
0.179406
0.179406
0.179406
0.179406
0.179406
0.179406
0.179406
0.179406
0.179407
0.179406
0.179407
0.179406
0.179407
0.179406
0.179407
0.179406
0.179407
0.179406
0.179406
0.179406
0.179406
0.179405
0.179405
0.179404
0.179407
0.179412
0.179425
0.179452
0.179485
0.179619
0.179587
0.179561
0.179549
0.179544
0.179541
0.179542
0.179542
0.179543
0.179542
0.179543
0.179543
0.179543
0.179543
0.179543
0.179543
0.179543
0.179543
0.179543
0.179543
0.179543
0.179543
0.179543
0.179543
0.179543
0.179543
0.179543
0.179543
0.179543
0.179543
0.179543
0.179543
0.179543
0.179543
0.179543
0.179543
0.179543
0.179543
0.179543
0.179543
0.179542
0.179543
0.179542
0.179542
0.179541
0.179544
0.179549
0.179562
0.179587
0.179619
0.17975
0.179718
0.179694
0.179682
0.179678
0.179675
0.179676
0.179676
0.179677
0.179677
0.179677
0.179677
0.179677
0.179677
0.179678
0.179677
0.179677
0.179677
0.179677
0.179677
0.179677
0.179677
0.179677
0.179677
0.179677
0.179677
0.179677
0.179677
0.179677
0.179677
0.179677
0.179677
0.179677
0.179677
0.179677
0.179678
0.179677
0.179678
0.179677
0.179677
0.179677
0.179677
0.179676
0.179676
0.179675
0.179678
0.179682
0.179694
0.179718
0.17975
0.179878
0.179848
0.179825
0.179813
0.179809
0.179806
0.179807
0.179807
0.179808
0.179808
0.179808
0.179808
0.179808
0.179808
0.179808
0.179808
0.179808
0.179808
0.179808
0.179808
0.179808
0.179808
0.179808
0.179808
0.179808
0.179808
0.179808
0.179808
0.179808
0.179808
0.179808
0.179808
0.179808
0.179808
0.179808
0.179808
0.179808
0.179808
0.179808
0.179808
0.179808
0.179808
0.179807
0.179807
0.179806
0.179809
0.179813
0.179825
0.179848
0.179878
0.180002
0.179972
0.179951
0.179939
0.179935
0.179932
0.179933
0.179933
0.179934
0.179934
0.179934
0.179934
0.179934
0.179934
0.179934
0.179934
0.179934
0.179934
0.179934
0.179934
0.179934
0.179934
0.179934
0.179934
0.179934
0.179934
0.179934
0.179934
0.179934
0.179934
0.179934
0.179934
0.179934
0.179934
0.179934
0.179934
0.179934
0.179934
0.179934
0.179934
0.179934
0.179934
0.179933
0.179933
0.179932
0.179935
0.179939
0.179951
0.179972
0.180002
0.18012
0.180092
0.180071
0.18006
0.180056
0.180053
0.180053
0.180054
0.180055
0.180054
0.180055
0.180055
0.180055
0.180055
0.180055
0.180055
0.180055
0.180055
0.180055
0.180054
0.180055
0.180054
0.180054
0.180054
0.180054
0.180054
0.180054
0.180054
0.180054
0.180055
0.180054
0.180055
0.180055
0.180055
0.180055
0.180055
0.180055
0.180055
0.180055
0.180055
0.180054
0.180055
0.180054
0.180054
0.180053
0.180056
0.18006
0.180071
0.180092
0.18012
0.180234
0.180206
0.180187
0.180175
0.180171
0.180169
0.180169
0.18017
0.18017
0.18017
0.18017
0.18017
0.18017
0.18017
0.18017
0.18017
0.18017
0.18017
0.18017
0.18017
0.18017
0.18017
0.18017
0.18017
0.18017
0.18017
0.18017
0.18017
0.18017
0.18017
0.18017
0.18017
0.18017
0.18017
0.18017
0.18017
0.18017
0.18017
0.18017
0.18017
0.18017
0.18017
0.18017
0.180169
0.180169
0.180171
0.180175
0.180187
0.180206
0.180234
0.180338
0.180312
0.180293
0.180282
0.180278
0.180275
0.180276
0.180276
0.180277
0.180276
0.180277
0.180276
0.180277
0.180276
0.180276
0.180276
0.180276
0.180276
0.180276
0.180276
0.180276
0.180276
0.180276
0.180276
0.180276
0.180276
0.180276
0.180276
0.180276
0.180276
0.180276
0.180276
0.180276
0.180276
0.180276
0.180276
0.180276
0.180277
0.180277
0.180277
0.180277
0.180277
0.180276
0.180276
0.180275
0.180278
0.180282
0.180293
0.180312
0.180338
0.180438
0.180412
0.180394
0.180383
0.180379
0.180377
0.180377
0.180378
0.180378
0.180378
0.180378
0.180378
0.180378
0.180378
0.180378
0.180378
0.180378
0.180378
0.180378
0.180378
0.180378
0.180378
0.180378
0.180378
0.180378
0.180378
0.180378
0.180378
0.180378
0.180378
0.180378
0.180378
0.180378
0.180378
0.180378
0.180378
0.180378
0.180378
0.180378
0.180378
0.180378
0.180378
0.180378
0.180377
0.180377
0.180379
0.180384
0.180394
0.180413
0.180438
0.180535
0.18051
0.180493
0.180482
0.180478
0.180476
0.180476
0.180477
0.180477
0.180477
0.180477
0.180477
0.180477
0.180477
0.180477
0.180477
0.180477
0.180477
0.180477
0.180477
0.180477
0.180476
0.180477
0.180476
0.180476
0.180476
0.180476
0.180476
0.180476
0.180477
0.180477
0.180477
0.180477
0.180477
0.180477
0.180477
0.180477
0.180477
0.180477
0.180477
0.180477
0.180477
0.180477
0.180476
0.180476
0.180478
0.180482
0.180493
0.18051
0.180535
0.180627
0.180603
0.180587
0.180576
0.180572
0.180569
0.180569
0.180568
0.180568
0.180568
0.180568
0.180567
0.180567
0.180567
0.180567
0.180567
0.180567
0.180567
0.180567
0.180567
0.180567
0.180567
0.180567
0.180567
0.180567
0.180567
0.180567
0.180567
0.180567
0.180567
0.180567
0.180567
0.180567
0.180567
0.180567
0.180567
0.180567
0.180567
0.180567
0.180568
0.180568
0.180568
0.180568
0.180569
0.18057
0.180572
0.180576
0.180587
0.180604
0.180627
0.18071
0.180688
0.180672
0.180662
0.180658
0.180655
0.180654
0.180653
0.180653
0.180653
0.180653
0.180652
0.180652
0.180652
0.180652
0.180652
0.180652
0.180652
0.180652
0.180652
0.180652
0.180652
0.180652
0.180652
0.180652
0.180652
0.180652
0.180652
0.180652
0.180652
0.180652
0.180652
0.180652
0.180652
0.180652
0.180652
0.180652
0.180652
0.180652
0.180653
0.180653
0.180653
0.180653
0.180655
0.180655
0.180658
0.180662
0.180672
0.180688
0.180711
0.180789
0.180768
0.180753
0.180743
0.180738
0.180736
0.180735
0.180734
0.180734
0.180733
0.180733
0.180733
0.180733
0.180733
0.180733
0.180733
0.180733
0.180733
0.180733
0.180732
0.180733
0.180732
0.180732
0.180732
0.180732
0.180732
0.180732
0.180732
0.180732
0.180733
0.180732
0.180733
0.180733
0.180733
0.180733
0.180733
0.180733
0.180733
0.180733
0.180734
0.180733
0.180734
0.180734
0.180735
0.180736
0.180738
0.180743
0.180753
0.180768
0.180789
0.180863
0.180842
0.180827
0.180817
0.180813
0.18081
0.18081
0.180808
0.180808
0.180808
0.180808
0.180807
0.180807
0.180807
0.180807
0.180807
0.180807
0.180807
0.180807
0.180806
0.180807
0.180806
0.180806
0.180806
0.180806
0.180806
0.180806
0.180806
0.180806
0.180807
0.180806
0.180807
0.180807
0.180807
0.180807
0.180807
0.180807
0.180807
0.180807
0.180808
0.180808
0.180808
0.180808
0.18081
0.18081
0.180813
0.180818
0.180827
0.180842
0.180863
0.180931
0.180911
0.180896
0.180887
0.180882
0.180879
0.180879
0.180877
0.180877
0.180876
0.180876
0.180876
0.180876
0.180876
0.180875
0.180875
0.180875
0.180875
0.180875
0.180875
0.180875
0.180875
0.180875
0.180875
0.180875
0.180875
0.180875
0.180875
0.180875
0.180875
0.180875
0.180875
0.180875
0.180875
0.180875
0.180876
0.180876
0.180876
0.180876
0.180876
0.180876
0.180877
0.180877
0.180879
0.180879
0.180882
0.180887
0.180896
0.180911
0.180931
0.180938
0.180938
0.180938
0.180938
0.180938
0.180938
0.180938
0.180938
0.180938
0.180938
0.180938
0.180938
0.180938
0.180938
0.180938
0.180938
0.180938
0.180939
0.180939
0.180939
0.180939
0.180939
0.18094
0.18094
0.18094
0.180942
0.180943
0.180946
0.180951
0.18096
0.180974
0.180993
0.180995
0.180995
0.180995
0.180996
0.180996
0.180996
0.180996
0.180996
0.180996
0.180996
0.180997
0.180997
0.180997
0.180998
0.180998
0.181
0.181001
0.181004
0.181009
0.181018
0.181032
0.18105
0.181049
0.18105
0.181051
0.181052
0.181054
0.181057
0.181062
0.181071
0.181084
0.181102
)
;

boundaryField
{
    fuel
    {
        type            fixedValue;
        value           nonuniform 0();
    }
    wall
    {
        type            zeroGradient;
    }
    outlet
    {
        type            zeroGradient;
    }
    frontAndBack
    {
        type            empty;
    }
    procBoundary0to1
    {
        type            processor;
        value           nonuniform List<scalar> 
50
(
0.174558
0.174506
0.174458
0.174433
0.174424
0.174418
0.17442
0.174419
0.174421
0.174421
0.174422
0.174422
0.174422
0.174422
0.174423
0.174422
0.174423
0.174422
0.174423
0.174422
0.174423
0.174422
0.174423
0.174423
0.174423
0.174423
0.174423
0.174423
0.174422
0.174423
0.174422
0.174423
0.174422
0.174423
0.174422
0.174423
0.174422
0.174422
0.174422
0.174422
0.174421
0.174421
0.174419
0.17442
0.174418
0.174424
0.174433
0.174458
0.174506
0.174558
)
;
    }
    procBoundary0to2
    {
        type            processor;
        value           nonuniform List<scalar> 
53
(
0.180993
0.180974
0.18096
0.180951
0.180946
0.180943
0.180942
0.18094
0.18094
0.18094
0.180939
0.180939
0.180939
0.180939
0.180939
0.180938
0.180938
0.180938
0.180938
0.180996
0.180995
0.180995
0.180995
0.180995
0.180995
0.180995
0.180995
0.180995
0.180995
0.180995
0.181047
0.181047
0.181047
0.181048
0.181048
0.181048
0.181048
0.181048
0.181048
0.181049
0.181049
0.181049
0.181049
0.181096
0.181097
0.181098
0.181099
0.181101
0.181104
0.181109
0.181119
0.181132
0.181149
)
;
    }
}


// ************************************************************************* //
