/*--------------------------------*- C++ -*----------------------------------*\
| =========                 |                                                 |
| \\      /  F ield         | OpenFOAM: The Open Source CFD Toolbox           |
|  \\    /   O peration     | Version:  dev                                   |
|   \\  /    A nd           | Web:      www.OpenFOAM.org                      |
|    \\/     M anipulation  |                                                 |
\*---------------------------------------------------------------------------*/
FoamFile
{
    version     2.0;
    format      ascii;
    class       volScalarField;
    location    "0.06";
    object      CO2;
}
// * * * * * * * * * * * * * * * * * * * * * * * * * * * * * * * * * * * * * //

dimensions      [0 0 0 0 0 0 0];

internalField   nonuniform List<scalar> 
250
(
0.0458101
0.0458076
0.0458075
0.0458089
0.0458161
0.0458519
0.0460001
0.0464256
0.0476643
0.0484016
0.0458077
0.0458043
0.0458054
0.0458048
0.0458114
0.0458443
0.0459785
0.0463839
0.0475144
0.0483072
0.0484023
0.0474925
0.0464604
0.0460048
0.0458701
0.0458396
0.0458301
0.0458361
0.0458311
0.0458376
0.0458374
0.0458332
0.0458356
0.0458326
0.0458387
0.0458687
0.0459873
0.0463719
0.0473843
0.0482155
0.0483995
0.0474391
0.0464742
0.0460459
0.0459208
0.0459007
0.0458871
0.0458996
0.0458902
0.0459003
0.0458993
0.045894
0.0458978
0.0458924
0.045898
0.0459251
0.0460272
0.0463907
0.0472981
0.0481409
0.0484
0.047411
0.0465169
0.0461178
0.0460025
0.045993
0.0459752
0.0459942
0.0459804
0.0459942
0.0459922
0.045986
0.0459911
0.0459833
0.0459884
0.0460127
0.0460981
0.04644
0.0472527
0.0480859
0.0484038
0.0474074
0.0465879
0.0462192
0.0461136
0.0461143
0.0460926
0.0461177
0.0460997
0.046117
0.046114
0.0461069
0.0461133
0.0461033
0.046108
0.0461294
0.0461987
0.0465188
0.0472412
0.0480537
0.0484105
0.0474273
0.0466849
0.0463474
0.0462508
0.0462612
0.0462361
0.0462664
0.0462447
0.0462651
0.0462614
0.0462534
0.0462609
0.0462491
0.0462534
0.0462717
0.0463267
0.0466241
0.0472623
0.0480447
0.04842
0.0474689
0.0468041
0.0464985
0.0464097
0.0464288
0.0464011
0.0464355
0.0464109
0.0464337
0.0464293
0.0464207
0.046429
0.0464158
0.0464198
0.0464337
0.0464778
0.0467514
0.0473124
0.0480571
0.0484317
0.047529
0.0469402
0.0466669
0.0465953
0.0466109
0.0465814
0.0466186
0.0465919
0.0466163
0.0466115
0.0466026
0.0466114
0.0465972
0.046601
0.0466171
0.0466463
0.0469003
0.0473868
0.0480873
0.0484443
0.0476033
0.047087
0.0468448
0.0467804
0.0467999
0.0467697
0.046808
0.0467805
0.0468056
0.0468005
0.0467915
0.0468006
0.046786
0.0467896
0.0468021
0.0468248
0.0470606
0.0474788
0.0481301
0.0484569
0.0476862
0.0472371
0.0470242
0.0469662
0.0469876
0.0469579
0.0469957
0.0469685
0.0469932
0.0469883
0.0469794
0.0469883
0.046974
0.0469774
0.0469878
0.0470052
0.0472173
0.0475808
0.0481794
0.0484653
0.0477711
0.0473825
0.0471968
0.0471444
0.0471659
0.0471378
0.0471734
0.0471478
0.0471711
0.0471664
0.0471581
0.0471665
0.047153
0.0471562
0.0471652
0.0471793
0.047368
0.0476849
0.0482285
0.0484674
0.0478513
0.0475157
0.0473547
0.0473075
0.0473273
0.0473018
0.0473338
0.0473108
0.0473319
0.0473277
0.0473201
0.0473277
0.0473155
0.0473186
0.0473265
0.0473391
0.047505
0.047783
0.0482709
0.0474661
0.0474594
0.0474661
0.0474555
0.0474585
0.0474654
0.0474782
0.0476221
0.047868
0.0483011
)
;

boundaryField
{
    fuel
    {
        type            fixedValue;
        value           nonuniform 0();
    }
    wall
    {
        type            zeroGradient;
    }
    outlet
    {
        type            zeroGradient;
    }
    frontAndBack
    {
        type            empty;
    }
    procBoundary0to1
    {
        type            processor;
        value           nonuniform List<scalar> 
21
(
0.0484599
0.0479204
0.0476303
0.0474915
0.0474489
0.0474658
0.0474437
0.0474712
0.0474514
0.0474696
0.0474696
0.047578
0.0475723
0.0475778
0.047569
0.0475718
0.0475781
0.0475918
0.0477152
0.0479343
0.0483147
)
;
    }
    procBoundary0to2
    {
        type            processor;
        value           nonuniform List<scalar> 
12
(
0.0458084
0.0484084
0.0475719
0.0464756
0.045995
0.045851
0.0458106
0.0458052
0.0458047
0.045804
0.0458068
0.0458068
)
;
    }
    procBoundary0to3
    {
        type            processor;
        value           nonuniform List<scalar> 10(0.045844 0.0458422 0.045841 0.0458444 0.0458521 0.0458904 0.0460558 0.0464954 0.047846 0.0484915);
    }
}


// ************************************************************************* //
