/*--------------------------------*- C++ -*----------------------------------*\
| =========                 |                                                 |
| \\      /  F ield         | OpenFOAM: The Open Source CFD Toolbox           |
|  \\    /   O peration     | Version:  dev                                   |
|   \\  /    A nd           | Web:      www.OpenFOAM.org                      |
|    \\/     M anipulation  |                                                 |
\*---------------------------------------------------------------------------*/
FoamFile
{
    version     2.0;
    format      ascii;
    class       volScalarField;
    location    "0.06";
    object      H;
}
// * * * * * * * * * * * * * * * * * * * * * * * * * * * * * * * * * * * * * //

dimensions      [0 0 0 0 0 0 0];

internalField   nonuniform List<scalar> 
250
(
2.12033e-05
2.12347e-05
2.12086e-05
2.1247e-05
2.12391e-05
2.12247e-05
2.09254e-05
1.9489e-05
1.43918e-05
8.25961e-06
2.03226e-05
2.03583e-05
2.03281e-05
2.03722e-05
2.03643e-05
2.03619e-05
2.00824e-05
1.88388e-05
1.41739e-05
8.22552e-06
8.19106e-06
1.39089e-05
1.80675e-05
1.93815e-05
1.94036e-05
1.94311e-05
1.94127e-05
1.93546e-05
1.93972e-05
1.93407e-05
1.93392e-05
1.93793e-05
1.93448e-05
1.93948e-05
1.93867e-05
1.93964e-05
1.91567e-05
1.80928e-05
1.38744e-05
8.22369e-06
8.36853e-06
1.3651e-05
1.72259e-05
1.83646e-05
1.83325e-05
1.83535e-05
1.83326e-05
1.82689e-05
1.83166e-05
1.82537e-05
1.8252e-05
1.82967e-05
1.82577e-05
1.83136e-05
1.83051e-05
1.83269e-05
1.81271e-05
1.72447e-05
1.34732e-05
8.22894e-06
8.50803e-06
1.32399e-05
1.62721e-05
1.72423e-05
1.71591e-05
1.71737e-05
1.71509e-05
1.70817e-05
1.71346e-05
1.70655e-05
1.70638e-05
1.71129e-05
1.70695e-05
1.71311e-05
1.7122e-05
1.71555e-05
1.69948e-05
1.62913e-05
1.29518e-05
8.21626e-06
8.57012e-06
1.27321e-05
1.52079e-05
1.60194e-05
1.58903e-05
1.58987e-05
1.58745e-05
1.58006e-05
1.58583e-05
1.57836e-05
1.5782e-05
1.58352e-05
1.57875e-05
1.58543e-05
1.58443e-05
1.58888e-05
1.57659e-05
1.52336e-05
1.23597e-05
8.15997e-06
8.51802e-06
1.20673e-05
1.40408e-05
1.47074e-05
1.45391e-05
1.45412e-05
1.45163e-05
1.44388e-05
1.45007e-05
1.44214e-05
1.442e-05
1.44767e-05
1.44251e-05
1.44963e-05
1.44851e-05
1.45399e-05
1.44533e-05
1.40785e-05
1.16078e-05
8.01433e-06
8.32519e-06
1.1273e-05
1.27863e-05
1.32964e-05
1.31256e-05
1.31211e-05
1.30962e-05
1.30166e-05
1.30817e-05
1.29993e-05
1.2998e-05
1.30573e-05
1.30025e-05
1.30769e-05
1.30644e-05
1.31288e-05
1.30202e-05
1.28403e-05
1.0779e-05
7.78651e-06
7.97745e-06
1.03504e-05
1.14693e-05
1.18514e-05
1.1576e-05
1.15721e-05
1.15484e-05
1.14676e-05
1.15338e-05
1.14477e-05
1.14477e-05
1.15084e-05
1.14534e-05
1.15292e-05
1.1516e-05
1.15779e-05
1.1582e-05
1.15446e-05
9.84923e-06
7.4172e-06
7.47583e-06
9.3215e-06
1.00367e-05
1.03819e-05
1.00997e-05
1.00911e-05
1.00689e-05
9.98975e-06
1.00559e-05
9.97049e-06
9.97065e-06
1.00313e-05
9.97579e-06
1.0051e-05
1.00369e-05
1.01028e-05
1.01242e-05
1.00754e-05
8.78518e-06
6.94819e-06
6.83699e-06
8.22172e-06
8.66739e-06
8.92369e-06
8.64551e-06
8.6343e-06
8.61424e-06
8.53871e-06
8.60321e-06
8.52052e-06
8.52084e-06
8.57983e-06
8.52536e-06
8.59815e-06
8.58335e-06
8.64978e-06
8.68288e-06
8.71748e-06
7.7164e-06
6.36584e-06
6.09146e-06
7.08978e-06
7.32779e-06
7.51411e-06
7.25029e-06
7.23803e-06
7.2205e-06
7.15043e-06
7.21151e-06
7.13371e-06
7.13416e-06
7.18995e-06
7.13801e-06
7.2064e-06
7.19136e-06
7.25537e-06
7.29486e-06
7.38625e-06
6.63028e-06
5.69171e-06
5.28019e-06
5.96856e-06
6.05658e-06
6.18992e-06
5.94898e-06
5.93689e-06
5.92201e-06
5.85895e-06
5.91505e-06
5.84403e-06
5.8446e-06
5.89578e-06
5.84777e-06
5.91003e-06
5.89534e-06
5.95446e-06
5.99586e-06
6.11926e-06
5.56472e-06
4.95648e-06
4.68051e-06
4.72591e-06
4.683e-06
4.73779e-06
4.72416e-06
4.77647e-06
4.81639e-06
4.95072e-06
4.55672e-06
4.19682e-06
)
;

boundaryField
{
    fuel
    {
        type            fixedValue;
        value           nonuniform 0();
    }
    wall
    {
        type            zeroGradient;
    }
    outlet
    {
        type            zeroGradient;
    }
    frontAndBack
    {
        type            empty;
    }
    procBoundary0to1
    {
        type            processor;
        value           nonuniform List<scalar> 
21
(
4.44669e-06
4.89805e-06
4.88855e-06
4.98248e-06
4.77103e-06
4.75999e-06
4.74765e-06
4.69274e-06
4.74257e-06
4.67989e-06
4.67989e-06
3.6614e-06
3.70021e-06
3.66311e-06
3.70972e-06
3.69783e-06
3.74237e-06
3.77774e-06
3.90838e-06
3.63626e-06
3.45141e-06
)
;
    }
    procBoundary0to2
    {
        type            processor;
        value           nonuniform List<scalar> 
12
(
2.12057e-05
8.01748e-06
1.40357e-05
1.87997e-05
2.02922e-05
2.03707e-05
2.04048e-05
2.03891e-05
2.03371e-05
2.03745e-05
2.03244e-05
2.03244e-05
)
;
    }
    procBoundary0to3
    {
        type            processor;
        value           nonuniform List<scalar> 10(2.19853e-05 2.20127e-05 2.19903e-05 2.20235e-05 2.20154e-05 2.199e-05 2.16534e-05 2.01004e-05 1.4553e-05 8.33779e-06);
    }
}


// ************************************************************************* //
