/*--------------------------------*- C++ -*----------------------------------*\
| =========                 |                                                 |
| \\      /  F ield         | OpenFOAM: The Open Source CFD Toolbox           |
|  \\    /   O peration     | Version:  dev                                   |
|   \\  /    A nd           | Web:      www.OpenFOAM.org                      |
|    \\/     M anipulation  |                                                 |
\*---------------------------------------------------------------------------*/
FoamFile
{
    version     2.0;
    format      ascii;
    class       volScalarField;
    location    "0.06";
    object      H2O2;
}
// * * * * * * * * * * * * * * * * * * * * * * * * * * * * * * * * * * * * * //

dimensions      [0 0 0 0 0 0 0];

internalField   nonuniform List<scalar> 
250
(
4.75639e-11
4.76948e-11
4.75336e-11
4.78457e-11
4.78709e-11
4.80635e-11
4.8569e-11
4.56962e-11
3.75299e-11
2.7962e-11
4.40386e-11
4.41782e-11
4.40087e-11
4.4334e-11
4.43619e-11
4.45638e-11
4.52187e-11
4.27119e-11
3.63848e-11
2.54693e-11
2.70898e-11
3.57688e-11
3.95098e-11
4.12081e-11
4.1417e-11
4.04548e-11
4.09748e-11
4.01739e-11
4.06894e-11
4.0253e-11
4.03545e-11
4.05017e-11
4.03251e-11
4.06608e-11
4.06904e-11
4.09003e-11
4.16847e-11
3.95074e-11
3.46861e-11
2.42534e-11
2.54708e-11
3.31579e-11
3.60553e-11
3.75115e-11
3.76386e-11
3.66392e-11
3.7169e-11
3.6349e-11
3.6884e-11
3.64306e-11
3.65359e-11
3.66889e-11
3.65074e-11
3.6849e-11
3.68798e-11
3.70945e-11
3.79829e-11
3.61064e-11
3.26519e-11
2.34161e-11
2.34936e-11
3.03157e-11
3.24669e-11
3.36835e-11
3.37485e-11
3.27245e-11
3.3259e-11
3.24305e-11
3.29784e-11
3.25137e-11
3.26217e-11
3.2778e-11
3.25944e-11
3.29363e-11
3.29676e-11
3.31831e-11
3.41444e-11
3.25435e-11
3.03491e-11
2.24397e-11
2.12693e-11
2.72934e-11
2.87885e-11
2.97757e-11
2.97983e-11
2.87653e-11
2.92966e-11
2.84739e-11
2.90252e-11
2.85573e-11
2.86662e-11
2.88228e-11
2.86404e-11
2.89762e-11
2.90071e-11
2.92197e-11
3.02164e-11
2.88681e-11
2.76887e-11
2.11252e-11
1.89071e-11
2.4154e-11
2.50807e-11
2.58545e-11
2.58575e-11
2.48308e-11
2.53491e-11
2.45488e-11
2.50923e-11
2.46308e-11
2.47385e-11
2.48919e-11
2.47146e-11
2.5037e-11
2.5067e-11
2.52776e-11
2.62638e-11
2.51507e-11
2.4764e-11
1.94336e-11
1.65016e-11
2.09708e-11
2.14188e-11
2.19994e-11
2.2011e-11
2.10022e-11
2.14969e-11
2.07369e-11
2.12597e-11
2.08156e-11
2.09195e-11
2.1066e-11
2.08978e-11
2.11997e-11
2.12278e-11
2.14606e-11
2.23704e-11
2.14867e-11
2.16704e-11
1.74183e-11
1.41328e-11
1.7828e-11
1.78887e-11
1.82987e-11
1.81169e-11
1.73669e-11
1.78277e-11
1.71253e-11
1.76146e-11
1.71988e-11
1.72963e-11
1.74323e-11
1.72773e-11
1.7552e-11
1.75772e-11
1.76956e-11
1.86303e-11
1.78421e-11
1.85135e-11
1.51829e-11
1.1873e-11
1.48099e-11
1.45791e-11
1.48524e-11
1.46895e-11
1.40124e-11
1.44287e-11
1.37992e-11
1.4243e-11
1.38657e-11
1.39545e-11
1.40768e-11
1.39382e-11
1.41804e-11
1.42025e-11
1.43308e-11
1.51415e-11
1.44108e-11
1.54112e-11
1.28531e-11
9.63882e-12
1.19976e-11
1.15731e-11
1.17427e-11
1.1603e-11
1.10135e-11
1.13773e-11
1.08317e-11
1.12208e-11
1.08898e-11
1.09679e-11
1.10742e-11
1.09544e-11
1.11609e-11
1.11795e-11
1.12908e-11
1.19881e-11
1.14124e-11
1.24811e-11
1.05571e-11
7.79694e-12
9.46443e-12
8.93688e-12
9.03242e-12
8.9175e-12
8.42411e-12
8.73085e-12
8.2746e-12
8.60366e-12
8.32362e-12
8.38989e-12
8.47894e-12
8.37911e-12
8.54875e-12
8.56394e-12
8.65241e-12
9.23449e-12
8.79018e-12
9.82006e-12
8.40913e-12
6.2206e-12
7.26506e-12
6.71148e-12
6.75642e-12
6.66707e-12
6.26964e-12
6.51934e-12
6.15147e-12
6.41953e-12
6.1914e-12
6.24554e-12
6.31737e-12
6.23723e-12
6.37145e-12
6.38338e-12
6.45015e-12
6.91789e-12
6.58274e-12
7.50103e-12
6.49848e-12
4.52925e-12
4.5851e-12
4.52305e-12
4.62543e-12
4.63433e-12
4.68282e-12
5.04349e-12
4.79708e-12
5.56497e-12
4.88132e-12
)
;

boundaryField
{
    fuel
    {
        type            fixedValue;
        value           nonuniform 0();
    }
    wall
    {
        type            zeroGradient;
    }
    outlet
    {
        type            zeroGradient;
    }
    frontAndBack
    {
        type            empty;
    }
    procBoundary0to1
    {
        type            processor;
        value           nonuniform List<scalar> 
21
(
4.90238e-12
5.43015e-12
4.90529e-12
4.91938e-12
4.85286e-12
4.54539e-12
4.74101e-12
4.45542e-12
4.66559e-12
4.48671e-12
4.48671e-12
3.20731e-12
3.24919e-12
3.20286e-12
3.27818e-12
3.28463e-12
3.31848e-12
3.58585e-12
3.40933e-12
4.0175e-12
3.57732e-12
)
;
    }
    procBoundary0to2
    {
        type            processor;
        value           nonuniform List<scalar> 
12
(
4.74723e-11
2.82016e-11
3.81278e-11
4.28025e-11
4.47469e-11
4.50449e-11
4.41349e-11
4.46382e-11
4.38664e-11
4.43568e-11
4.39419e-11
4.39419e-11
)
;
    }
    procBoundary0to3
    {
        type            processor;
        value           nonuniform List<scalar> 10(5.0919e-11 5.10403e-11 5.08886e-11 5.11843e-11 5.12075e-11 5.13866e-11 5.2004e-11 4.84345e-11 3.83289e-11 3.42137e-11);
    }
}


// ************************************************************************* //
