/*--------------------------------*- C++ -*----------------------------------*\
| =========                 |                                                 |
| \\      /  F ield         | OpenFOAM: The Open Source CFD Toolbox           |
|  \\    /   O peration     | Version:  dev                                   |
|   \\  /    A nd           | Web:      www.OpenFOAM.org                      |
|    \\/     M anipulation  |                                                 |
\*---------------------------------------------------------------------------*/
FoamFile
{
    version     2.0;
    format      ascii;
    class       volScalarField;
    location    "0.06";
    object      naphthyne;
}
// * * * * * * * * * * * * * * * * * * * * * * * * * * * * * * * * * * * * * //

dimensions      [0 0 0 0 0 0 0];

internalField   nonuniform List<scalar> 
2014
(
6.03563e-09
6.08207e-09
6.12469e-09
6.14621e-09
6.15232e-09
6.15688e-09
6.15431e-09
6.15555e-09
6.15335e-09
6.15416e-09
6.15287e-09
6.15351e-09
6.15269e-09
6.15317e-09
6.15264e-09
6.15302e-09
6.15264e-09
6.15295e-09
6.15271e-09
6.15291e-09
6.15275e-09
6.15286e-09
6.15276e-09
6.15282e-09
6.15279e-09
6.15279e-09
6.15282e-09
6.15276e-09
6.15286e-09
6.15275e-09
6.15291e-09
6.15271e-09
6.15295e-09
6.15264e-09
6.15302e-09
6.15264e-09
6.15317e-09
6.15269e-09
6.15351e-09
6.15287e-09
6.15416e-09
6.15334e-09
6.15554e-09
6.1543e-09
6.15686e-09
6.15231e-09
6.14619e-09
6.12467e-09
6.08206e-09
6.03562e-09
5.71344e-09
5.75761e-09
5.79764e-09
5.81789e-09
5.82374e-09
5.82804e-09
5.82567e-09
5.8268e-09
5.82476e-09
5.82548e-09
5.82428e-09
5.82487e-09
5.82411e-09
5.82454e-09
5.82405e-09
5.8244e-09
5.82405e-09
5.82434e-09
5.82412e-09
5.8243e-09
5.82415e-09
5.82426e-09
5.82416e-09
5.82422e-09
5.8242e-09
5.8242e-09
5.82422e-09
5.82417e-09
5.82426e-09
5.82415e-09
5.8243e-09
5.82412e-09
5.82434e-09
5.82405e-09
5.8244e-09
5.82406e-09
5.82455e-09
5.82411e-09
5.82486e-09
5.82428e-09
5.82548e-09
5.82475e-09
5.82679e-09
5.82566e-09
5.82803e-09
5.82373e-09
5.81787e-09
5.79763e-09
5.7576e-09
5.71343e-09
5.41888e-09
5.46097e-09
5.49852e-09
5.51757e-09
5.52316e-09
5.52722e-09
5.52504e-09
5.52606e-09
5.52417e-09
5.52482e-09
5.5237e-09
5.52423e-09
5.52353e-09
5.52393e-09
5.52347e-09
5.52379e-09
5.52347e-09
5.52374e-09
5.52353e-09
5.5237e-09
5.52357e-09
5.52366e-09
5.52358e-09
5.52363e-09
5.52361e-09
5.52361e-09
5.52363e-09
5.52358e-09
5.52366e-09
5.52357e-09
5.5237e-09
5.52353e-09
5.52374e-09
5.52348e-09
5.5238e-09
5.52348e-09
5.52393e-09
5.52353e-09
5.52423e-09
5.52371e-09
5.52482e-09
5.52416e-09
5.52606e-09
5.52503e-09
5.52721e-09
5.52315e-09
5.51755e-09
5.49851e-09
5.46096e-09
5.41887e-09
5.14907e-09
5.18926e-09
5.22443e-09
5.24236e-09
5.2477e-09
5.25153e-09
5.24952e-09
5.25045e-09
5.24869e-09
5.24928e-09
5.24824e-09
5.24872e-09
5.24807e-09
5.24843e-09
5.24801e-09
5.24831e-09
5.24801e-09
5.24826e-09
5.24807e-09
5.24823e-09
5.2481e-09
5.24819e-09
5.24811e-09
5.24816e-09
5.24814e-09
5.24814e-09
5.24816e-09
5.24811e-09
5.24819e-09
5.2481e-09
5.24823e-09
5.24807e-09
5.24826e-09
5.24801e-09
5.24831e-09
5.24801e-09
5.24844e-09
5.24807e-09
5.24872e-09
5.24824e-09
5.24927e-09
5.24869e-09
5.25045e-09
5.24951e-09
5.25152e-09
5.24769e-09
5.24235e-09
5.22442e-09
5.18925e-09
5.14906e-09
4.90146e-09
4.93985e-09
4.97288e-09
4.98971e-09
4.99478e-09
4.99841e-09
4.99655e-09
4.9974e-09
4.99577e-09
4.99629e-09
4.99533e-09
4.99576e-09
4.99516e-09
4.9955e-09
4.9951e-09
4.99538e-09
4.99511e-09
4.99534e-09
4.99516e-09
4.99531e-09
4.99519e-09
4.99527e-09
4.9952e-09
4.99525e-09
4.99523e-09
4.99523e-09
4.99525e-09
4.9952e-09
4.99527e-09
4.99519e-09
4.99531e-09
4.99516e-09
4.99534e-09
4.99511e-09
4.99538e-09
4.99511e-09
4.9955e-09
4.99516e-09
4.99576e-09
4.99533e-09
4.99629e-09
4.99576e-09
4.9974e-09
4.99654e-09
4.9984e-09
4.99477e-09
4.9897e-09
4.97287e-09
4.93984e-09
4.90145e-09
4.67382e-09
4.71053e-09
4.74153e-09
4.75732e-09
4.76215e-09
4.76558e-09
4.76386e-09
4.76464e-09
4.76312e-09
4.76359e-09
4.7627e-09
4.76309e-09
4.76253e-09
4.76284e-09
4.76248e-09
4.76273e-09
4.76248e-09
4.7627e-09
4.76253e-09
4.76267e-09
4.76256e-09
4.76264e-09
4.76257e-09
4.76262e-09
4.7626e-09
4.7626e-09
4.76262e-09
4.76257e-09
4.76264e-09
4.76256e-09
4.76267e-09
4.76253e-09
4.7627e-09
4.76248e-09
4.76274e-09
4.76248e-09
4.76284e-09
4.76253e-09
4.76309e-09
4.7627e-09
4.76359e-09
4.76312e-09
4.76464e-09
4.76385e-09
4.76556e-09
4.76213e-09
4.75731e-09
4.74151e-09
4.71053e-09
4.67381e-09
4.46415e-09
4.49929e-09
4.52836e-09
4.5432e-09
4.54777e-09
4.55102e-09
4.54944e-09
4.55015e-09
4.54874e-09
4.54916e-09
4.54833e-09
4.5487e-09
4.54817e-09
4.54846e-09
4.54813e-09
4.54836e-09
4.54813e-09
4.54833e-09
4.54818e-09
4.54831e-09
4.5482e-09
4.54828e-09
4.54822e-09
4.54826e-09
4.54824e-09
4.54824e-09
4.54826e-09
4.54822e-09
4.54828e-09
4.54821e-09
4.54831e-09
4.54818e-09
4.54833e-09
4.54813e-09
4.54836e-09
4.54813e-09
4.54846e-09
4.54817e-09
4.54869e-09
4.54833e-09
4.54916e-09
4.54874e-09
4.55015e-09
4.54943e-09
4.55101e-09
4.54776e-09
4.54318e-09
4.52835e-09
4.49928e-09
4.46414e-09
4.2707e-09
4.30434e-09
4.33161e-09
4.34554e-09
4.34989e-09
4.35296e-09
4.3515e-09
4.35216e-09
4.35085e-09
4.35123e-09
4.35046e-09
4.35079e-09
4.35031e-09
4.35057e-09
4.35026e-09
4.35048e-09
4.35027e-09
4.35046e-09
4.35031e-09
4.35044e-09
4.35034e-09
4.35041e-09
4.35035e-09
4.35039e-09
4.35037e-09
4.35037e-09
4.35039e-09
4.35035e-09
4.35041e-09
4.35034e-09
4.35044e-09
4.35031e-09
4.35046e-09
4.35027e-09
4.35048e-09
4.35026e-09
4.35057e-09
4.35031e-09
4.35079e-09
4.35046e-09
4.35123e-09
4.35084e-09
4.35215e-09
4.35149e-09
4.35295e-09
4.34988e-09
4.34553e-09
4.3316e-09
4.30434e-09
4.27069e-09
4.09192e-09
4.12412e-09
4.1497e-09
4.16279e-09
4.16691e-09
4.16982e-09
4.16848e-09
4.16908e-09
4.16787e-09
4.16821e-09
4.16749e-09
4.1678e-09
4.16735e-09
4.1676e-09
4.16731e-09
4.16752e-09
4.16732e-09
4.1675e-09
4.16737e-09
4.16748e-09
4.16739e-09
4.16746e-09
4.1674e-09
4.16744e-09
4.16742e-09
4.16742e-09
4.16744e-09
4.1674e-09
4.16746e-09
4.16739e-09
4.16748e-09
4.16737e-09
4.1675e-09
4.16732e-09
4.16752e-09
4.16731e-09
4.1676e-09
4.16735e-09
4.1678e-09
4.1675e-09
4.16821e-09
4.16786e-09
4.16907e-09
4.16847e-09
4.1698e-09
4.1669e-09
4.16277e-09
4.14968e-09
4.12411e-09
4.09191e-09
3.92642e-09
3.95722e-09
3.98123e-09
3.99353e-09
3.99744e-09
4.0002e-09
3.99897e-09
3.99953e-09
3.9984e-09
3.99872e-09
3.99805e-09
3.99833e-09
3.99792e-09
3.99815e-09
3.99788e-09
3.99808e-09
3.99789e-09
3.99806e-09
3.99794e-09
3.99805e-09
3.99796e-09
3.99803e-09
3.99797e-09
3.99801e-09
3.99799e-09
3.99799e-09
3.99801e-09
3.99797e-09
3.99803e-09
3.99796e-09
3.99805e-09
3.99794e-09
3.99806e-09
3.99789e-09
3.99808e-09
3.99788e-09
3.99815e-09
3.99792e-09
3.99833e-09
3.99805e-09
3.99871e-09
3.9984e-09
3.99952e-09
3.99896e-09
4.00019e-09
3.99743e-09
3.99352e-09
3.98121e-09
3.95722e-09
3.92642e-09
3.773e-09
3.80243e-09
3.82498e-09
3.83654e-09
3.84026e-09
3.84287e-09
3.84174e-09
3.84226e-09
3.84122e-09
3.84151e-09
3.84089e-09
3.84115e-09
3.84077e-09
3.84099e-09
3.84074e-09
3.84092e-09
3.84075e-09
3.84091e-09
3.8408e-09
3.8409e-09
3.84082e-09
3.84088e-09
3.84083e-09
3.84086e-09
3.84085e-09
3.84085e-09
3.84086e-09
3.84083e-09
3.84088e-09
3.84082e-09
3.8409e-09
3.8408e-09
3.84091e-09
3.84075e-09
3.84092e-09
3.84074e-09
3.84099e-09
3.84077e-09
3.84115e-09
3.84089e-09
3.8415e-09
3.84121e-09
3.84225e-09
3.84173e-09
3.84286e-09
3.84025e-09
3.83653e-09
3.82496e-09
3.80243e-09
3.77299e-09
3.63057e-09
3.65865e-09
3.67985e-09
3.69073e-09
3.69426e-09
3.69674e-09
3.6957e-09
3.69619e-09
3.69523e-09
3.69549e-09
3.69492e-09
3.69517e-09
3.69481e-09
3.69502e-09
3.69479e-09
3.69496e-09
3.69481e-09
3.69495e-09
3.69485e-09
3.69495e-09
3.69488e-09
3.69493e-09
3.69489e-09
3.69492e-09
3.6949e-09
3.6949e-09
3.69492e-09
3.69489e-09
3.69493e-09
3.69488e-09
3.69495e-09
3.69485e-09
3.69496e-09
3.69481e-09
3.69497e-09
3.69479e-09
3.69502e-09
3.69482e-09
3.69517e-09
3.69492e-09
3.69549e-09
3.69522e-09
3.69618e-09
3.6957e-09
3.69673e-09
3.69425e-09
3.69072e-09
3.67982e-09
3.65866e-09
3.63057e-09
3.49819e-09
3.52492e-09
3.54488e-09
3.55512e-09
3.55848e-09
3.56083e-09
3.55989e-09
3.56034e-09
3.55946e-09
3.5597e-09
3.55918e-09
3.55941e-09
3.55909e-09
3.55928e-09
3.55907e-09
3.55923e-09
3.55909e-09
3.55923e-09
3.55913e-09
3.55922e-09
3.55916e-09
3.55921e-09
3.55917e-09
3.5592e-09
3.55918e-09
3.55918e-09
3.5592e-09
3.55917e-09
3.55921e-09
3.55916e-09
3.55923e-09
3.55913e-09
3.55923e-09
3.55909e-09
3.55923e-09
3.55907e-09
3.55928e-09
3.55909e-09
3.55941e-09
3.55918e-09
3.5597e-09
3.55945e-09
3.56034e-09
3.55988e-09
3.56082e-09
3.55847e-09
3.55511e-09
3.54485e-09
3.52493e-09
3.49818e-09
3.375e-09
3.40039e-09
3.41921e-09
3.42886e-09
3.43206e-09
3.43429e-09
3.43344e-09
3.43387e-09
3.43305e-09
3.43329e-09
3.4328e-09
3.43302e-09
3.43272e-09
3.43291e-09
3.43271e-09
3.43287e-09
3.43274e-09
3.43287e-09
3.43278e-09
3.43287e-09
3.43281e-09
3.43286e-09
3.43282e-09
3.43285e-09
3.43283e-09
3.43283e-09
3.43285e-09
3.43282e-09
3.43286e-09
3.43281e-09
3.43287e-09
3.43278e-09
3.43287e-09
3.43274e-09
3.43287e-09
3.43272e-09
3.43291e-09
3.43272e-09
3.43302e-09
3.4328e-09
3.43328e-09
3.43305e-09
3.43386e-09
3.43343e-09
3.43428e-09
3.43205e-09
3.42885e-09
3.41917e-09
3.4004e-09
3.375e-09
3.26024e-09
3.2843e-09
3.30208e-09
3.31119e-09
3.31422e-09
3.31636e-09
3.31559e-09
3.316e-09
3.31525e-09
3.31547e-09
3.31503e-09
3.31524e-09
3.31497e-09
3.31514e-09
3.31497e-09
3.31511e-09
3.31499e-09
3.31512e-09
3.31504e-09
3.31512e-09
3.31506e-09
3.31511e-09
3.31508e-09
3.3151e-09
3.31509e-09
3.31509e-09
3.3151e-09
3.31508e-09
3.31511e-09
3.31507e-09
3.31512e-09
3.31504e-09
3.31512e-09
3.31499e-09
3.31512e-09
3.31497e-09
3.31514e-09
3.31497e-09
3.31524e-09
3.31503e-09
3.31547e-09
3.31525e-09
3.31599e-09
3.31558e-09
3.31635e-09
3.31421e-09
3.31117e-09
3.30203e-09
3.28432e-09
3.26024e-09
3.15325e-09
3.176e-09
3.19281e-09
3.20142e-09
3.20431e-09
3.20635e-09
3.20567e-09
3.20606e-09
3.20538e-09
3.20559e-09
3.20519e-09
3.20539e-09
3.20514e-09
3.20531e-09
3.20515e-09
3.20529e-09
3.20518e-09
3.2053e-09
3.20523e-09
3.20531e-09
3.20525e-09
3.2053e-09
3.20526e-09
3.20529e-09
3.20528e-09
3.20528e-09
3.20529e-09
3.20526e-09
3.2053e-09
3.20525e-09
3.20531e-09
3.20523e-09
3.2053e-09
3.20518e-09
3.20529e-09
3.20515e-09
3.20531e-09
3.20514e-09
3.20538e-09
3.20519e-09
3.20559e-09
3.20537e-09
3.20605e-09
3.20566e-09
3.20634e-09
3.2043e-09
3.20141e-09
3.19276e-09
3.17604e-09
3.15325e-09
3.05341e-09
3.0749e-09
3.09082e-09
3.09897e-09
3.10171e-09
3.10367e-09
3.10307e-09
3.10344e-09
3.10283e-09
3.10303e-09
3.10267e-09
3.10286e-09
3.10264e-09
3.1028e-09
3.10266e-09
3.10279e-09
3.10269e-09
3.10281e-09
3.10274e-09
3.10282e-09
3.10277e-09
3.10281e-09
3.10278e-09
3.1028e-09
3.1028e-09
3.1028e-09
3.1028e-09
3.10278e-09
3.10281e-09
3.10277e-09
3.10282e-09
3.10274e-09
3.10281e-09
3.1027e-09
3.1028e-09
3.10266e-09
3.1028e-09
3.10264e-09
3.10286e-09
3.10267e-09
3.10303e-09
3.10282e-09
3.10344e-09
3.10306e-09
3.10367e-09
3.1017e-09
3.09895e-09
3.09075e-09
3.07494e-09
3.05341e-09
2.9602e-09
2.98046e-09
2.99556e-09
3.00328e-09
3.0059e-09
3.00779e-09
3.00726e-09
3.00762e-09
3.00707e-09
3.00727e-09
3.00695e-09
3.00713e-09
3.00693e-09
3.00709e-09
3.00696e-09
3.00709e-09
3.007e-09
3.00711e-09
3.00705e-09
3.00713e-09
3.00708e-09
3.00712e-09
3.00709e-09
3.00712e-09
3.00711e-09
3.00711e-09
3.00712e-09
3.00709e-09
3.00712e-09
3.00708e-09
3.00713e-09
3.00705e-09
3.00711e-09
3.00701e-09
3.00709e-09
3.00696e-09
3.00709e-09
3.00693e-09
3.00713e-09
3.00695e-09
3.00727e-09
3.00707e-09
3.00762e-09
3.00725e-09
3.00778e-09
3.00589e-09
3.00326e-09
2.99547e-09
2.98052e-09
2.9602e-09
2.87315e-09
2.89222e-09
2.90657e-09
2.91388e-09
2.91639e-09
2.91821e-09
2.91776e-09
2.91812e-09
2.91762e-09
2.91782e-09
2.91754e-09
2.91772e-09
2.91754e-09
2.9177e-09
2.91758e-09
2.91771e-09
2.91763e-09
2.91774e-09
2.91768e-09
2.91775e-09
2.91771e-09
2.91775e-09
2.91772e-09
2.91774e-09
2.91774e-09
2.91774e-09
2.91774e-09
2.91772e-09
2.91775e-09
2.91771e-09
2.91775e-09
2.91768e-09
2.91774e-09
2.91763e-09
2.91771e-09
2.91758e-09
2.9177e-09
2.91754e-09
2.91772e-09
2.91754e-09
2.91782e-09
2.91762e-09
2.91811e-09
2.91775e-09
2.91821e-09
2.91638e-09
2.91386e-09
2.90646e-09
2.8923e-09
2.87315e-09
2.79182e-09
2.80974e-09
2.82344e-09
2.83035e-09
2.83277e-09
2.83453e-09
2.83415e-09
2.8345e-09
2.83407e-09
2.83427e-09
2.83402e-09
2.8342e-09
2.83405e-09
2.8342e-09
2.8341e-09
2.83422e-09
2.83415e-09
2.83425e-09
2.8342e-09
2.83427e-09
2.83423e-09
2.83427e-09
2.83425e-09
2.83427e-09
2.83426e-09
2.83426e-09
2.83427e-09
2.83425e-09
2.83427e-09
2.83423e-09
2.83427e-09
2.8342e-09
2.83425e-09
2.83415e-09
2.83422e-09
2.8341e-09
2.8342e-09
2.83404e-09
2.8342e-09
2.83402e-09
2.83427e-09
2.83406e-09
2.8345e-09
2.83414e-09
2.83452e-09
2.83276e-09
2.83033e-09
2.8233e-09
2.80985e-09
2.79182e-09
2.71583e-09
2.73269e-09
2.74575e-09
2.7523e-09
2.75464e-09
2.75635e-09
2.75604e-09
2.7564e-09
2.75602e-09
2.75623e-09
2.75601e-09
2.75619e-09
2.75606e-09
2.75621e-09
2.75612e-09
2.75624e-09
2.75618e-09
2.75628e-09
2.75624e-09
2.7563e-09
2.75627e-09
2.7563e-09
2.75628e-09
2.7563e-09
2.75629e-09
2.75629e-09
2.7563e-09
2.75628e-09
2.75631e-09
2.75627e-09
2.7563e-09
2.75624e-09
2.75628e-09
2.75618e-09
2.75624e-09
2.75612e-09
2.75621e-09
2.75606e-09
2.75619e-09
2.75601e-09
2.75622e-09
2.75602e-09
2.75639e-09
2.75604e-09
2.75634e-09
2.75463e-09
2.75229e-09
2.74564e-09
2.73278e-09
2.71583e-09
2.64486e-09
2.66073e-09
2.67318e-09
2.6794e-09
2.68168e-09
2.68334e-09
2.68311e-09
2.68346e-09
2.68314e-09
2.68335e-09
2.68317e-09
2.68335e-09
2.68324e-09
2.68339e-09
2.68332e-09
2.68344e-09
2.68339e-09
2.68348e-09
2.68344e-09
2.68351e-09
2.68348e-09
2.68351e-09
2.68349e-09
2.68351e-09
2.6835e-09
2.6835e-09
2.68351e-09
2.68349e-09
2.68351e-09
2.68348e-09
2.68351e-09
2.68345e-09
2.68348e-09
2.68339e-09
2.68344e-09
2.68332e-09
2.68339e-09
2.68324e-09
2.68335e-09
2.68317e-09
2.68335e-09
2.68314e-09
2.68346e-09
2.6831e-09
2.68333e-09
2.68167e-09
2.67939e-09
2.67309e-09
2.6608e-09
2.64486e-09
2.5786e-09
2.59356e-09
2.60541e-09
2.61134e-09
2.61357e-09
2.61519e-09
2.61504e-09
2.61539e-09
2.61513e-09
2.61535e-09
2.6152e-09
2.61539e-09
2.6153e-09
2.61545e-09
2.61539e-09
2.61551e-09
2.61546e-09
2.61555e-09
2.61552e-09
2.61558e-09
2.61556e-09
2.61559e-09
2.61557e-09
2.61559e-09
2.61558e-09
2.61558e-09
2.61559e-09
2.61557e-09
2.61559e-09
2.61556e-09
2.61558e-09
2.61552e-09
2.61556e-09
2.61546e-09
2.61551e-09
2.61539e-09
2.61545e-09
2.6153e-09
2.61538e-09
2.6152e-09
2.61535e-09
2.61512e-09
2.61539e-09
2.61503e-09
2.61519e-09
2.61356e-09
2.61133e-09
2.60533e-09
2.59361e-09
2.5786e-09
2.5168e-09
2.5309e-09
2.54217e-09
2.54785e-09
2.55004e-09
2.55164e-09
2.55156e-09
2.55191e-09
2.55171e-09
2.55194e-09
2.55183e-09
2.55202e-09
2.55195e-09
2.5521e-09
2.55206e-09
2.55217e-09
2.55214e-09
2.55223e-09
2.5522e-09
2.55226e-09
2.55224e-09
2.55227e-09
2.55225e-09
2.55227e-09
2.55226e-09
2.55226e-09
2.55227e-09
2.55225e-09
2.55227e-09
2.55224e-09
2.55226e-09
2.5522e-09
2.55223e-09
2.55214e-09
2.55217e-09
2.55206e-09
2.5521e-09
2.55195e-09
2.55201e-09
2.55183e-09
2.55194e-09
2.55171e-09
2.55191e-09
2.55155e-09
2.55163e-09
2.55003e-09
2.54784e-09
2.54211e-09
2.53094e-09
2.5168e-09
2.45921e-09
2.47251e-09
2.48323e-09
2.48868e-09
2.49085e-09
2.49243e-09
2.49242e-09
2.49278e-09
2.49264e-09
2.49288e-09
2.4928e-09
2.493e-09
2.49295e-09
2.49311e-09
2.49307e-09
2.49319e-09
2.49316e-09
2.49325e-09
2.49323e-09
2.49329e-09
2.49327e-09
2.4933e-09
2.49328e-09
2.4933e-09
2.4933e-09
2.4933e-09
2.4933e-09
2.49328e-09
2.4933e-09
2.49327e-09
2.49329e-09
2.49323e-09
2.49325e-09
2.49316e-09
2.49319e-09
2.49307e-09
2.49311e-09
2.49295e-09
2.49299e-09
2.4928e-09
2.49288e-09
2.49263e-09
2.49278e-09
2.49242e-09
2.49242e-09
2.49084e-09
2.48867e-09
2.48318e-09
2.47254e-09
2.4592e-09
2.40745e-09
2.4201e-09
2.43027e-09
2.43556e-09
2.43772e-09
2.43929e-09
2.43935e-09
2.43972e-09
2.43963e-09
2.43988e-09
2.43984e-09
2.44004e-09
2.44001e-09
2.44017e-09
2.44015e-09
2.44026e-09
2.44024e-09
2.44033e-09
2.44031e-09
2.44037e-09
2.44035e-09
2.44039e-09
2.44037e-09
2.44039e-09
2.44038e-09
2.44038e-09
2.44039e-09
2.44037e-09
2.44039e-09
2.44036e-09
2.44037e-09
2.44032e-09
2.44033e-09
2.44025e-09
2.44026e-09
2.44015e-09
2.44017e-09
2.44001e-09
2.44003e-09
2.43983e-09
2.43988e-09
2.43962e-09
2.43972e-09
2.43934e-09
2.43928e-09
2.43771e-09
2.43555e-09
2.43023e-09
2.42011e-09
2.40744e-09
2.35913e-09
2.37123e-09
2.38072e-09
2.38576e-09
2.38776e-09
2.38923e-09
2.38928e-09
2.3896e-09
2.38952e-09
2.38977e-09
2.38973e-09
2.38993e-09
2.38991e-09
2.39006e-09
2.39005e-09
2.39016e-09
2.39014e-09
2.39023e-09
2.39021e-09
2.39027e-09
2.39025e-09
2.39028e-09
2.39027e-09
2.39028e-09
2.39028e-09
2.39028e-09
2.39028e-09
2.39027e-09
2.39028e-09
2.39025e-09
2.39027e-09
2.39021e-09
2.39023e-09
2.39014e-09
2.39016e-09
2.39005e-09
2.39006e-09
2.38991e-09
2.38992e-09
2.38973e-09
2.38976e-09
2.38951e-09
2.3896e-09
2.38928e-09
2.38922e-09
2.38775e-09
2.38574e-09
2.38069e-09
2.37124e-09
2.35913e-09
2.31325e-09
2.32473e-09
2.33371e-09
2.33861e-09
2.34063e-09
2.34209e-09
2.34222e-09
2.34254e-09
2.34251e-09
2.34278e-09
2.34278e-09
2.34298e-09
2.34298e-09
2.34314e-09
2.34314e-09
2.34325e-09
2.34324e-09
2.34333e-09
2.34332e-09
2.34337e-09
2.34336e-09
2.34339e-09
2.34338e-09
2.34339e-09
2.34339e-09
2.34339e-09
2.34339e-09
2.34338e-09
2.34339e-09
2.34336e-09
2.34337e-09
2.34332e-09
2.34333e-09
2.34324e-09
2.34325e-09
2.34314e-09
2.34314e-09
2.34298e-09
2.34298e-09
2.34277e-09
2.34277e-09
2.34251e-09
2.34254e-09
2.34221e-09
2.34208e-09
2.34062e-09
2.3386e-09
2.33368e-09
2.32473e-09
2.31324e-09
2.2709e-09
2.28178e-09
2.29031e-09
2.29508e-09
2.29714e-09
2.2986e-09
2.2988e-09
2.29912e-09
2.29915e-09
2.29944e-09
2.29947e-09
2.29968e-09
2.29971e-09
2.29986e-09
2.29988e-09
2.29999e-09
2.29999e-09
2.30007e-09
2.30007e-09
2.30012e-09
2.30011e-09
2.30014e-09
2.30013e-09
2.30015e-09
2.30014e-09
2.30014e-09
2.30015e-09
2.30013e-09
2.30014e-09
2.30011e-09
2.30012e-09
2.30007e-09
2.30007e-09
2.29999e-09
2.29999e-09
2.29988e-09
2.29986e-09
2.2997e-09
2.29968e-09
2.29947e-09
2.29943e-09
2.29915e-09
2.29912e-09
2.29879e-09
2.29859e-09
2.29712e-09
2.29507e-09
2.29028e-09
2.28178e-09
2.27089e-09
2.23194e-09
2.24225e-09
2.25039e-09
2.25504e-09
2.25714e-09
2.25861e-09
2.25889e-09
2.25921e-09
2.2593e-09
2.2596e-09
2.25967e-09
2.25989e-09
2.25994e-09
2.2601e-09
2.26013e-09
2.26024e-09
2.26025e-09
2.26033e-09
2.26034e-09
2.26039e-09
2.26038e-09
2.26041e-09
2.2604e-09
2.26041e-09
2.26041e-09
2.26041e-09
2.26041e-09
2.2604e-09
2.26041e-09
2.26038e-09
2.26039e-09
2.26034e-09
2.26033e-09
2.26025e-09
2.26024e-09
2.26013e-09
2.2601e-09
2.25994e-09
2.25989e-09
2.25967e-09
2.2596e-09
2.2593e-09
2.25921e-09
2.25888e-09
2.2586e-09
2.25712e-09
2.25503e-09
2.25037e-09
2.24224e-09
2.23192e-09
2.19625e-09
2.20603e-09
2.21381e-09
2.21837e-09
2.22052e-09
2.222e-09
2.22237e-09
2.22269e-09
2.22283e-09
2.22316e-09
2.22326e-09
2.22349e-09
2.22356e-09
2.22373e-09
2.22377e-09
2.22389e-09
2.2239e-09
2.22398e-09
2.22399e-09
2.22404e-09
2.22404e-09
2.22407e-09
2.22406e-09
2.22407e-09
2.22407e-09
2.22407e-09
2.22407e-09
2.22406e-09
2.22407e-09
2.22404e-09
2.22404e-09
2.22399e-09
2.22398e-09
2.2239e-09
2.22389e-09
2.22377e-09
2.22373e-09
2.22356e-09
2.22349e-09
2.22326e-09
2.22315e-09
2.22283e-09
2.22268e-09
2.22236e-09
2.22199e-09
2.2205e-09
2.21835e-09
2.21379e-09
2.20602e-09
2.19624e-09
2.16482e-09
2.17413e-09
2.18162e-09
2.18609e-09
2.18831e-09
2.18981e-09
2.19026e-09
2.19056e-09
2.19077e-09
2.19111e-09
2.19125e-09
2.19149e-09
2.19158e-09
2.19176e-09
2.19181e-09
2.19193e-09
2.19196e-09
2.19204e-09
2.19205e-09
2.1921e-09
2.1921e-09
2.19213e-09
2.19212e-09
2.19213e-09
2.19213e-09
2.19213e-09
2.19213e-09
2.19212e-09
2.19213e-09
2.1921e-09
2.1921e-09
2.19205e-09
2.19204e-09
2.19196e-09
2.19193e-09
2.19181e-09
2.19176e-09
2.19158e-09
2.19149e-09
2.19125e-09
2.19111e-09
2.19076e-09
2.19056e-09
2.19025e-09
2.1898e-09
2.18829e-09
2.18608e-09
2.1816e-09
2.17412e-09
2.16481e-09
2.13644e-09
2.14531e-09
2.15256e-09
2.15695e-09
2.15924e-09
2.16077e-09
2.16131e-09
2.16158e-09
2.1618e-09
2.16214e-09
2.16229e-09
2.16253e-09
2.16263e-09
2.1628e-09
2.16286e-09
2.16298e-09
2.16301e-09
2.16309e-09
2.1631e-09
2.16315e-09
2.16315e-09
2.16318e-09
2.16317e-09
2.16319e-09
2.16319e-09
2.16319e-09
2.16319e-09
2.16317e-09
2.16318e-09
2.16315e-09
2.16315e-09
2.1631e-09
2.16309e-09
2.16301e-09
2.16298e-09
2.16286e-09
2.1628e-09
2.16263e-09
2.16253e-09
2.16228e-09
2.16214e-09
2.16179e-09
2.16157e-09
2.1613e-09
2.16076e-09
2.15922e-09
2.15694e-09
2.15255e-09
2.14529e-09
2.13643e-09
2.11028e-09
2.11875e-09
2.12575e-09
2.13006e-09
2.13243e-09
2.13396e-09
2.13458e-09
2.13481e-09
2.13508e-09
2.13545e-09
2.13562e-09
2.13588e-09
2.13599e-09
2.13617e-09
2.13624e-09
2.13636e-09
2.1364e-09
2.13648e-09
2.1365e-09
2.13654e-09
2.13655e-09
2.13657e-09
2.13657e-09
2.13658e-09
2.13658e-09
2.13658e-09
2.13658e-09
2.13657e-09
2.13657e-09
2.13655e-09
2.13654e-09
2.13649e-09
2.13648e-09
2.1364e-09
2.13636e-09
2.13624e-09
2.13617e-09
2.13599e-09
2.13587e-09
2.13562e-09
2.13544e-09
2.13508e-09
2.1348e-09
2.13457e-09
2.13395e-09
2.1324e-09
2.13005e-09
2.12573e-09
2.11873e-09
2.11027e-09
2.08698e-09
2.09502e-09
2.10185e-09
2.1061e-09
2.10858e-09
2.11016e-09
2.11088e-09
2.11186e-09
2.11219e-09
2.11258e-09
2.11279e-09
2.11305e-09
2.11319e-09
2.11337e-09
2.11346e-09
2.11358e-09
2.11363e-09
2.11371e-09
2.11373e-09
2.11378e-09
2.11379e-09
2.11381e-09
2.11381e-09
2.11382e-09
2.11382e-09
2.11382e-09
2.11382e-09
2.11381e-09
2.11381e-09
2.11379e-09
2.11378e-09
2.11373e-09
2.11371e-09
2.11363e-09
2.11358e-09
2.11346e-09
2.11337e-09
2.11319e-09
2.11305e-09
2.11278e-09
2.11258e-09
2.11218e-09
2.11185e-09
2.11087e-09
2.11014e-09
2.10856e-09
2.10609e-09
2.10183e-09
2.095e-09
2.08696e-09
2.06724e-09
2.07491e-09
2.08161e-09
2.08581e-09
2.08843e-09
2.09004e-09
2.09086e-09
2.09185e-09
2.09224e-09
2.09266e-09
2.0929e-09
2.09318e-09
2.09334e-09
2.09353e-09
2.09363e-09
2.09375e-09
2.09381e-09
2.09389e-09
2.09391e-09
2.09396e-09
2.09397e-09
2.094e-09
2.094e-09
2.09401e-09
2.09401e-09
2.09401e-09
2.09401e-09
2.094e-09
2.094e-09
2.09397e-09
2.09396e-09
2.09391e-09
2.09389e-09
2.0938e-09
2.09375e-09
2.09362e-09
2.09352e-09
2.09333e-09
2.09317e-09
2.09289e-09
2.09265e-09
2.09223e-09
2.09184e-09
2.09085e-09
2.09002e-09
2.0884e-09
2.08581e-09
2.08159e-09
2.07489e-09
2.06722e-09
2.0502e-09
2.05761e-09
2.06413e-09
2.06831e-09
2.07099e-09
2.07262e-09
2.07352e-09
2.07451e-09
2.07495e-09
2.07538e-09
2.07565e-09
2.07594e-09
2.07611e-09
2.07631e-09
2.07642e-09
2.07655e-09
2.07661e-09
2.07669e-09
2.07672e-09
2.07677e-09
2.07678e-09
2.0768e-09
2.07681e-09
2.07682e-09
2.07682e-09
2.07682e-09
2.07682e-09
2.07681e-09
2.0768e-09
2.07678e-09
2.07677e-09
2.07672e-09
2.07669e-09
2.0766e-09
2.07654e-09
2.07641e-09
2.0763e-09
2.07611e-09
2.07593e-09
2.07564e-09
2.07538e-09
2.07494e-09
2.07449e-09
2.0735e-09
2.0726e-09
2.07096e-09
2.0683e-09
2.06412e-09
2.05759e-09
2.05019e-09
2.03601e-09
2.04312e-09
2.04954e-09
2.05371e-09
2.05654e-09
2.05822e-09
2.05922e-09
2.06023e-09
2.06073e-09
2.0612e-09
2.0615e-09
2.0618e-09
2.06199e-09
2.0622e-09
2.06232e-09
2.06245e-09
2.06252e-09
2.06261e-09
2.06264e-09
2.06269e-09
2.06271e-09
2.06273e-09
2.06273e-09
2.06274e-09
2.06275e-09
2.06275e-09
2.06274e-09
2.06273e-09
2.06273e-09
2.06271e-09
2.06269e-09
2.06264e-09
2.0626e-09
2.06252e-09
2.06245e-09
2.06232e-09
2.06219e-09
2.06199e-09
2.06179e-09
2.06149e-09
2.06119e-09
2.06072e-09
2.06022e-09
2.0592e-09
2.0582e-09
2.05652e-09
2.0537e-09
2.04953e-09
2.0431e-09
2.03599e-09
2.02455e-09
2.03139e-09
2.03772e-09
2.04191e-09
2.04491e-09
2.04663e-09
2.04773e-09
2.04877e-09
2.04934e-09
2.04983e-09
2.05016e-09
2.05048e-09
2.05069e-09
2.05091e-09
2.05104e-09
2.05118e-09
2.05126e-09
2.05134e-09
2.05138e-09
2.05143e-09
2.05145e-09
2.05147e-09
2.05148e-09
2.05149e-09
2.05149e-09
2.05149e-09
2.05149e-09
2.05148e-09
2.05147e-09
2.05145e-09
2.05143e-09
2.05138e-09
2.05134e-09
2.05126e-09
2.05118e-09
2.05104e-09
2.0509e-09
2.05069e-09
2.05047e-09
2.05015e-09
2.04982e-09
2.04932e-09
2.04876e-09
2.04771e-09
2.04661e-09
2.04488e-09
2.04189e-09
2.0377e-09
2.03137e-09
2.02452e-09
2.04291e-09
2.04296e-09
2.04298e-09
2.04301e-09
2.04301e-09
2.04302e-09
2.04303e-09
2.04303e-09
2.04302e-09
2.04301e-09
2.04301e-09
2.04298e-09
2.04296e-09
2.04291e-09
2.04286e-09
2.04278e-09
2.04269e-09
2.04255e-09
2.0424e-09
2.04217e-09
2.04194e-09
2.0416e-09
2.04124e-09
2.04071e-09
2.04009e-09
2.039e-09
2.0378e-09
2.03601e-09
2.03285e-09
2.02863e-09
2.02236e-09
2.01575e-09
2.0373e-09
2.03728e-09
2.03725e-09
2.0372e-09
2.03715e-09
2.03706e-09
2.03696e-09
2.03681e-09
2.03665e-09
2.03642e-09
2.03616e-09
2.03581e-09
2.03541e-09
2.03485e-09
2.03417e-09
2.03304e-09
2.03174e-09
2.02988e-09
2.02655e-09
2.02228e-09
2.01603e-09
2.00965e-09
2.03232e-09
2.03173e-09
2.03099e-09
2.02981e-09
2.02841e-09
2.02647e-09
2.02296e-09
2.01864e-09
2.01238e-09
2.00619e-09
)
;

boundaryField
{
    fuel
    {
        type            fixedValue;
        value           nonuniform 0();
    }
    wall
    {
        type            zeroGradient;
    }
    outlet
    {
        type            zeroGradient;
    }
    frontAndBack
    {
        type            empty;
    }
    procBoundary0to1
    {
        type            processor;
        value           nonuniform List<scalar> 
50
(
6.38869e-09
6.43761e-09
6.48292e-09
6.50579e-09
6.51218e-09
6.517e-09
6.51421e-09
6.51558e-09
6.51321e-09
6.51412e-09
6.51272e-09
6.51343e-09
6.51255e-09
6.51307e-09
6.5125e-09
6.51291e-09
6.5125e-09
6.51284e-09
6.51258e-09
6.51279e-09
6.51262e-09
6.51274e-09
6.51263e-09
6.5127e-09
6.51267e-09
6.51267e-09
6.5127e-09
6.51263e-09
6.51274e-09
6.51262e-09
6.51279e-09
6.51258e-09
6.51284e-09
6.51251e-09
6.51291e-09
6.5125e-09
6.51308e-09
6.51255e-09
6.51343e-09
6.51272e-09
6.51411e-09
6.5132e-09
6.51558e-09
6.51421e-09
6.51698e-09
6.51217e-09
6.50578e-09
6.48291e-09
6.4376e-09
6.38868e-09
)
;
    }
    procBoundary0to2
    {
        type            processor;
        value           nonuniform List<scalar> 
53
(
2.01577e-09
2.02238e-09
2.02865e-09
2.03287e-09
2.03603e-09
2.03782e-09
2.03902e-09
2.0401e-09
2.04072e-09
2.04125e-09
2.04161e-09
2.04195e-09
2.04218e-09
2.0424e-09
2.04255e-09
2.04269e-09
2.04278e-09
2.04287e-09
2.04287e-09
2.0372e-09
2.03725e-09
2.03728e-09
2.0373e-09
2.03731e-09
2.03732e-09
2.03732e-09
2.03732e-09
2.03732e-09
2.03731e-09
2.03731e-09
2.03433e-09
2.0343e-09
2.03427e-09
2.03422e-09
2.03416e-09
2.03407e-09
2.03397e-09
2.03381e-09
2.03364e-09
2.03339e-09
2.03312e-09
2.03275e-09
2.03275e-09
2.03193e-09
2.03131e-09
2.03051e-09
2.02928e-09
2.02777e-09
2.02578e-09
2.02204e-09
2.01768e-09
2.01138e-09
2.00536e-09
)
;
    }
}


// ************************************************************************* //
