/*--------------------------------*- C++ -*----------------------------------*\
| =========                 |                                                 |
| \\      /  F ield         | OpenFOAM: The Open Source CFD Toolbox           |
|  \\    /   O peration     | Version:  dev                                   |
|   \\  /    A nd           | Web:      www.OpenFOAM.org                      |
|    \\/     M anipulation  |                                                 |
\*---------------------------------------------------------------------------*/
FoamFile
{
    version     2.0;
    format      ascii;
    class       volScalarField;
    location    "0.06";
    object      P2;
}
// * * * * * * * * * * * * * * * * * * * * * * * * * * * * * * * * * * * * * //

dimensions      [0 0 0 0 0 0 0];

internalField   nonuniform List<scalar> 
2014
(
1.3957e-09
1.40627e-09
1.41578e-09
1.42053e-09
1.42144e-09
1.42241e-09
1.42157e-09
1.42196e-09
1.42137e-09
1.42167e-09
1.42134e-09
1.42156e-09
1.42135e-09
1.42151e-09
1.42137e-09
1.42149e-09
1.42139e-09
1.42149e-09
1.42142e-09
1.42148e-09
1.42144e-09
1.42147e-09
1.42144e-09
1.42146e-09
1.42146e-09
1.42146e-09
1.42146e-09
1.42144e-09
1.42147e-09
1.42144e-09
1.42148e-09
1.42142e-09
1.42149e-09
1.42139e-09
1.42149e-09
1.42137e-09
1.42151e-09
1.42135e-09
1.42156e-09
1.42134e-09
1.42167e-09
1.42137e-09
1.42196e-09
1.42157e-09
1.42241e-09
1.42144e-09
1.42052e-09
1.41578e-09
1.40627e-09
1.3957e-09
1.2996e-09
1.30948e-09
1.31822e-09
1.3226e-09
1.32348e-09
1.32438e-09
1.32363e-09
1.32398e-09
1.32345e-09
1.32372e-09
1.32342e-09
1.32362e-09
1.32343e-09
1.32358e-09
1.32345e-09
1.32356e-09
1.32347e-09
1.32356e-09
1.3235e-09
1.32355e-09
1.32351e-09
1.32354e-09
1.32352e-09
1.32354e-09
1.32353e-09
1.32353e-09
1.32354e-09
1.32352e-09
1.32354e-09
1.32351e-09
1.32355e-09
1.3235e-09
1.32356e-09
1.32347e-09
1.32356e-09
1.32345e-09
1.32358e-09
1.32343e-09
1.32362e-09
1.32342e-09
1.32372e-09
1.32345e-09
1.32398e-09
1.32363e-09
1.32438e-09
1.32348e-09
1.3226e-09
1.31821e-09
1.30948e-09
1.2996e-09
1.21439e-09
1.22366e-09
1.23168e-09
1.23573e-09
1.23659e-09
1.23742e-09
1.23675e-09
1.23707e-09
1.23659e-09
1.23683e-09
1.23656e-09
1.23674e-09
1.23657e-09
1.2367e-09
1.23659e-09
1.23669e-09
1.23661e-09
1.23669e-09
1.23663e-09
1.23668e-09
1.23665e-09
1.23668e-09
1.23665e-09
1.23667e-09
1.23666e-09
1.23666e-09
1.23667e-09
1.23665e-09
1.23668e-09
1.23665e-09
1.23668e-09
1.23663e-09
1.23669e-09
1.23661e-09
1.23669e-09
1.23659e-09
1.2367e-09
1.23657e-09
1.23674e-09
1.23656e-09
1.23683e-09
1.23659e-09
1.23707e-09
1.23675e-09
1.23742e-09
1.23658e-09
1.23573e-09
1.23168e-09
1.22365e-09
1.21438e-09
1.13855e-09
1.14728e-09
1.15465e-09
1.15841e-09
1.15923e-09
1.16001e-09
1.15941e-09
1.15969e-09
1.15926e-09
1.15947e-09
1.15924e-09
1.1594e-09
1.15925e-09
1.15937e-09
1.15927e-09
1.15935e-09
1.15928e-09
1.15935e-09
1.15931e-09
1.15935e-09
1.15932e-09
1.15934e-09
1.15932e-09
1.15934e-09
1.15933e-09
1.15933e-09
1.15934e-09
1.15932e-09
1.15934e-09
1.15932e-09
1.15935e-09
1.15931e-09
1.15935e-09
1.15928e-09
1.15936e-09
1.15927e-09
1.15937e-09
1.15925e-09
1.1594e-09
1.15924e-09
1.15947e-09
1.15926e-09
1.15969e-09
1.15941e-09
1.16e-09
1.15922e-09
1.1584e-09
1.15464e-09
1.14727e-09
1.13855e-09
1.07083e-09
1.07905e-09
1.08585e-09
1.08934e-09
1.09012e-09
1.09085e-09
1.09032e-09
1.09057e-09
1.09019e-09
1.09038e-09
1.09016e-09
1.09031e-09
1.09017e-09
1.09028e-09
1.09019e-09
1.09027e-09
1.09021e-09
1.09027e-09
1.09023e-09
1.09027e-09
1.09024e-09
1.09027e-09
1.09025e-09
1.09026e-09
1.09026e-09
1.09026e-09
1.09026e-09
1.09025e-09
1.09027e-09
1.09024e-09
1.09027e-09
1.09023e-09
1.09027e-09
1.09021e-09
1.09027e-09
1.09019e-09
1.09028e-09
1.09017e-09
1.09031e-09
1.09016e-09
1.09038e-09
1.09019e-09
1.09057e-09
1.09031e-09
1.09085e-09
1.09012e-09
1.08933e-09
1.08585e-09
1.07905e-09
1.07083e-09
1.01016e-09
1.01792e-09
1.0242e-09
1.02743e-09
1.02818e-09
1.02887e-09
1.02839e-09
1.02862e-09
1.02828e-09
1.02845e-09
1.02826e-09
1.02839e-09
1.02827e-09
1.02837e-09
1.02829e-09
1.02836e-09
1.0283e-09
1.02836e-09
1.02832e-09
1.02836e-09
1.02834e-09
1.02836e-09
1.02834e-09
1.02835e-09
1.02835e-09
1.02835e-09
1.02835e-09
1.02834e-09
1.02836e-09
1.02834e-09
1.02836e-09
1.02832e-09
1.02836e-09
1.0283e-09
1.02836e-09
1.02829e-09
1.02837e-09
1.02827e-09
1.02839e-09
1.02826e-09
1.02845e-09
1.02828e-09
1.02862e-09
1.02839e-09
1.02887e-09
1.02818e-09
1.02743e-09
1.0242e-09
1.01792e-09
1.01015e-09
9.5562e-10
9.62963e-10
9.68776e-10
9.71772e-10
9.72492e-10
9.73137e-10
9.72709e-10
9.72924e-10
9.72615e-10
9.72769e-10
9.72596e-10
9.72719e-10
9.7261e-10
9.727e-10
9.72628e-10
9.72696e-10
9.72644e-10
9.72699e-10
9.72664e-10
9.72699e-10
9.72675e-10
9.72695e-10
9.7268e-10
9.72691e-10
9.72687e-10
9.72687e-10
9.72691e-10
9.72681e-10
9.72696e-10
9.72676e-10
9.72699e-10
9.72664e-10
9.72699e-10
9.72644e-10
9.72697e-10
9.72628e-10
9.727e-10
9.7261e-10
9.72718e-10
9.72597e-10
9.72769e-10
9.72614e-10
9.72923e-10
9.72708e-10
9.73134e-10
9.7249e-10
9.7177e-10
9.68773e-10
9.62961e-10
9.55618e-10
9.06452e-10
9.13407e-10
9.18792e-10
9.21578e-10
9.22267e-10
9.22875e-10
9.22494e-10
9.22692e-10
9.22415e-10
9.22556e-10
9.22401e-10
9.22513e-10
9.22416e-10
9.22499e-10
9.22434e-10
9.22497e-10
9.2245e-10
9.22501e-10
9.2247e-10
9.22502e-10
9.22481e-10
9.22499e-10
9.22486e-10
9.22496e-10
9.22492e-10
9.22492e-10
9.22496e-10
9.22486e-10
9.225e-10
9.22481e-10
9.22502e-10
9.2247e-10
9.22502e-10
9.22451e-10
9.22498e-10
9.22434e-10
9.22499e-10
9.22416e-10
9.22512e-10
9.22401e-10
9.22555e-10
9.22414e-10
9.22691e-10
9.22493e-10
9.22872e-10
9.22265e-10
9.21575e-10
9.18788e-10
9.13405e-10
9.06451e-10
8.61999e-10
8.6859e-10
8.73586e-10
8.7618e-10
8.76841e-10
8.77416e-10
8.77077e-10
8.77262e-10
8.77013e-10
8.77143e-10
8.77004e-10
8.77108e-10
8.77021e-10
8.77098e-10
8.7704e-10
8.77099e-10
8.77057e-10
8.77104e-10
8.77075e-10
8.77106e-10
8.77086e-10
8.77103e-10
8.77091e-10
8.771e-10
8.77097e-10
8.77097e-10
8.771e-10
8.77091e-10
8.77104e-10
8.77086e-10
8.77106e-10
8.77076e-10
8.77104e-10
8.77057e-10
8.77099e-10
8.7704e-10
8.77098e-10
8.77021e-10
8.77107e-10
8.77004e-10
8.77142e-10
8.77012e-10
8.77261e-10
8.77076e-10
8.77413e-10
8.76839e-10
8.76178e-10
8.73583e-10
8.68588e-10
8.61997e-10
8.217e-10
8.27949e-10
8.32593e-10
8.35012e-10
8.35646e-10
8.36191e-10
8.35891e-10
8.36064e-10
8.35842e-10
8.35962e-10
8.35839e-10
8.35935e-10
8.35857e-10
8.35929e-10
8.35877e-10
8.35932e-10
8.35895e-10
8.35938e-10
8.35913e-10
8.35941e-10
8.35923e-10
8.3594e-10
8.35928e-10
8.35937e-10
8.35933e-10
8.35934e-10
8.35937e-10
8.35928e-10
8.3594e-10
8.35924e-10
8.35941e-10
8.35913e-10
8.35939e-10
8.35895e-10
8.35933e-10
8.35878e-10
8.35929e-10
8.35858e-10
8.35934e-10
8.35839e-10
8.35961e-10
8.35841e-10
8.36063e-10
8.3589e-10
8.36189e-10
8.35644e-10
8.3501e-10
8.32589e-10
8.27948e-10
8.21698e-10
7.85078e-10
7.91001e-10
7.95327e-10
7.97587e-10
7.98196e-10
7.98714e-10
7.9845e-10
7.98613e-10
7.98415e-10
7.98527e-10
7.98418e-10
7.98508e-10
7.98439e-10
7.98506e-10
7.9846e-10
7.98512e-10
7.98478e-10
7.98519e-10
7.98496e-10
7.98523e-10
7.98506e-10
7.98522e-10
7.98511e-10
7.98519e-10
7.98516e-10
7.98516e-10
7.98519e-10
7.98512e-10
7.98522e-10
7.98507e-10
7.98523e-10
7.98497e-10
7.98519e-10
7.98479e-10
7.98512e-10
7.98461e-10
7.98507e-10
7.98439e-10
7.98507e-10
7.98418e-10
7.98527e-10
7.98415e-10
7.98612e-10
7.98449e-10
7.98712e-10
7.98194e-10
7.97584e-10
7.95322e-10
7.91001e-10
7.85076e-10
7.51723e-10
7.57333e-10
7.61372e-10
7.63486e-10
7.64074e-10
7.64567e-10
7.64336e-10
7.64492e-10
7.64317e-10
7.64422e-10
7.64326e-10
7.6441e-10
7.6435e-10
7.64413e-10
7.64372e-10
7.64421e-10
7.64391e-10
7.64429e-10
7.64409e-10
7.64433e-10
7.64419e-10
7.64433e-10
7.64423e-10
7.64431e-10
7.64428e-10
7.64428e-10
7.64431e-10
7.64424e-10
7.64433e-10
7.64419e-10
7.64434e-10
7.64409e-10
7.64429e-10
7.64391e-10
7.64421e-10
7.64373e-10
7.64413e-10
7.6435e-10
7.6441e-10
7.64326e-10
7.64422e-10
7.64316e-10
7.64491e-10
7.64335e-10
7.64565e-10
7.64072e-10
7.63484e-10
7.61367e-10
7.57333e-10
7.51722e-10
7.21284e-10
7.26589e-10
7.30371e-10
7.32352e-10
7.32921e-10
7.33392e-10
7.33193e-10
7.33342e-10
7.33188e-10
7.33288e-10
7.33204e-10
7.33283e-10
7.33231e-10
7.33291e-10
7.33255e-10
7.333e-10
7.33274e-10
7.3331e-10
7.33292e-10
7.33315e-10
7.33302e-10
7.33315e-10
7.33307e-10
7.33314e-10
7.33311e-10
7.33311e-10
7.33314e-10
7.33307e-10
7.33315e-10
7.33302e-10
7.33315e-10
7.33292e-10
7.3331e-10
7.33275e-10
7.33301e-10
7.33255e-10
7.33291e-10
7.33231e-10
7.33283e-10
7.33204e-10
7.33288e-10
7.33187e-10
7.33341e-10
7.33191e-10
7.3339e-10
7.32919e-10
7.3235e-10
7.30365e-10
7.2659e-10
7.21283e-10
6.93457e-10
6.98464e-10
7.02016e-10
7.03878e-10
7.04428e-10
7.0488e-10
7.04709e-10
7.04854e-10
7.0472e-10
7.04816e-10
7.04743e-10
7.04819e-10
7.04773e-10
7.0483e-10
7.04799e-10
7.04843e-10
7.04819e-10
7.04853e-10
7.04837e-10
7.04859e-10
7.04847e-10
7.0486e-10
7.04852e-10
7.04858e-10
7.04856e-10
7.04856e-10
7.04858e-10
7.04852e-10
7.0486e-10
7.04848e-10
7.04859e-10
7.04837e-10
7.04854e-10
7.0482e-10
7.04843e-10
7.048e-10
7.04831e-10
7.04773e-10
7.04819e-10
7.04743e-10
7.04815e-10
7.04719e-10
7.04853e-10
7.04708e-10
7.04878e-10
7.04426e-10
7.03875e-10
7.02009e-10
6.98466e-10
6.93455e-10
6.67976e-10
6.72696e-10
6.76042e-10
6.77795e-10
6.78327e-10
6.78764e-10
6.78621e-10
6.78762e-10
6.78647e-10
6.78739e-10
6.78677e-10
6.7875e-10
6.78711e-10
6.78766e-10
6.78739e-10
6.78781e-10
6.7876e-10
6.78792e-10
6.78778e-10
6.78799e-10
6.78788e-10
6.788e-10
6.78793e-10
6.78799e-10
6.78797e-10
6.78797e-10
6.78799e-10
6.78793e-10
6.788e-10
6.78789e-10
6.78799e-10
6.78778e-10
6.78793e-10
6.78761e-10
6.78781e-10
6.7874e-10
6.78766e-10
6.78712e-10
6.7875e-10
6.78677e-10
6.78739e-10
6.78646e-10
6.78761e-10
6.7862e-10
6.78762e-10
6.78325e-10
6.77792e-10
6.76033e-10
6.727e-10
6.67975e-10
6.44615e-10
6.49058e-10
6.52218e-10
6.53873e-10
6.5439e-10
6.54813e-10
6.54696e-10
6.54836e-10
6.54738e-10
6.54828e-10
6.54776e-10
6.54847e-10
6.54815e-10
6.54867e-10
6.54845e-10
6.54884e-10
6.54867e-10
6.54897e-10
6.54885e-10
6.54905e-10
6.54895e-10
6.54906e-10
6.549e-10
6.54906e-10
6.54904e-10
6.54904e-10
6.54906e-10
6.549e-10
6.54907e-10
6.54896e-10
6.54905e-10
6.54885e-10
6.54898e-10
6.54867e-10
6.54885e-10
6.54845e-10
6.54868e-10
6.54815e-10
6.54847e-10
6.54776e-10
6.54828e-10
6.54737e-10
6.54835e-10
6.54695e-10
6.54812e-10
6.54388e-10
6.5387e-10
6.52207e-10
6.49063e-10
6.44615e-10
6.23177e-10
6.27353e-10
6.30346e-10
6.31912e-10
6.32416e-10
6.32828e-10
6.32737e-10
6.32875e-10
6.32794e-10
6.32883e-10
6.32841e-10
6.3291e-10
6.32884e-10
6.32935e-10
6.32916e-10
6.32954e-10
6.32939e-10
6.32968e-10
6.32958e-10
6.32976e-10
6.32968e-10
6.32979e-10
6.32973e-10
6.32978e-10
6.32977e-10
6.32977e-10
6.32978e-10
6.32973e-10
6.32979e-10
6.32968e-10
6.32977e-10
6.32958e-10
6.32969e-10
6.3294e-10
6.32955e-10
6.32916e-10
6.32935e-10
6.32884e-10
6.3291e-10
6.32841e-10
6.32883e-10
6.32794e-10
6.32874e-10
6.32735e-10
6.32827e-10
6.32414e-10
6.31909e-10
6.30333e-10
6.27361e-10
6.23176e-10
6.03489e-10
6.07411e-10
6.10254e-10
6.11738e-10
6.12232e-10
6.12636e-10
6.12568e-10
6.12706e-10
6.12642e-10
6.1273e-10
6.12698e-10
6.12765e-10
6.12745e-10
6.12795e-10
6.1278e-10
6.12817e-10
6.12805e-10
6.12833e-10
6.12823e-10
6.12841e-10
6.12834e-10
6.12844e-10
6.12839e-10
6.12844e-10
6.12843e-10
6.12843e-10
6.12844e-10
6.12839e-10
6.12844e-10
6.12834e-10
6.12842e-10
6.12824e-10
6.12833e-10
6.12805e-10
6.12817e-10
6.12781e-10
6.12795e-10
6.12745e-10
6.12765e-10
6.12698e-10
6.1273e-10
6.12642e-10
6.12706e-10
6.12567e-10
6.12634e-10
6.1223e-10
6.11735e-10
6.10237e-10
6.07423e-10
6.03489e-10
5.85403e-10
5.89084e-10
5.91792e-10
5.93202e-10
5.93688e-10
5.94085e-10
5.94041e-10
5.9418e-10
5.94132e-10
5.9422e-10
5.94196e-10
5.94264e-10
5.94249e-10
5.94298e-10
5.94287e-10
5.94323e-10
5.94313e-10
5.9434e-10
5.94332e-10
5.94349e-10
5.94343e-10
5.94353e-10
5.94348e-10
5.94353e-10
5.94351e-10
5.94351e-10
5.94353e-10
5.94348e-10
5.94353e-10
5.94343e-10
5.94349e-10
5.94332e-10
5.9434e-10
5.94313e-10
5.94323e-10
5.94287e-10
5.94298e-10
5.94249e-10
5.94263e-10
5.94196e-10
5.9422e-10
5.94131e-10
5.94179e-10
5.94039e-10
5.94083e-10
5.93686e-10
5.93199e-10
5.91771e-10
5.89099e-10
5.85403e-10
5.68789e-10
5.72239e-10
5.74834e-10
5.76171e-10
5.76653e-10
5.77044e-10
5.77023e-10
5.77165e-10
5.77132e-10
5.77221e-10
5.77207e-10
5.77273e-10
5.77265e-10
5.77313e-10
5.77305e-10
5.7734e-10
5.77333e-10
5.77359e-10
5.77352e-10
5.77369e-10
5.77364e-10
5.77373e-10
5.77369e-10
5.77373e-10
5.77372e-10
5.77372e-10
5.77374e-10
5.77369e-10
5.77373e-10
5.77364e-10
5.77369e-10
5.77353e-10
5.77359e-10
5.77333e-10
5.77341e-10
5.77306e-10
5.77313e-10
5.77265e-10
5.77273e-10
5.77207e-10
5.77221e-10
5.77131e-10
5.77164e-10
5.77022e-10
5.77043e-10
5.76651e-10
5.76168e-10
5.74808e-10
5.72259e-10
5.68789e-10
5.53534e-10
5.56771e-10
5.59259e-10
5.60533e-10
5.61013e-10
5.61401e-10
5.61403e-10
5.61547e-10
5.61529e-10
5.6162e-10
5.61614e-10
5.61681e-10
5.61678e-10
5.61726e-10
5.61722e-10
5.61756e-10
5.61751e-10
5.61776e-10
5.61771e-10
5.61787e-10
5.61783e-10
5.61792e-10
5.61788e-10
5.61793e-10
5.61792e-10
5.61792e-10
5.61793e-10
5.61788e-10
5.61792e-10
5.61783e-10
5.61788e-10
5.61772e-10
5.61776e-10
5.61751e-10
5.61757e-10
5.61722e-10
5.61726e-10
5.61678e-10
5.61681e-10
5.61614e-10
5.6162e-10
5.61529e-10
5.61546e-10
5.61402e-10
5.61399e-10
5.61011e-10
5.6053e-10
5.59237e-10
5.56787e-10
5.53534e-10
5.3954e-10
5.42583e-10
5.44968e-10
5.46187e-10
5.46669e-10
5.47055e-10
5.47079e-10
5.47227e-10
5.47225e-10
5.47318e-10
5.47321e-10
5.47388e-10
5.47391e-10
5.47439e-10
5.47438e-10
5.47472e-10
5.47469e-10
5.47493e-10
5.4749e-10
5.47505e-10
5.47502e-10
5.4751e-10
5.47507e-10
5.47511e-10
5.4751e-10
5.4751e-10
5.47511e-10
5.47507e-10
5.4751e-10
5.47502e-10
5.47506e-10
5.4749e-10
5.47494e-10
5.47469e-10
5.47472e-10
5.47438e-10
5.47439e-10
5.47391e-10
5.47388e-10
5.47321e-10
5.47317e-10
5.47224e-10
5.47227e-10
5.47078e-10
5.47053e-10
5.46667e-10
5.46184e-10
5.44951e-10
5.42595e-10
5.3954e-10
5.26725e-10
5.29587e-10
5.31876e-10
5.33048e-10
5.33534e-10
5.3392e-10
5.33967e-10
5.3412e-10
5.34133e-10
5.34228e-10
5.3424e-10
5.34309e-10
5.34316e-10
5.34364e-10
5.34367e-10
5.34401e-10
5.344e-10
5.34424e-10
5.34422e-10
5.34437e-10
5.34434e-10
5.34442e-10
5.3444e-10
5.34444e-10
5.34443e-10
5.34443e-10
5.34444e-10
5.3444e-10
5.34442e-10
5.34434e-10
5.34437e-10
5.34422e-10
5.34424e-10
5.344e-10
5.34401e-10
5.34367e-10
5.34365e-10
5.34316e-10
5.34308e-10
5.3424e-10
5.34228e-10
5.34132e-10
5.34119e-10
5.33966e-10
5.33918e-10
5.33532e-10
5.33045e-10
5.31862e-10
5.29596e-10
5.26724e-10
5.15013e-10
5.1771e-10
5.19907e-10
5.2104e-10
5.21534e-10
5.21922e-10
5.21992e-10
5.2215e-10
5.22177e-10
5.22276e-10
5.22297e-10
5.22367e-10
5.2238e-10
5.22429e-10
5.22435e-10
5.22468e-10
5.22469e-10
5.22493e-10
5.22492e-10
5.22507e-10
5.22505e-10
5.22513e-10
5.22511e-10
5.22515e-10
5.22514e-10
5.22514e-10
5.22515e-10
5.22511e-10
5.22513e-10
5.22505e-10
5.22507e-10
5.22493e-10
5.22493e-10
5.2247e-10
5.22468e-10
5.22435e-10
5.22429e-10
5.2238e-10
5.22367e-10
5.22297e-10
5.22276e-10
5.22177e-10
5.22149e-10
5.21991e-10
5.2192e-10
5.21532e-10
5.21037e-10
5.19896e-10
5.17716e-10
5.15012e-10
5.04342e-10
5.06886e-10
5.08997e-10
5.10097e-10
5.10603e-10
5.10994e-10
5.11087e-10
5.11251e-10
5.11294e-10
5.11397e-10
5.11426e-10
5.11498e-10
5.11517e-10
5.11566e-10
5.11576e-10
5.11609e-10
5.11612e-10
5.11635e-10
5.11636e-10
5.1165e-10
5.11649e-10
5.11657e-10
5.11655e-10
5.11659e-10
5.11659e-10
5.11659e-10
5.11659e-10
5.11656e-10
5.11657e-10
5.1165e-10
5.11651e-10
5.11637e-10
5.11636e-10
5.11613e-10
5.11609e-10
5.11576e-10
5.11566e-10
5.11517e-10
5.11498e-10
5.11426e-10
5.11397e-10
5.11294e-10
5.11251e-10
5.11086e-10
5.10992e-10
5.10601e-10
5.10094e-10
5.08987e-10
5.06889e-10
5.04341e-10
4.94986e-10
4.97404e-10
4.99435e-10
5.00514e-10
5.01033e-10
5.0143e-10
5.01545e-10
5.01716e-10
5.01772e-10
5.0188e-10
5.01917e-10
5.01991e-10
5.02015e-10
5.02065e-10
5.02078e-10
5.02111e-10
5.02117e-10
5.0214e-10
5.02142e-10
5.02156e-10
5.02155e-10
5.02163e-10
5.02162e-10
5.02165e-10
5.02165e-10
5.02165e-10
5.02165e-10
5.02162e-10
5.02163e-10
5.02156e-10
5.02156e-10
5.02142e-10
5.0214e-10
5.02117e-10
5.02112e-10
5.02078e-10
5.02065e-10
5.02015e-10
5.01991e-10
5.01917e-10
5.01879e-10
5.01772e-10
5.01715e-10
5.01544e-10
5.01428e-10
5.0103e-10
5.00511e-10
4.99427e-10
4.97407e-10
4.94985e-10
4.86497e-10
4.88812e-10
4.90735e-10
4.91779e-10
4.92287e-10
4.92676e-10
4.92799e-10
4.92967e-10
4.93031e-10
4.93139e-10
4.93181e-10
4.93255e-10
4.93282e-10
4.93332e-10
4.93347e-10
4.93381e-10
4.93387e-10
4.9341e-10
4.93412e-10
4.93426e-10
4.93426e-10
4.93434e-10
4.93433e-10
4.93436e-10
4.93436e-10
4.93436e-10
4.93436e-10
4.93433e-10
4.93434e-10
4.93427e-10
4.93426e-10
4.93413e-10
4.9341e-10
4.93388e-10
4.93381e-10
4.93347e-10
4.93332e-10
4.93282e-10
4.93255e-10
4.93181e-10
4.93139e-10
4.9303e-10
4.92966e-10
4.92798e-10
4.92674e-10
4.92285e-10
4.91776e-10
4.90728e-10
4.88813e-10
4.86496e-10
4.78696e-10
4.80896e-10
4.82745e-10
4.83777e-10
4.84306e-10
4.84703e-10
4.84849e-10
4.85025e-10
4.85104e-10
4.85217e-10
4.85268e-10
4.85345e-10
4.85377e-10
4.85429e-10
4.85447e-10
4.85481e-10
4.8549e-10
4.85512e-10
4.85516e-10
4.8553e-10
4.8553e-10
4.85538e-10
4.85537e-10
4.8554e-10
4.8554e-10
4.8554e-10
4.8554e-10
4.85537e-10
4.85538e-10
4.85531e-10
4.8553e-10
4.85516e-10
4.85512e-10
4.8549e-10
4.85481e-10
4.85447e-10
4.85429e-10
4.85377e-10
4.85344e-10
4.85268e-10
4.85217e-10
4.85103e-10
4.85024e-10
4.84848e-10
4.84701e-10
4.84303e-10
4.83774e-10
4.8274e-10
4.80896e-10
4.78695e-10
4.71768e-10
4.7386e-10
4.75647e-10
4.7667e-10
4.77222e-10
4.77629e-10
4.77799e-10
4.77983e-10
4.78077e-10
4.78196e-10
4.78256e-10
4.78336e-10
4.78374e-10
4.78427e-10
4.78449e-10
4.78483e-10
4.78494e-10
4.78517e-10
4.78522e-10
4.78535e-10
4.78537e-10
4.78544e-10
4.78544e-10
4.78547e-10
4.78547e-10
4.78547e-10
4.78547e-10
4.78544e-10
4.78544e-10
4.78537e-10
4.78536e-10
4.78522e-10
4.78517e-10
4.78495e-10
4.78484e-10
4.78449e-10
4.78427e-10
4.78374e-10
4.78336e-10
4.78256e-10
4.78196e-10
4.78076e-10
4.77982e-10
4.77798e-10
4.77627e-10
4.77219e-10
4.76667e-10
4.75642e-10
4.73859e-10
4.71766e-10
4.65683e-10
4.67672e-10
4.69412e-10
4.70427e-10
4.71007e-10
4.71425e-10
4.7162e-10
4.71813e-10
4.71923e-10
4.72048e-10
4.72118e-10
4.72201e-10
4.72244e-10
4.72299e-10
4.72325e-10
4.7236e-10
4.72373e-10
4.72395e-10
4.72402e-10
4.72415e-10
4.72418e-10
4.72425e-10
4.72425e-10
4.72428e-10
4.72428e-10
4.72428e-10
4.72428e-10
4.72425e-10
4.72425e-10
4.72418e-10
4.72415e-10
4.72402e-10
4.72395e-10
4.72373e-10
4.7236e-10
4.72325e-10
4.72299e-10
4.72244e-10
4.722e-10
4.72117e-10
4.72048e-10
4.71922e-10
4.71812e-10
4.71619e-10
4.71423e-10
4.71003e-10
4.70425e-10
4.69408e-10
4.67671e-10
4.65681e-10
4.60419e-10
4.62315e-10
4.64013e-10
4.65027e-10
4.65637e-10
4.66069e-10
4.66289e-10
4.66491e-10
4.66617e-10
4.6675e-10
4.66828e-10
4.66915e-10
4.66965e-10
4.67021e-10
4.67051e-10
4.67086e-10
4.67102e-10
4.67124e-10
4.67132e-10
4.67145e-10
4.67149e-10
4.67156e-10
4.67156e-10
4.67159e-10
4.6716e-10
4.6716e-10
4.67159e-10
4.67156e-10
4.67156e-10
4.67149e-10
4.67146e-10
4.67133e-10
4.67124e-10
4.67102e-10
4.67086e-10
4.67051e-10
4.67021e-10
4.66964e-10
4.66915e-10
4.66828e-10
4.66749e-10
4.66616e-10
4.6649e-10
4.66288e-10
4.66066e-10
4.65633e-10
4.65024e-10
4.64009e-10
4.62313e-10
4.60416e-10
4.56105e-10
4.5792e-10
4.59591e-10
4.60605e-10
4.61248e-10
4.61694e-10
4.6194e-10
4.62151e-10
4.62293e-10
4.62433e-10
4.62521e-10
4.62611e-10
4.62667e-10
4.62725e-10
4.62758e-10
4.62795e-10
4.62813e-10
4.62835e-10
4.62845e-10
4.62858e-10
4.62862e-10
4.62868e-10
4.6287e-10
4.62873e-10
4.62873e-10
4.62873e-10
4.62873e-10
4.6287e-10
4.62869e-10
4.62862e-10
4.62858e-10
4.62845e-10
4.62835e-10
4.62813e-10
4.62795e-10
4.62758e-10
4.62725e-10
4.62666e-10
4.62611e-10
4.6252e-10
4.62432e-10
4.62292e-10
4.6215e-10
4.61938e-10
4.61692e-10
4.61244e-10
4.60603e-10
4.59587e-10
4.57918e-10
4.56103e-10
4.52566e-10
4.54303e-10
4.5596e-10
4.56975e-10
4.57656e-10
4.58119e-10
4.58391e-10
4.58608e-10
4.58761e-10
4.58906e-10
4.59001e-10
4.59094e-10
4.59154e-10
4.59214e-10
4.5925e-10
4.59287e-10
4.59306e-10
4.59329e-10
4.59339e-10
4.59352e-10
4.59357e-10
4.59364e-10
4.59365e-10
4.59368e-10
4.59369e-10
4.59369e-10
4.59368e-10
4.59365e-10
4.59364e-10
4.59357e-10
4.59353e-10
4.5934e-10
4.59329e-10
4.59306e-10
4.59287e-10
4.59249e-10
4.59213e-10
4.59153e-10
4.59093e-10
4.59e-10
4.58906e-10
4.5876e-10
4.58607e-10
4.58389e-10
4.58116e-10
4.57651e-10
4.56973e-10
4.55956e-10
4.543e-10
4.52563e-10
4.49709e-10
4.51379e-10
4.5302e-10
4.54043e-10
4.54764e-10
4.55243e-10
4.55542e-10
4.55767e-10
4.55936e-10
4.56089e-10
4.56193e-10
4.5629e-10
4.56356e-10
4.56418e-10
4.56458e-10
4.56496e-10
4.56518e-10
4.56541e-10
4.56553e-10
4.56566e-10
4.56572e-10
4.56578e-10
4.5658e-10
4.56583e-10
4.56583e-10
4.56583e-10
4.56583e-10
4.5658e-10
4.56578e-10
4.56572e-10
4.56566e-10
4.56553e-10
4.56541e-10
4.56518e-10
4.56496e-10
4.56457e-10
4.56418e-10
4.56355e-10
4.56289e-10
4.56192e-10
4.56088e-10
4.55935e-10
4.55765e-10
4.5554e-10
4.5524e-10
4.54759e-10
4.54041e-10
4.53016e-10
4.51375e-10
4.49705e-10
4.47618e-10
4.49221e-10
4.50862e-10
4.51896e-10
4.52668e-10
4.53165e-10
4.53495e-10
4.53795e-10
4.53981e-10
4.54143e-10
4.54256e-10
4.54359e-10
4.5443e-10
4.54495e-10
4.54539e-10
4.54578e-10
4.54603e-10
4.54626e-10
4.54639e-10
4.54652e-10
4.54659e-10
4.54665e-10
4.54668e-10
4.5467e-10
4.54671e-10
4.54671e-10
4.5467e-10
4.54668e-10
4.54665e-10
4.54659e-10
4.54653e-10
4.54639e-10
4.54626e-10
4.54602e-10
4.54578e-10
4.54538e-10
4.54494e-10
4.54429e-10
4.54357e-10
4.54255e-10
4.54142e-10
4.5398e-10
4.53793e-10
4.53493e-10
4.53162e-10
4.52661e-10
4.51894e-10
4.50859e-10
4.49218e-10
4.47614e-10
4.46345e-10
4.4789e-10
4.49543e-10
4.50588e-10
4.51413e-10
4.51931e-10
4.52291e-10
4.52604e-10
4.52808e-10
4.52979e-10
4.53102e-10
4.5321e-10
4.53287e-10
4.53355e-10
4.53403e-10
4.53444e-10
4.53471e-10
4.53495e-10
4.53509e-10
4.53523e-10
4.5353e-10
4.53536e-10
4.53539e-10
4.53542e-10
4.53543e-10
4.53543e-10
4.53542e-10
4.53539e-10
4.53536e-10
4.5353e-10
4.53523e-10
4.53509e-10
4.53494e-10
4.5347e-10
4.53443e-10
4.53402e-10
4.53354e-10
4.53286e-10
4.53208e-10
4.53101e-10
4.52978e-10
4.52806e-10
4.52602e-10
4.52288e-10
4.51928e-10
4.51406e-10
4.50587e-10
4.49539e-10
4.47886e-10
4.46341e-10
4.45824e-10
4.47323e-10
4.48984e-10
4.5005e-10
4.50932e-10
4.51471e-10
4.51861e-10
4.5219e-10
4.52412e-10
4.52593e-10
4.52726e-10
4.52839e-10
4.52923e-10
4.52994e-10
4.53046e-10
4.53088e-10
4.53118e-10
4.53142e-10
4.53159e-10
4.53172e-10
4.5318e-10
4.53187e-10
4.5319e-10
4.53192e-10
4.53193e-10
4.53193e-10
4.53192e-10
4.5319e-10
4.53187e-10
4.5318e-10
4.53172e-10
4.53158e-10
4.53142e-10
4.53117e-10
4.53088e-10
4.53045e-10
4.52993e-10
4.52922e-10
4.52837e-10
4.52725e-10
4.52591e-10
4.5241e-10
4.52187e-10
4.51858e-10
4.51467e-10
4.50923e-10
4.50049e-10
4.4898e-10
4.47319e-10
4.45819e-10
4.46062e-10
4.4752e-10
4.492e-10
4.50291e-10
4.51234e-10
4.51797e-10
4.5222e-10
4.52566e-10
4.52807e-10
4.52998e-10
4.53142e-10
4.5326e-10
4.53351e-10
4.53425e-10
4.53481e-10
4.53525e-10
4.53558e-10
4.53583e-10
4.53601e-10
4.53614e-10
4.53623e-10
4.53629e-10
4.53633e-10
4.53636e-10
4.53637e-10
4.53637e-10
4.53636e-10
4.53633e-10
4.53629e-10
4.53623e-10
4.53614e-10
4.536e-10
4.53582e-10
4.53557e-10
4.53524e-10
4.5348e-10
4.53423e-10
4.53349e-10
4.53258e-10
4.5314e-10
4.52996e-10
4.52804e-10
4.52563e-10
4.52217e-10
4.51793e-10
4.51226e-10
4.50289e-10
4.49195e-10
4.47514e-10
4.46057e-10
4.47063e-10
4.48489e-10
4.50189e-10
4.51312e-10
4.52323e-10
4.52912e-10
4.53368e-10
4.53732e-10
4.53992e-10
4.54194e-10
4.54349e-10
4.54473e-10
4.54571e-10
4.54648e-10
4.54709e-10
4.54755e-10
4.5479e-10
4.54816e-10
4.54836e-10
4.54849e-10
4.54859e-10
4.54866e-10
4.5487e-10
4.54872e-10
4.54874e-10
4.54874e-10
4.54872e-10
4.5487e-10
4.54866e-10
4.54859e-10
4.54849e-10
4.54835e-10
4.54815e-10
4.54789e-10
4.54754e-10
4.54708e-10
4.54646e-10
4.54569e-10
4.54471e-10
4.54347e-10
4.54192e-10
4.5399e-10
4.53729e-10
4.53364e-10
4.52907e-10
4.52315e-10
4.51309e-10
4.50184e-10
4.48483e-10
4.47057e-10
4.56872e-10
4.56886e-10
4.56897e-10
4.56903e-10
4.56908e-10
4.5691e-10
4.56912e-10
4.56912e-10
4.5691e-10
4.56907e-10
4.56903e-10
4.56896e-10
4.56885e-10
4.56871e-10
4.56849e-10
4.56823e-10
4.56784e-10
4.56736e-10
4.5667e-10
4.56589e-10
4.56484e-10
4.56354e-10
4.56188e-10
4.55974e-10
4.55694e-10
4.55308e-10
4.54817e-10
4.54196e-10
4.53121e-10
4.5196e-10
4.50227e-10
4.48828e-10
4.59751e-10
4.59745e-10
4.59732e-10
4.59718e-10
4.59694e-10
4.59667e-10
4.59625e-10
4.59575e-10
4.59504e-10
4.59419e-10
4.59307e-10
4.5917e-10
4.58993e-10
4.58767e-10
4.58466e-10
4.58059e-10
4.57532e-10
4.5688e-10
4.55732e-10
4.54531e-10
4.52757e-10
4.51379e-10
4.62619e-10
4.6238e-10
4.62059e-10
4.61628e-10
4.61064e-10
4.6038e-10
4.59152e-10
4.57908e-10
4.56084e-10
4.54721e-10
)
;

boundaryField
{
    fuel
    {
        type            fixedValue;
        value           nonuniform 0();
    }
    wall
    {
        type            zeroGradient;
    }
    outlet
    {
        type            zeroGradient;
    }
    frontAndBack
    {
        type            empty;
    }
    procBoundary0to1
    {
        type            processor;
        value           nonuniform List<scalar> 
50
(
1.50449e-09
1.51581e-09
1.52619e-09
1.53133e-09
1.53227e-09
1.53332e-09
1.53238e-09
1.53282e-09
1.53216e-09
1.5325e-09
1.53212e-09
1.53238e-09
1.53214e-09
1.53232e-09
1.53217e-09
1.5323e-09
1.53218e-09
1.53229e-09
1.53222e-09
1.53228e-09
1.53223e-09
1.53227e-09
1.53224e-09
1.53226e-09
1.53225e-09
1.53225e-09
1.53226e-09
1.53224e-09
1.53227e-09
1.53223e-09
1.53228e-09
1.53222e-09
1.53229e-09
1.53219e-09
1.5323e-09
1.53217e-09
1.53232e-09
1.53214e-09
1.53238e-09
1.53212e-09
1.53249e-09
1.53216e-09
1.53282e-09
1.53238e-09
1.53331e-09
1.53227e-09
1.53132e-09
1.52618e-09
1.51581e-09
1.50448e-09
)
;
    }
    procBoundary0to2
    {
        type            processor;
        value           nonuniform List<scalar> 
53
(
4.48834e-10
4.50234e-10
4.51965e-10
4.53125e-10
4.54204e-10
4.54822e-10
4.55313e-10
4.55697e-10
4.55977e-10
4.56191e-10
4.56356e-10
4.56487e-10
4.56591e-10
4.56672e-10
4.56738e-10
4.56786e-10
4.56824e-10
4.5685e-10
4.5685e-10
4.59719e-10
4.59733e-10
4.59745e-10
4.59751e-10
4.59757e-10
4.59759e-10
4.59761e-10
4.59761e-10
4.59759e-10
4.59756e-10
4.59756e-10
4.63422e-10
4.63415e-10
4.63401e-10
4.63387e-10
4.63361e-10
4.63332e-10
4.63287e-10
4.63235e-10
4.63159e-10
4.63071e-10
4.62951e-10
4.62808e-10
4.62808e-10
4.67078e-10
4.66826e-10
4.66483e-10
4.66029e-10
4.65426e-10
4.6471e-10
4.63391e-10
4.62106e-10
4.60221e-10
4.58867e-10
)
;
    }
}


// ************************************************************************* //
