/*--------------------------------*- C++ -*----------------------------------*\
| =========                 |                                                 |
| \\      /  F ield         | OpenFOAM: The Open Source CFD Toolbox           |
|  \\    /   O peration     | Version:  dev                                   |
|   \\  /    A nd           | Web:      www.OpenFOAM.org                      |
|    \\/     M anipulation  |                                                 |
\*---------------------------------------------------------------------------*/
FoamFile
{
    version     2.0;
    format      ascii;
    class       volScalarField;
    location    "0.06";
    object      P2-;
}
// * * * * * * * * * * * * * * * * * * * * * * * * * * * * * * * * * * * * * //

dimensions      [0 0 0 0 0 0 0];

internalField   nonuniform List<scalar> 
250
(
3.92044e-12
3.92545e-12
3.91529e-12
3.92447e-12
3.93414e-12
4.01942e-12
4.40015e-12
6.60791e-12
2.28296e-11
1.29988e-10
3.68747e-12
3.69145e-12
3.68244e-12
3.69042e-12
3.69962e-12
3.7771e-12
4.11543e-12
6.03389e-12
1.90116e-11
1.01517e-10
2.68083e-11
1.61746e-11
5.49971e-12
3.93711e-12
3.58235e-12
3.51749e-12
3.50285e-12
3.49435e-12
3.50145e-12
3.4997e-12
3.49738e-12
3.50039e-12
3.49251e-12
3.49936e-12
3.50817e-12
3.5784e-12
3.88258e-12
5.53667e-12
1.58453e-11
8.03924e-11
2.26325e-11
1.32952e-11
5.04905e-12
3.73485e-12
3.42156e-12
3.36148e-12
3.34776e-12
3.34028e-12
3.34632e-12
3.3452e-12
3.34319e-12
3.34535e-12
3.3385e-12
3.34436e-12
3.35284e-12
3.4164e-12
3.68863e-12
5.10714e-12
1.32252e-11
6.2852e-11
1.89459e-11
1.09107e-11
4.66607e-12
3.5654e-12
3.28914e-12
3.23355e-12
3.22065e-12
3.21394e-12
3.21913e-12
3.21839e-12
3.2167e-12
3.21824e-12
3.21225e-12
3.21738e-12
3.22553e-12
3.28304e-12
3.5254e-12
4.7348e-12
1.10532e-11
4.8677e-11
1.57502e-11
9.19272e-12
4.33616e-12
3.41871e-12
3.17498e-12
3.12369e-12
3.11149e-12
3.10514e-12
3.10984e-12
3.10905e-12
3.10767e-12
3.10895e-12
3.10352e-12
3.10834e-12
3.11609e-12
3.16825e-12
3.38269e-12
4.40739e-12
9.4054e-12
3.75467e-11
1.3023e-11
7.77466e-12
4.04135e-12
3.28217e-12
3.06643e-12
3.01932e-12
3.00771e-12
3.00116e-12
3.00586e-12
3.00442e-12
3.00332e-12
3.00483e-12
2.99953e-12
3.0046e-12
3.01183e-12
3.05944e-12
3.24795e-12
4.10953e-12
7.95133e-12
2.78617e-11
1.07263e-11
6.62775e-12
3.76234e-12
3.1383e-12
2.94877e-12
2.90576e-12
2.89462e-12
2.88722e-12
2.89258e-12
2.88974e-12
2.88886e-12
2.89121e-12
2.88549e-12
2.89152e-12
2.898e-12
2.94198e-12
3.10149e-12
3.82474e-12
6.78135e-12
2.11411e-11
8.80457e-12
5.66139e-12
3.48025e-12
2.97345e-12
2.79814e-12
2.76e-12
2.74934e-12
2.74029e-12
2.74698e-12
2.74168e-12
2.74107e-12
2.74499e-12
2.73833e-12
2.74609e-12
2.75156e-12
2.79177e-12
2.93352e-12
3.53685e-12
5.77148e-12
1.56288e-11
7.19428e-12
4.82147e-12
3.16223e-12
2.77089e-12
2.61175e-12
2.57792e-12
2.56776e-12
2.55677e-12
2.56526e-12
2.55715e-12
2.55673e-12
2.56262e-12
2.55452e-12
2.56445e-12
2.56861e-12
2.60638e-12
2.72638e-12
3.20193e-12
4.83946e-12
1.16897e-11
5.83428e-12
4.06881e-12
2.82469e-12
2.52161e-12
2.37643e-12
2.34713e-12
2.33764e-12
2.32466e-12
2.33512e-12
2.32405e-12
2.32379e-12
2.33181e-12
2.32213e-12
2.3343e-12
2.33696e-12
2.37239e-12
2.47256e-12
2.85878e-12
4.03547e-12
8.68965e-12
4.67421e-12
3.37861e-12
2.45412e-12
2.22627e-12
2.09495e-12
2.07029e-12
2.0617e-12
2.04721e-12
2.05934e-12
2.04577e-12
2.04564e-12
2.0555e-12
2.04446e-12
2.05846e-12
2.05958e-12
2.09237e-12
2.17419e-12
2.48384e-12
3.30331e-12
6.40913e-12
3.67916e-12
2.74177e-12
2.06222e-12
1.89671e-12
1.78052e-12
1.76051e-12
1.75302e-12
1.73788e-12
1.75097e-12
1.73589e-12
1.73588e-12
1.74689e-12
1.73509e-12
1.75003e-12
1.7498e-12
1.77932e-12
1.84453e-12
2.08845e-12
2.63981e-12
4.67535e-12
1.41557e-12
1.42679e-12
1.41504e-12
1.4298e-12
1.42859e-12
1.45414e-12
1.50446e-12
1.69241e-12
2.05008e-12
3.35946e-12
)
;

boundaryField
{
    fuel
    {
        type            fixedValue;
        value           nonuniform 0();
    }
    wall
    {
        type            zeroGradient;
    }
    outlet
    {
        type            zeroGradient;
    }
    frontAndBack
    {
        type            empty;
    }
    procBoundary0to1
    {
        type            processor;
        value           nonuniform List<scalar> 
21
(
2.82845e-12
2.1612e-12
1.66926e-12
1.5535e-12
1.45426e-12
1.4387e-12
1.43243e-12
1.41774e-12
1.43082e-12
1.41553e-12
1.41553e-12
1.10767e-12
1.11817e-12
1.10727e-12
1.1208e-12
1.11911e-12
1.14023e-12
1.17748e-12
1.31853e-12
1.54154e-12
2.36853e-12
)
;
    }
    procBoundary0to2
    {
        type            processor;
        value           nonuniform List<scalar> 
12
(
3.92384e-12
3.14565e-11
1.94687e-11
6.03145e-12
4.18025e-12
3.77972e-12
3.70973e-12
3.69411e-12
3.68446e-12
3.69273e-12
3.69025e-12
3.69025e-12
)
;
    }
    procBoundary0to3
    {
        type            processor;
        value           nonuniform List<scalar> 10(4.20316e-12 4.20924e-12 4.19793e-12 4.20832e-12 4.21854e-12 4.31215e-12 4.73205e-12 7.32069e-12 2.73455e-11 1.60433e-10);
    }
}


// ************************************************************************* //
