/*--------------------------------*- C++ -*----------------------------------*\
| =========                 |                                                 |
| \\      /  F ield         | OpenFOAM: The Open Source CFD Toolbox           |
|  \\    /   O peration     | Version:  dev                                   |
|   \\  /    A nd           | Web:      www.OpenFOAM.org                      |
|    \\/     M anipulation  |                                                 |
\*---------------------------------------------------------------------------*/
FoamFile
{
    version     2.0;
    format      ascii;
    class       volScalarField;
    location    "0.01";
    object      C3H3;
}
// * * * * * * * * * * * * * * * * * * * * * * * * * * * * * * * * * * * * * //

dimensions      [0 0 0 0 0 0 0];

internalField   nonuniform List<scalar> 
25
(
2.68742e-07
2.4533e-07
2.24246e-07
2.05197e-07
1.87948e-07
1.72298e-07
1.58077e-07
1.45133e-07
1.33333e-07
1.2256e-07
1.12695e-07
1.03681e-07
9.54022e-08
8.77829e-08
8.07857e-08
7.42974e-08
6.83734e-08
6.29152e-08
5.78532e-08
5.3215e-08
4.89403e-08
4.49838e-08
4.13552e-08
3.79787e-08
3.4892e-08
)
;

boundaryField
{
    wall
    {
        type            zeroGradient;
    }
    fuel
    {
        type            fixedValue;
        value           nonuniform 0();
    }
    outlet
    {
        type            inletOutlet;
        inletValue      nonuniform 0();
        value           nonuniform 0();
    }
    procBoundary1to0
    {
        type            processor;
        value           uniform 2.94843e-07;
    }
    procBoundary1to2
    {
        type            processor;
        value           uniform 3.203e-08;
    }
}


// ************************************************************************* //
