/*--------------------------------*- C++ -*----------------------------------*\
| =========                 |                                                 |
| \\      /  F ield         | OpenFOAM: The Open Source CFD Toolbox           |
|  \\    /   O peration     | Version:  dev                                   |
|   \\  /    A nd           | Web:      www.OpenFOAM.org                      |
|    \\/     M anipulation  |                                                 |
\*---------------------------------------------------------------------------*/
FoamFile
{
    version     2.0;
    format      ascii;
    class       volScalarField;
    location    "0.095";
    object      C5H5;
}
// * * * * * * * * * * * * * * * * * * * * * * * * * * * * * * * * * * * * * //

dimensions      [0 0 0 0 0 0 0];

internalField   nonuniform List<scalar> 
100
(
3.67768e-08
5.53647e-08
4.49508e-08
3.13897e-08
2.07258e-08
1.34637e-08
8.80945e-09
5.88105e-09
4.02491e-09
2.83308e-09
2.05626e-09
1.53841e-09
1.18623e-09
9.45815e-10
7.80516e-10
6.67376e-10
5.91145e-10
5.41443e-10
5.1102e-10
4.94677e-10
4.88574e-10
4.89791e-10
4.96037e-10
5.05477e-10
5.16613e-10
5.28231e-10
5.39353e-10
5.49136e-10
5.56964e-10
5.62384e-10
5.65098e-10
5.64945e-10
5.61891e-10
5.56008e-10
5.47465e-10
5.36479e-10
5.23378e-10
5.08444e-10
4.92028e-10
4.74486e-10
4.55985e-10
4.37094e-10
4.17922e-10
3.98577e-10
3.79457e-10
3.60598e-10
3.42034e-10
3.24011e-10
3.06345e-10
2.89391e-10
2.72979e-10
2.57127e-10
2.41904e-10
2.27186e-10
2.13003e-10
1.99444e-10
1.86739e-10
1.74589e-10
1.62859e-10
1.51948e-10
1.41591e-10
1.3178e-10
1.22465e-10
1.13617e-10
1.05263e-10
9.73845e-11
8.99078e-11
8.2938e-11
7.6415e-11
7.02296e-11
6.45652e-11
5.93142e-11
5.44719e-11
5.00304e-11
4.59802e-11
4.22895e-11
3.89252e-11
3.58842e-11
3.31308e-11
3.05752e-11
2.83659e-11
2.63513e-11
2.45096e-11
2.27796e-11
2.1206e-11
1.97234e-11
1.83166e-11
1.69657e-11
1.56509e-11
1.43586e-11
1.30541e-11
1.17438e-11
1.04304e-11
9.08279e-12
7.82319e-12
6.4672e-12
5.11173e-12
3.62378e-12
2.19188e-12
1.025e-12
)
;

boundaryField
{
    wall
    {
        type            zeroGradient;
    }
    fuel
    {
        type            fixedValue;
        value           uniform 0;
    }
    outlet
    {
        type            inletOutlet;
        inletValue      uniform 0;
        value           uniform 1.025e-12;
    }
}


// ************************************************************************* //
