/*--------------------------------*- C++ -*----------------------------------*\
| =========                 |                                                 |
| \\      /  F ield         | OpenFOAM: The Open Source CFD Toolbox           |
|  \\    /   O peration     | Version:  dev                                   |
|   \\  /    A nd           | Web:      www.OpenFOAM.org                      |
|    \\/     M anipulation  |                                                 |
\*---------------------------------------------------------------------------*/
FoamFile
{
    version     2.0;
    format      ascii;
    class       volScalarField;
    location    "0.095";
    object      CH2;
}
// * * * * * * * * * * * * * * * * * * * * * * * * * * * * * * * * * * * * * //

dimensions      [0 0 0 0 0 0 0];

internalField   nonuniform List<scalar> 
100
(
1.1317e-05
1.924e-05
2.10181e-05
2.01188e-05
1.78474e-05
1.49537e-05
1.19798e-05
9.30311e-06
7.07891e-06
5.3296e-06
4.00226e-06
3.01067e-06
2.27521e-06
1.73467e-06
1.33503e-06
1.03764e-06
8.14215e-07
6.44436e-07
5.13817e-07
4.1209e-07
3.31963e-07
2.68228e-07
2.17163e-07
1.7601e-07
1.42713e-07
1.15694e-07
9.37264e-08
7.58803e-08
6.13843e-08
4.96156e-08
4.00681e-08
3.23286e-08
2.60598e-08
2.09863e-08
1.68834e-08
1.35631e-08
1.08877e-08
8.72797e-09
6.98408e-09
5.58145e-09
4.44488e-09
3.53958e-09
2.81333e-09
2.22813e-09
1.76299e-09
1.39178e-09
1.09492e-09
8.60199e-10
6.7249e-10
5.25451e-10
4.09278e-10
3.17527e-10
2.45627e-10
1.89014e-10
1.44735e-10
1.10497e-10
8.4604e-11
6.46515e-11
4.91734e-11
3.76132e-11
2.87912e-11
2.20562e-11
1.68962e-11
1.29177e-11
9.85594e-12
7.49252e-12
5.65346e-12
4.24665e-12
3.16894e-12
2.33802e-12
1.72372e-12
1.26871e-12
9.37582e-13
7.01346e-13
5.36556e-13
4.24422e-13
3.50049e-13
3.02846e-13
2.74389e-13
2.58485e-13
2.51716e-13
2.50351e-13
2.52301e-13
2.56184e-13
2.60703e-13
2.65068e-13
2.68505e-13
2.7042e-13
2.70248e-13
2.6726e-13
2.60854e-13
2.50778e-13
2.36869e-13
2.18429e-13
1.97365e-13
1.70569e-13
1.3988e-13
1.02316e-13
6.30751e-14
2.96577e-14
)
;

boundaryField
{
    wall
    {
        type            zeroGradient;
    }
    fuel
    {
        type            fixedValue;
        value           uniform 0;
    }
    outlet
    {
        type            inletOutlet;
        inletValue      uniform 0;
        value           uniform 2.96577e-14;
    }
}


// ************************************************************************* //
