/*--------------------------------*- C++ -*----------------------------------*\
| =========                 |                                                 |
| \\      /  F ield         | OpenFOAM: The Open Source CFD Toolbox           |
|  \\    /   O peration     | Version:  dev                                   |
|   \\  /    A nd           | Web:      www.OpenFOAM.org                      |
|    \\/     M anipulation  |                                                 |
\*---------------------------------------------------------------------------*/
FoamFile
{
    version     2.0;
    format      ascii;
    class       volScalarField;
    location    "0.095";
    object      H2O;
}
// * * * * * * * * * * * * * * * * * * * * * * * * * * * * * * * * * * * * * //

dimensions      [0 0 0 0 0 0 0];

internalField   nonuniform List<scalar> 
100
(
0.024282
0.0397874
0.0462805
0.048932
0.049738
0.0496158
0.0490254
0.0482104
0.0472971
0.0463534
0.0454144
0.04449
0.0435814
0.0426952
0.0418271
0.0409755
0.0401389
0.0393161
0.0385061
0.0377085
0.0369228
0.036149
0.0353875
0.0346385
0.0339021
0.0331786
0.0324681
0.0317707
0.0310865
0.0304152
0.0297567
0.0291106
0.0284765
0.027854
0.0272425
0.0266406
0.0260498
0.0254686
0.0248966
0.0243335
0.0237739
0.0232266
0.0226864
0.0221498
0.0216231
0.0211027
0.0205862
0.0200778
0.01957
0.0190713
0.0185764
0.0180851
0.0175975
0.0171098
0.0166232
0.0161416
0.0156745
0.0152115
0.0147478
0.0143004
0.013859
0.0134233
0.012993
0.0125677
0.0121471
0.0117311
0.0113164
0.0109097
0.0105082
0.0101051
0.00971307
0.00932541
0.00894222
0.00856334
0.00818828
0.00781642
0.00744694
0.00708032
0.00671668
0.00634744
0.00599954
0.00565585
0.005318
0.00497967
0.0046548
0.00433496
0.00402026
0.00371055
0.00340503
0.00310246
0.00279822
0.00249584
0.00219727
0.00189652
0.00162089
0.00133006
0.00104471
0.000736427
0.000443566
0.000206916
)
;

boundaryField
{
    wall
    {
        type            zeroGradient;
    }
    fuel
    {
        type            fixedValue;
        value           uniform 0;
    }
    outlet
    {
        type            inletOutlet;
        inletValue      uniform 0;
        value           uniform 0.000206916;
    }
}


// ************************************************************************* //
