/*--------------------------------*- C++ -*----------------------------------*\
| =========                 |                                                 |
| \\      /  F ield         | OpenFOAM: The Open Source CFD Toolbox           |
|  \\    /   O peration     | Version:  dev                                   |
|   \\  /    A nd           | Web:      www.OpenFOAM.org                      |
|    \\/     M anipulation  |                                                 |
\*---------------------------------------------------------------------------*/
FoamFile
{
    version     2.0;
    format      ascii;
    class       volScalarField;
    location    "0.095";
    object      moment.1.populationBalance;
}
// * * * * * * * * * * * * * * * * * * * * * * * * * * * * * * * * * * * * * //

dimensions      [0 -2 0 0 0 0 0];

internalField   nonuniform List<scalar> 
100
(
0.00306958
0.00250387
0.00231041
0.00220296
0.00209416
0.00199559
0.00189655
0.00181479
0.00174185
0.00168423
0.00163641
0.00159427
0.00155917
0.0015275
0.00149724
0.00146968
0.00144144
0.00141333
0.00138563
0.00135869
0.00133338
0.00130939
0.00128727
0.00126891
0.00125202
0.00123921
0.00122978
0.00122334
0.00122194
0.0012238
0.0012298
0.00123971
0.00125402
0.00127255
0.00129593
0.00132314
0.00135485
0.00139126
0.00143179
0.00147797
0.00152917
0.00158538
0.00164672
0.00171299
0.00178427
0.00186083
0.00194242
0.00203074
0.00212238
0.00222251
0.00232733
0.00243584
0.00255112
0.00266703
0.00278811
0.00291365
0.00304271
0.00317409
0.00330912
0.00344941
0.00359263
0.00374103
0.00389259
0.00404685
0.00420543
0.00436494
0.00452591
0.00468688
0.00484864
0.00501155
0.00517504
0.005338
0.00549947
0.00565975
0.00581883
0.00597671
0.00612828
0.00626794
0.00639456
0.00652038
0.00664757
0.00676323
0.0068651
0.00695804
0.00704576
0.00712767
0.00719738
0.00725966
0.00731739
0.0073716
0.00741541
0.00742826
0.00740463
0.00739405
0.0074069
0.00742633
0.00744281
0.00738607
0.0071093
0.00641081
)
;

boundaryField
{
    wall
    {
        type            zeroGradient;
    }
    fuel
    {
        type            zeroGradient;
    }
    outlet
    {
        type            zeroGradient;
    }
}


// ************************************************************************* //
