/*--------------------------------*- C++ -*----------------------------------*\
| =========                 |                                                 |
| \\      /  F ield         | OpenFOAM: The Open Source CFD Toolbox           |
|  \\    /   O peration     | Version:  dev                                   |
|   \\  /    A nd           | Web:      www.OpenFOAM.org                      |
|    \\/     M anipulation  |                                                 |
\*---------------------------------------------------------------------------*/
FoamFile
{
    version     2.0;
    format      ascii;
    class       volScalarField;
    location    "0.095";
    object      A2R5-;
}
// * * * * * * * * * * * * * * * * * * * * * * * * * * * * * * * * * * * * * //

dimensions      [0 0 0 0 0 0 0];

internalField   nonuniform List<scalar> 
25
(
3.86276e-11
2.86131e-11
2.10526e-11
1.52911e-11
1.07472e-11
7.4071e-12
4.99497e-12
3.36034e-12
2.30593e-12
1.61196e-12
1.16794e-12
8.66027e-13
6.56778e-13
5.0528e-13
3.91337e-13
3.0334e-13
2.34417e-13
1.80213e-13
1.37697e-13
1.04569e-13
7.8975e-14
5.9382e-14
4.45148e-14
3.33156e-14
2.49067e-14
)
;

boundaryField
{
    wall
    {
        type            zeroGradient;
    }
    fuel
    {
        type            fixedValue;
        value           uniform 0;
    }
    outlet
    {
        type            inletOutlet;
        inletValue      nonuniform 0();
        value           nonuniform 0();
    }
    procBoundary0to1
    {
        type            processor;
        value           uniform 1.86976e-14;
    }
}


// ************************************************************************* //
