/*--------------------------------*- C++ -*----------------------------------*\
| =========                 |                                                 |
| \\      /  F ield         | OpenFOAM: The Open Source CFD Toolbox           |
|  \\    /   O peration     | Version:  dev                                   |
|   \\  /    A nd           | Web:      www.OpenFOAM.org                      |
|    \\/     M anipulation  |                                                 |
\*---------------------------------------------------------------------------*/
FoamFile
{
    version     2.0;
    format      ascii;
    class       volScalarField;
    location    "0.095";
    object      CH2O;
}
// * * * * * * * * * * * * * * * * * * * * * * * * * * * * * * * * * * * * * //

dimensions      [0 0 0 0 0 0 0];

internalField   nonuniform List<scalar> 
25
(
0.000139489
0.000105481
6.52251e-05
3.89119e-05
2.33307e-05
1.45014e-05
9.22929e-06
6.03522e-06
4.07401e-06
2.79248e-06
1.96054e-06
1.38534e-06
9.86055e-07
7.03714e-07
5.01879e-07
3.57114e-07
2.5358e-07
1.80055e-07
1.2832e-07
9.22734e-08
6.73862e-08
5.03366e-08
3.87223e-08
3.08299e-08
2.54493e-08
)
;

boundaryField
{
    wall
    {
        type            zeroGradient;
    }
    fuel
    {
        type            fixedValue;
        value           uniform 0;
    }
    outlet
    {
        type            inletOutlet;
        inletValue      nonuniform 0();
        value           nonuniform 0();
    }
    procBoundary0to1
    {
        type            processor;
        value           uniform 2.17334e-08;
    }
}


// ************************************************************************* //
