/*--------------------------------*- C++ -*----------------------------------*\
| =========                 |                                                 |
| \\      /  F ield         | OpenFOAM: The Open Source CFD Toolbox           |
|  \\    /   O peration     | Version:  dev                                   |
|   \\  /    A nd           | Web:      www.OpenFOAM.org                      |
|    \\/     M anipulation  |                                                 |
\*---------------------------------------------------------------------------*/
FoamFile
{
    version     2.0;
    format      ascii;
    class       volScalarField;
    location    "0.095";
    object      n-C4H3;
}
// * * * * * * * * * * * * * * * * * * * * * * * * * * * * * * * * * * * * * //

dimensions      [0 0 0 0 0 0 0];

internalField   nonuniform List<scalar> 
25
(
1.99874e-09
5.1938e-09
6.44507e-09
6.39899e-09
5.54903e-09
4.35786e-09
3.17724e-09
2.21861e-09
1.51268e-09
1.02344e-09
6.96589e-10
4.81914e-10
3.42069e-10
2.51572e-10
1.92518e-10
1.5363e-10
1.27687e-10
1.10088e-10
9.78987e-11
8.92436e-11
8.2915e-11
7.81347e-11
7.44043e-11
7.14003e-11
6.89145e-11
)
;

boundaryField
{
    wall
    {
        type            zeroGradient;
    }
    fuel
    {
        type            fixedValue;
        value           uniform 0;
    }
    outlet
    {
        type            inletOutlet;
        inletValue      nonuniform 0();
        value           nonuniform 0();
    }
    procBoundary0to1
    {
        type            processor;
        value           uniform 6.68133e-11;
    }
}


// ************************************************************************* //
