/*--------------------------------*- C++ -*----------------------------------*\
| =========                 |                                                 |
| \\      /  F ield         | OpenFOAM: The Open Source CFD Toolbox           |
|  \\    /   O peration     | Version:  dev                                   |
|   \\  /    A nd           | Web:      www.OpenFOAM.org                      |
|    \\/     M anipulation  |                                                 |
\*---------------------------------------------------------------------------*/
FoamFile
{
    version     2.0;
    format      ascii;
    class       volScalarField;
    location    "0.06";
    object      C3H2;
}
// * * * * * * * * * * * * * * * * * * * * * * * * * * * * * * * * * * * * * //

dimensions      [0 0 0 0 0 0 0];

internalField   nonuniform List<scalar> 
25
(
3.88751e-14
3.93635e-14
3.98789e-14
4.04823e-14
4.1183e-14
4.20391e-14
4.30603e-14
4.42586e-14
4.56291e-14
4.71316e-14
4.86142e-14
5.00476e-14
5.13213e-14
5.23169e-14
5.29084e-14
5.29672e-14
5.23663e-14
5.09829e-14
4.86998e-14
4.54055e-14
4.09947e-14
3.53695e-14
2.84359e-14
2.00889e-14
1.0149e-14
)
;

boundaryField
{
    wall
    {
        type            zeroGradient;
    }
    fuel
    {
        type            fixedValue;
        value           nonuniform 0();
    }
    outlet
    {
        type            inletOutlet;
        inletValue      uniform 0;
        value           uniform 1.0149e-14;
    }
    procBoundary3to2
    {
        type            processor;
        value           uniform 3.82976e-14;
    }
}


// ************************************************************************* //
