/*--------------------------------*- C++ -*----------------------------------*\
| =========                 |                                                 |
| \\      /  F ield         | OpenFOAM: The Open Source CFD Toolbox           |
|  \\    /   O peration     | Version:  dev                                   |
|   \\  /    A nd           | Web:      www.OpenFOAM.org                      |
|    \\/     M anipulation  |                                                 |
\*---------------------------------------------------------------------------*/
FoamFile
{
    version     2.0;
    format      ascii;
    class       volScalarField;
    location    "0.06";
    object      CH2CO;
}
// * * * * * * * * * * * * * * * * * * * * * * * * * * * * * * * * * * * * * //

dimensions      [0 0 0 0 0 0 0];

internalField   nonuniform List<scalar> 
25
(
4.52804e-08
4.43244e-08
4.32705e-08
4.21289e-08
4.0874e-08
3.96008e-08
3.82507e-08
3.68291e-08
3.53053e-08
3.37417e-08
3.21016e-08
3.03906e-08
2.86058e-08
2.67434e-08
2.48027e-08
2.2751e-08
2.06171e-08
1.84218e-08
1.61216e-08
1.3937e-08
1.15559e-08
9.15373e-09
6.49998e-09
3.9356e-09
1.84128e-09
)
;

boundaryField
{
    wall
    {
        type            zeroGradient;
    }
    fuel
    {
        type            fixedValue;
        value           nonuniform 0();
    }
    outlet
    {
        type            inletOutlet;
        inletValue      uniform 0;
        value           uniform 1.84128e-09;
    }
    procBoundary3to2
    {
        type            processor;
        value           uniform 4.61234e-08;
    }
}


// ************************************************************************* //
