/*--------------------------------*- C++ -*----------------------------------*\
| =========                 |                                                 |
| \\      /  F ield         | OpenFOAM: The Open Source CFD Toolbox           |
|  \\    /   O peration     | Version:  dev                                   |
|   \\  /    A nd           | Web:      www.OpenFOAM.org                      |
|    \\/     M anipulation  |                                                 |
\*---------------------------------------------------------------------------*/
FoamFile
{
    version     2.0;
    format      ascii;
    class       volScalarField;
    location    "0.06";
    object      CH4;
}
// * * * * * * * * * * * * * * * * * * * * * * * * * * * * * * * * * * * * * //

dimensions      [0 0 0 0 0 0 0];

internalField   nonuniform List<scalar> 
25
(
2.02298e-07
2.13257e-07
2.24115e-07
2.34977e-07
2.45053e-07
2.5458e-07
2.63243e-07
2.709e-07
2.77429e-07
2.82558e-07
2.85803e-07
2.87143e-07
2.86341e-07
2.83185e-07
2.77485e-07
2.69069e-07
2.57776e-07
2.43455e-07
2.25948e-07
2.05089e-07
1.80691e-07
1.52548e-07
1.20393e-07
8.38192e-08
4.1927e-08
)
;

boundaryField
{
    wall
    {
        type            zeroGradient;
    }
    fuel
    {
        type            fixedValue;
        value           nonuniform 0();
    }
    outlet
    {
        type            inletOutlet;
        inletValue      uniform 0;
        value           uniform 4.1927e-08;
    }
    procBoundary3to2
    {
        type            processor;
        value           uniform 1.90696e-07;
    }
}


// ************************************************************************* //
