/*--------------------------------*- C++ -*----------------------------------*\
| =========                 |                                                 |
| \\      /  F ield         | OpenFOAM: The Open Source CFD Toolbox           |
|  \\    /   O peration     | Version:  dev                                   |
|   \\  /    A nd           | Web:      www.OpenFOAM.org                      |
|    \\/     M anipulation  |                                                 |
\*---------------------------------------------------------------------------*/
FoamFile
{
    version     2.0;
    format      ascii;
    class       volScalarField;
    location    "0.06";
    object      HCCO;
}
// * * * * * * * * * * * * * * * * * * * * * * * * * * * * * * * * * * * * * //

dimensions      [0 0 0 0 0 0 0];

internalField   nonuniform List<scalar> 
25
(
1.63076e-11
1.51602e-11
1.42694e-11
1.36028e-11
1.31271e-11
1.2854e-11
1.27403e-11
1.27686e-11
1.29267e-11
1.31893e-11
1.35354e-11
1.39334e-11
1.4345e-11
1.4719e-11
1.49844e-11
1.50643e-11
1.48812e-11
1.43758e-11
1.34686e-11
1.22528e-11
1.05716e-11
8.5888e-12
6.18871e-12
3.76319e-12
1.75808e-12
)
;

boundaryField
{
    wall
    {
        type            zeroGradient;
    }
    fuel
    {
        type            fixedValue;
        value           nonuniform 0();
    }
    outlet
    {
        type            inletOutlet;
        inletValue      uniform 0;
        value           uniform 1.75808e-12;
    }
    procBoundary3to2
    {
        type            processor;
        value           uniform 1.77387e-11;
    }
}


// ************************************************************************* //
