/*--------------------------------*- C++ -*----------------------------------*\
| =========                 |                                                 |
| \\      /  F ield         | OpenFOAM: The Open Source CFD Toolbox           |
|  \\    /   O peration     | Version:  dev                                   |
|   \\  /    A nd           | Web:      www.OpenFOAM.org                      |
|    \\/     M anipulation  |                                                 |
\*---------------------------------------------------------------------------*/
FoamFile
{
    version     2.0;
    format      ascii;
    class       volScalarField;
    location    "0.06";
    object      N2;
}
// * * * * * * * * * * * * * * * * * * * * * * * * * * * * * * * * * * * * * //

dimensions      [0 0 0 0 0 0 0];

internalField   nonuniform List<scalar> 
25
(
0.843613
0.85102
0.858366
0.865652
0.873049
0.880018
0.886901
0.893667
0.900442
0.906946
0.913348
0.919645
0.925841
0.931953
0.938003
0.944086
0.950131
0.956099
0.96211
0.967618
0.973429
0.979131
0.98529
0.99114
0.995867
)
;

boundaryField
{
    wall
    {
        type            zeroGradient;
    }
    fuel
    {
        type            fixedValue;
        value           nonuniform 0();
    }
    outlet
    {
        type            inletOutlet;
        inletValue      uniform 1;
        value           uniform 0.995867;
    }
    procBoundary3to2
    {
        type            processor;
        value           uniform 0.83616;
    }
}


// ************************************************************************* //
