/*--------------------------------*- C++ -*----------------------------------*\
| =========                 |                                                 |
| \\      /  F ield         | OpenFOAM: The Open Source CFD Toolbox           |
|  \\    /   O peration     | Version:  dev                                   |
|   \\  /    A nd           | Web:      www.OpenFOAM.org                      |
|    \\/     M anipulation  |                                                 |
\*---------------------------------------------------------------------------*/
FoamFile
{
    version     2.0;
    format      ascii;
    class       volScalarField;
    location    "0.09";
    object      A1C2H22;
}
// * * * * * * * * * * * * * * * * * * * * * * * * * * * * * * * * * * * * * //

dimensions      [0 0 0 0 0 0 0];

internalField   nonuniform List<scalar> 
1997
(
3.65411e-09
3.66649e-09
3.67706e-09
3.6839e-09
3.68793e-09
3.69068e-09
3.69188e-09
3.69285e-09
3.69331e-09
3.69379e-09
3.69403e-09
3.69433e-09
3.69446e-09
3.69467e-09
3.69475e-09
3.6949e-09
3.69495e-09
3.69504e-09
3.62828e-09
3.64019e-09
3.65055e-09
3.65739e-09
3.66162e-09
3.6644e-09
3.66573e-09
3.66677e-09
3.6673e-09
3.66783e-09
3.6681e-09
3.66842e-09
3.66859e-09
3.6688e-09
3.6689e-09
3.66904e-09
3.6691e-09
3.6692e-09
3.66923e-09
3.66929e-09
3.66931e-09
3.66934e-09
3.66934e-09
3.66936e-09
3.66936e-09
3.66936e-09
3.66936e-09
3.66935e-09
3.60669e-09
3.61816e-09
3.62837e-09
3.63521e-09
3.63967e-09
3.64246e-09
3.64393e-09
3.64504e-09
3.64565e-09
3.64621e-09
3.64653e-09
3.64687e-09
3.64706e-09
3.64728e-09
3.64739e-09
3.64754e-09
3.64761e-09
3.6477e-09
3.64774e-09
3.6478e-09
3.64782e-09
3.64785e-09
3.64786e-09
3.64788e-09
3.64788e-09
3.64788e-09
3.64788e-09
3.64786e-09
3.64785e-09
3.64782e-09
3.6478e-09
3.64774e-09
3.6477e-09
3.64761e-09
3.64754e-09
3.64739e-09
3.64727e-09
3.64706e-09
3.64686e-09
3.64653e-09
3.58921e-09
3.60029e-09
3.61039e-09
3.61724e-09
3.62195e-09
3.62477e-09
3.62636e-09
3.62754e-09
3.62823e-09
3.62883e-09
3.62919e-09
3.62954e-09
3.62976e-09
3.62999e-09
3.63012e-09
3.63027e-09
3.63035e-09
3.63044e-09
3.63049e-09
3.63055e-09
3.63057e-09
3.6306e-09
3.63061e-09
3.63063e-09
3.63063e-09
3.63063e-09
3.63063e-09
3.63061e-09
3.6306e-09
3.63057e-09
3.63055e-09
3.63049e-09
3.63044e-09
3.63035e-09
3.63027e-09
3.63012e-09
3.62999e-09
3.62976e-09
3.62954e-09
3.62919e-09
3.62883e-09
3.62823e-09
3.62754e-09
3.62636e-09
3.62477e-09
3.62195e-09
3.61724e-09
3.61039e-09
3.60029e-09
3.58922e-09
3.57575e-09
3.58646e-09
3.59651e-09
3.60336e-09
3.60834e-09
3.61118e-09
3.6129e-09
3.61416e-09
3.61492e-09
3.61556e-09
3.61596e-09
3.61633e-09
3.61657e-09
3.6168e-09
3.61695e-09
3.6171e-09
3.61719e-09
3.61729e-09
3.61734e-09
3.6174e-09
3.61742e-09
3.61745e-09
3.61747e-09
3.61748e-09
3.61748e-09
3.61748e-09
3.61748e-09
3.61747e-09
3.61745e-09
3.61742e-09
3.6174e-09
3.61734e-09
3.61729e-09
3.61719e-09
3.6171e-09
3.61695e-09
3.6168e-09
3.61657e-09
3.61633e-09
3.61596e-09
3.61556e-09
3.61492e-09
3.61416e-09
3.6129e-09
3.61118e-09
3.60834e-09
3.60336e-09
3.59651e-09
3.58647e-09
3.57576e-09
3.56604e-09
3.57643e-09
3.58645e-09
3.59332e-09
3.59854e-09
3.60141e-09
3.60325e-09
3.60457e-09
3.60541e-09
3.60608e-09
3.60652e-09
3.60691e-09
3.60717e-09
3.60741e-09
3.60758e-09
3.60773e-09
3.60783e-09
3.60792e-09
3.60798e-09
3.60803e-09
3.60806e-09
3.60809e-09
3.60811e-09
3.60812e-09
3.60813e-09
3.60813e-09
3.60812e-09
3.60811e-09
3.60809e-09
3.60806e-09
3.60803e-09
3.60798e-09
3.60792e-09
3.60783e-09
3.60773e-09
3.60757e-09
3.60741e-09
3.60717e-09
3.60691e-09
3.60652e-09
3.60608e-09
3.60541e-09
3.60457e-09
3.60325e-09
3.60141e-09
3.59854e-09
3.59332e-09
3.58645e-09
3.57643e-09
3.56604e-09
3.56017e-09
3.57026e-09
3.5803e-09
3.58719e-09
3.59267e-09
3.59557e-09
3.59754e-09
3.59893e-09
3.59983e-09
3.60055e-09
3.60103e-09
3.60143e-09
3.60172e-09
3.60196e-09
3.60214e-09
3.60229e-09
3.6024e-09
3.60249e-09
3.60256e-09
3.60261e-09
3.60265e-09
3.60268e-09
3.60269e-09
3.60271e-09
3.60271e-09
3.60271e-09
3.60271e-09
3.60269e-09
3.60268e-09
3.60265e-09
3.60261e-09
3.60256e-09
3.60249e-09
3.6024e-09
3.60229e-09
3.60214e-09
3.60196e-09
3.60171e-09
3.60142e-09
3.60102e-09
3.60055e-09
3.59983e-09
3.59893e-09
3.59754e-09
3.59557e-09
3.59267e-09
3.58719e-09
3.58031e-09
3.57027e-09
3.56018e-09
3.55787e-09
3.56769e-09
3.57778e-09
3.5847e-09
3.59041e-09
3.59335e-09
3.59543e-09
3.5969e-09
3.59786e-09
3.59861e-09
3.59912e-09
3.59954e-09
3.59985e-09
3.6001e-09
3.60029e-09
3.60045e-09
3.60057e-09
3.60066e-09
3.60073e-09
3.60078e-09
3.60082e-09
3.60085e-09
3.60087e-09
3.60088e-09
3.60089e-09
3.60089e-09
3.60088e-09
3.60087e-09
3.60085e-09
3.60082e-09
3.60078e-09
3.60073e-09
3.60066e-09
3.60057e-09
3.60045e-09
3.60029e-09
3.6001e-09
3.59985e-09
3.59954e-09
3.59912e-09
3.59861e-09
3.59786e-09
3.5969e-09
3.59543e-09
3.59335e-09
3.59041e-09
3.5847e-09
3.57778e-09
3.5677e-09
3.55787e-09
3.55897e-09
3.56855e-09
3.5787e-09
3.58566e-09
3.59158e-09
3.59456e-09
3.59676e-09
3.59829e-09
3.59931e-09
3.60009e-09
3.60064e-09
3.60107e-09
3.6014e-09
3.60166e-09
3.60186e-09
3.60202e-09
3.60214e-09
3.60223e-09
3.60231e-09
3.60236e-09
3.6024e-09
3.60243e-09
3.60245e-09
3.60246e-09
3.60247e-09
3.60247e-09
3.60246e-09
3.60245e-09
3.60243e-09
3.6024e-09
3.60236e-09
3.60231e-09
3.60223e-09
3.60214e-09
3.60201e-09
3.60186e-09
3.60165e-09
3.6014e-09
3.60107e-09
3.60064e-09
3.60009e-09
3.59931e-09
3.59829e-09
3.59676e-09
3.59456e-09
3.59158e-09
3.58566e-09
3.5787e-09
3.56856e-09
3.55897e-09
3.56336e-09
3.57272e-09
3.58294e-09
3.58994e-09
3.59605e-09
3.59908e-09
3.60139e-09
3.60299e-09
3.60406e-09
3.60488e-09
3.60545e-09
3.6059e-09
3.60625e-09
3.60651e-09
3.60673e-09
3.60688e-09
3.60702e-09
3.60711e-09
3.60719e-09
3.60724e-09
3.60728e-09
3.60731e-09
3.60733e-09
3.60734e-09
3.60735e-09
3.60735e-09
3.60734e-09
3.60733e-09
3.60731e-09
3.60728e-09
3.60724e-09
3.60719e-09
3.60711e-09
3.60702e-09
3.60688e-09
3.60673e-09
3.60651e-09
3.60625e-09
3.6059e-09
3.60545e-09
3.60488e-09
3.60406e-09
3.60299e-09
3.60139e-09
3.59909e-09
3.59605e-09
3.58994e-09
3.58294e-09
3.57272e-09
3.56337e-09
3.57088e-09
3.58005e-09
3.59034e-09
3.59738e-09
3.60363e-09
3.60671e-09
3.60912e-09
3.61076e-09
3.61188e-09
3.61272e-09
3.61332e-09
3.61377e-09
3.61414e-09
3.61441e-09
3.61463e-09
3.61479e-09
3.61493e-09
3.61502e-09
3.6151e-09
3.61515e-09
3.6152e-09
3.61523e-09
3.61525e-09
3.61526e-09
3.61527e-09
3.61527e-09
3.61526e-09
3.61525e-09
3.61523e-09
3.6152e-09
3.61516e-09
3.6151e-09
3.61502e-09
3.61493e-09
3.61479e-09
3.61463e-09
3.6144e-09
3.61414e-09
3.61377e-09
3.61332e-09
3.61272e-09
3.61188e-09
3.61076e-09
3.60912e-09
3.60671e-09
3.60363e-09
3.59739e-09
3.59034e-09
3.58005e-09
3.57088e-09
3.58075e-09
3.58975e-09
3.6001e-09
3.60719e-09
3.61352e-09
3.61664e-09
3.61912e-09
3.62081e-09
3.62196e-09
3.62282e-09
3.62344e-09
3.6239e-09
3.62428e-09
3.62455e-09
3.62478e-09
3.62494e-09
3.62508e-09
3.62517e-09
3.62526e-09
3.62531e-09
3.62536e-09
3.62538e-09
3.62541e-09
3.62542e-09
3.62543e-09
3.62543e-09
3.62542e-09
3.62541e-09
3.62538e-09
3.62536e-09
3.62531e-09
3.62526e-09
3.62517e-09
3.62508e-09
3.62494e-09
3.62478e-09
3.62454e-09
3.62427e-09
3.6239e-09
3.62344e-09
3.62282e-09
3.62196e-09
3.62081e-09
3.61912e-09
3.61664e-09
3.61352e-09
3.60719e-09
3.60011e-09
3.58975e-09
3.58075e-09
3.5929e-09
3.60175e-09
3.61215e-09
3.61926e-09
3.62562e-09
3.62879e-09
3.63133e-09
3.63305e-09
3.63422e-09
3.6351e-09
3.63572e-09
3.63619e-09
3.63657e-09
3.63684e-09
3.63708e-09
3.63724e-09
3.63739e-09
3.63748e-09
3.63757e-09
3.63762e-09
3.63767e-09
3.63769e-09
3.63772e-09
3.63773e-09
3.63774e-09
3.63774e-09
3.63773e-09
3.63772e-09
3.63769e-09
3.63767e-09
3.63762e-09
3.63757e-09
3.63748e-09
3.63739e-09
3.63724e-09
3.63708e-09
3.63684e-09
3.63657e-09
3.63618e-09
3.63572e-09
3.6351e-09
3.63422e-09
3.63305e-09
3.63133e-09
3.62879e-09
3.62562e-09
3.61926e-09
3.61216e-09
3.60175e-09
3.59291e-09
3.60701e-09
3.61571e-09
3.62614e-09
3.63326e-09
3.63958e-09
3.64279e-09
3.64536e-09
3.64711e-09
3.64828e-09
3.64917e-09
3.6498e-09
3.65027e-09
3.65066e-09
3.65093e-09
3.65117e-09
3.65133e-09
3.65148e-09
3.65157e-09
3.65166e-09
3.65171e-09
3.65176e-09
3.65178e-09
3.65181e-09
3.65182e-09
3.65183e-09
3.65183e-09
3.65182e-09
3.65181e-09
3.65178e-09
3.65176e-09
3.65171e-09
3.65166e-09
3.65157e-09
3.65148e-09
3.65133e-09
3.65117e-09
3.65092e-09
3.65066e-09
3.65026e-09
3.6498e-09
3.64917e-09
3.64828e-09
3.64711e-09
3.64536e-09
3.64279e-09
3.63959e-09
3.63326e-09
3.62614e-09
3.61571e-09
3.60702e-09
3.62303e-09
3.63158e-09
3.64202e-09
3.64915e-09
3.65541e-09
3.65865e-09
3.66124e-09
3.66301e-09
3.66418e-09
3.66508e-09
3.66571e-09
3.66617e-09
3.66656e-09
3.66683e-09
3.66708e-09
3.66723e-09
3.66739e-09
3.66748e-09
3.66757e-09
3.66761e-09
3.66767e-09
3.66769e-09
3.66772e-09
3.66773e-09
3.66774e-09
3.66774e-09
3.66773e-09
3.66772e-09
3.66769e-09
3.66767e-09
3.66762e-09
3.66757e-09
3.66747e-09
3.66739e-09
3.66723e-09
3.66708e-09
3.66683e-09
3.66656e-09
3.66617e-09
3.6657e-09
3.66508e-09
3.66418e-09
3.66301e-09
3.66124e-09
3.65865e-09
3.65541e-09
3.64915e-09
3.64202e-09
3.63158e-09
3.62303e-09
3.6403e-09
3.6487e-09
3.65904e-09
3.66611e-09
3.67222e-09
3.67546e-09
3.67803e-09
3.67979e-09
3.68094e-09
3.68183e-09
3.68245e-09
3.6829e-09
3.68329e-09
3.68356e-09
3.68381e-09
3.68395e-09
3.68411e-09
3.68419e-09
3.68429e-09
3.68433e-09
3.68439e-09
3.68441e-09
3.68444e-09
3.68445e-09
3.68446e-09
3.68446e-09
3.68445e-09
3.68444e-09
3.68441e-09
3.68439e-09
3.68433e-09
3.68429e-09
3.68419e-09
3.68411e-09
3.68395e-09
3.6838e-09
3.68355e-09
3.68329e-09
3.6829e-09
3.68244e-09
3.68183e-09
3.68094e-09
3.67979e-09
3.67803e-09
3.67546e-09
3.67223e-09
3.66612e-09
3.65904e-09
3.6487e-09
3.6403e-09
3.65747e-09
3.66568e-09
3.67587e-09
3.68282e-09
3.68876e-09
3.69193e-09
3.69447e-09
3.6962e-09
3.69732e-09
3.69819e-09
3.69879e-09
3.69923e-09
3.69962e-09
3.69987e-09
3.70012e-09
3.70026e-09
3.70042e-09
3.7005e-09
3.70059e-09
3.70063e-09
3.70069e-09
3.70071e-09
3.70074e-09
3.70075e-09
3.70076e-09
3.70076e-09
3.70075e-09
3.70074e-09
3.70071e-09
3.70069e-09
3.70063e-09
3.70059e-09
3.7005e-09
3.70042e-09
3.70026e-09
3.70011e-09
3.69987e-09
3.69961e-09
3.69923e-09
3.69878e-09
3.69819e-09
3.69732e-09
3.6962e-09
3.69447e-09
3.69193e-09
3.68876e-09
3.68282e-09
3.67587e-09
3.66569e-09
3.65747e-09
3.67463e-09
3.68254e-09
3.6925e-09
3.69926e-09
3.705e-09
3.7081e-09
3.71057e-09
3.71226e-09
3.71335e-09
3.7142e-09
3.71477e-09
3.7152e-09
3.71558e-09
3.71583e-09
3.71607e-09
3.71621e-09
3.71636e-09
3.71644e-09
3.71653e-09
3.71658e-09
3.71663e-09
3.71665e-09
3.71668e-09
3.71669e-09
3.71669e-09
3.71669e-09
3.71669e-09
3.71668e-09
3.71665e-09
3.71663e-09
3.71658e-09
3.71653e-09
3.71644e-09
3.71636e-09
3.71621e-09
3.71607e-09
3.71583e-09
3.71558e-09
3.7152e-09
3.71477e-09
3.7142e-09
3.71335e-09
3.71226e-09
3.71057e-09
3.7081e-09
3.705e-09
3.69926e-09
3.6925e-09
3.68255e-09
3.67463e-09
3.69087e-09
3.69853e-09
3.70812e-09
3.71461e-09
3.72008e-09
3.72305e-09
3.72538e-09
3.72699e-09
3.72803e-09
3.72884e-09
3.72938e-09
3.72979e-09
3.73014e-09
3.73038e-09
3.73061e-09
3.73075e-09
3.7309e-09
3.73097e-09
3.73106e-09
3.7311e-09
3.73115e-09
3.73117e-09
3.7312e-09
3.73121e-09
3.73122e-09
3.73122e-09
3.73121e-09
3.7312e-09
3.73117e-09
3.73115e-09
3.7311e-09
3.73106e-09
3.73097e-09
3.73089e-09
3.73075e-09
3.73061e-09
3.73038e-09
3.73014e-09
3.72978e-09
3.72938e-09
3.72884e-09
3.72803e-09
3.72699e-09
3.72538e-09
3.72305e-09
3.72008e-09
3.71461e-09
3.70812e-09
3.69853e-09
3.69088e-09
3.70607e-09
3.71341e-09
3.72247e-09
3.72861e-09
3.73376e-09
3.73654e-09
3.7387e-09
3.7402e-09
3.74118e-09
3.74193e-09
3.74242e-09
3.7428e-09
3.74314e-09
3.74336e-09
3.74358e-09
3.74371e-09
3.74385e-09
3.74392e-09
3.744e-09
3.74404e-09
3.74409e-09
3.74411e-09
3.74414e-09
3.74415e-09
3.74415e-09
3.74415e-09
3.74415e-09
3.74414e-09
3.74411e-09
3.74409e-09
3.74404e-09
3.744e-09
3.74392e-09
3.74385e-09
3.74371e-09
3.74358e-09
3.74336e-09
3.74313e-09
3.7428e-09
3.74242e-09
3.74193e-09
3.74117e-09
3.7402e-09
3.7387e-09
3.73654e-09
3.73376e-09
3.72861e-09
3.72247e-09
3.71341e-09
3.70608e-09
3.71903e-09
3.72599e-09
3.7343e-09
3.73964e-09
3.74442e-09
3.74693e-09
3.74889e-09
3.75024e-09
3.75113e-09
3.75181e-09
3.75225e-09
3.7526e-09
3.75291e-09
3.75311e-09
3.75332e-09
3.75344e-09
3.75357e-09
3.75363e-09
3.75371e-09
3.75375e-09
3.7538e-09
3.75382e-09
3.75384e-09
3.75385e-09
3.75386e-09
3.75386e-09
3.75385e-09
3.75384e-09
3.75382e-09
3.7538e-09
3.75375e-09
3.75371e-09
3.75363e-09
3.75357e-09
3.75343e-09
3.75331e-09
3.75311e-09
3.7529e-09
3.7526e-09
3.75225e-09
3.75181e-09
3.75113e-09
3.75025e-09
3.74889e-09
3.74693e-09
3.74442e-09
3.73965e-09
3.7343e-09
3.726e-09
3.71903e-09
3.72843e-09
3.73494e-09
3.74246e-09
3.74728e-09
3.75161e-09
3.75378e-09
3.75553e-09
3.75669e-09
3.75748e-09
3.75807e-09
3.75845e-09
3.75876e-09
3.75903e-09
3.75922e-09
3.7594e-09
3.75952e-09
3.75964e-09
3.7597e-09
3.75977e-09
3.75981e-09
3.75985e-09
3.75987e-09
3.75989e-09
3.7599e-09
3.75991e-09
3.75991e-09
3.7599e-09
3.75989e-09
3.75987e-09
3.75985e-09
3.75981e-09
3.75977e-09
3.7597e-09
3.75963e-09
3.75951e-09
3.7594e-09
3.75922e-09
3.75903e-09
3.75875e-09
3.75845e-09
3.75807e-09
3.75748e-09
3.75669e-09
3.75553e-09
3.75379e-09
3.75161e-09
3.74728e-09
3.74246e-09
3.73495e-09
3.72844e-09
3.73403e-09
3.73999e-09
3.7466e-09
3.7508e-09
3.75462e-09
3.75639e-09
3.75787e-09
3.75881e-09
3.75948e-09
3.75996e-09
3.76028e-09
3.76053e-09
3.76077e-09
3.76094e-09
3.7611e-09
3.7612e-09
3.7613e-09
3.76136e-09
3.76143e-09
3.76146e-09
3.7615e-09
3.76152e-09
3.76154e-09
3.76155e-09
3.76155e-09
3.76155e-09
3.76155e-09
3.76154e-09
3.76152e-09
3.7615e-09
3.76146e-09
3.76143e-09
3.76136e-09
3.7613e-09
3.7612e-09
3.7611e-09
3.76094e-09
3.76077e-09
3.76053e-09
3.76027e-09
3.75996e-09
3.75948e-09
3.75881e-09
3.75787e-09
3.75639e-09
3.75462e-09
3.7508e-09
3.74661e-09
3.73999e-09
3.73403e-09
3.73477e-09
3.73995e-09
3.74555e-09
3.74908e-09
3.75227e-09
3.75361e-09
3.7548e-09
3.7555e-09
3.75603e-09
3.75639e-09
3.75663e-09
3.75684e-09
3.75703e-09
3.75718e-09
3.75731e-09
3.7574e-09
3.75749e-09
3.75754e-09
3.7576e-09
3.75763e-09
3.75767e-09
3.75768e-09
3.7577e-09
3.75771e-09
3.75771e-09
3.75771e-09
3.75771e-09
3.7577e-09
3.75768e-09
3.75767e-09
3.75763e-09
3.7576e-09
3.75754e-09
3.75749e-09
3.7574e-09
3.75731e-09
3.75718e-09
3.75703e-09
3.75684e-09
3.75663e-09
3.75639e-09
3.75603e-09
3.7555e-09
3.7548e-09
3.75361e-09
3.75227e-09
3.74908e-09
3.74555e-09
3.73996e-09
3.73477e-09
3.72975e-09
3.73419e-09
3.73859e-09
3.7414e-09
3.74388e-09
3.74474e-09
3.7456e-09
3.74605e-09
3.74641e-09
3.74664e-09
3.7468e-09
3.74695e-09
3.74709e-09
3.7472e-09
3.74731e-09
3.74738e-09
3.74745e-09
3.7475e-09
3.74755e-09
3.74758e-09
3.74761e-09
3.74762e-09
3.74764e-09
3.74764e-09
3.74765e-09
3.74765e-09
3.74764e-09
3.74764e-09
3.74762e-09
3.74761e-09
3.74758e-09
3.74755e-09
3.7475e-09
3.74745e-09
3.74738e-09
3.7473e-09
3.7472e-09
3.74709e-09
3.74695e-09
3.7468e-09
3.74664e-09
3.74641e-09
3.74605e-09
3.7456e-09
3.74474e-09
3.74387e-09
3.7414e-09
3.73859e-09
3.73419e-09
3.72975e-09
3.71809e-09
3.72172e-09
3.72469e-09
3.7267e-09
3.72834e-09
3.72868e-09
3.72916e-09
3.72932e-09
3.7295e-09
3.72959e-09
3.72965e-09
3.72974e-09
3.72982e-09
3.72991e-09
3.72998e-09
3.73004e-09
3.73009e-09
3.73013e-09
3.73017e-09
3.73019e-09
3.73022e-09
3.73023e-09
3.73024e-09
3.73025e-09
3.73025e-09
3.73026e-09
3.73025e-09
3.73024e-09
3.73023e-09
3.73022e-09
3.73019e-09
3.73017e-09
3.73013e-09
3.73009e-09
3.73004e-09
3.72997e-09
3.72991e-09
3.72982e-09
3.72974e-09
3.72965e-09
3.72959e-09
3.7295e-09
3.72932e-09
3.72916e-09
3.72867e-09
3.72834e-09
3.7267e-09
3.72469e-09
3.72172e-09
3.71809e-09
3.69888e-09
3.70161e-09
3.7035e-09
3.70469e-09
3.70546e-09
3.70524e-09
3.70535e-09
3.70521e-09
3.70521e-09
3.70515e-09
3.70512e-09
3.70514e-09
3.70516e-09
3.70522e-09
3.70525e-09
3.7053e-09
3.70533e-09
3.70537e-09
3.70539e-09
3.70541e-09
3.70543e-09
3.70544e-09
3.70545e-09
3.70546e-09
3.70546e-09
3.70546e-09
3.70546e-09
3.70545e-09
3.70544e-09
3.70543e-09
3.70541e-09
3.70539e-09
3.70537e-09
3.70533e-09
3.7053e-09
3.70525e-09
3.70522e-09
3.70516e-09
3.70514e-09
3.70512e-09
3.70515e-09
3.70521e-09
3.70521e-09
3.70535e-09
3.70524e-09
3.70546e-09
3.70468e-09
3.7035e-09
3.70161e-09
3.69888e-09
3.67211e-09
3.67386e-09
3.67396e-09
3.67415e-09
3.6739e-09
3.67303e-09
3.67271e-09
3.67223e-09
3.67201e-09
3.67178e-09
3.67164e-09
3.67158e-09
3.67154e-09
3.67156e-09
3.67155e-09
3.67159e-09
3.67159e-09
3.67162e-09
3.67163e-09
3.67165e-09
3.67166e-09
3.67168e-09
3.67168e-09
3.67169e-09
3.67169e-09
3.67169e-09
3.67169e-09
3.67168e-09
3.67168e-09
3.67166e-09
3.67165e-09
3.67163e-09
3.67162e-09
3.67159e-09
3.67159e-09
3.67155e-09
3.67156e-09
3.67154e-09
3.67158e-09
3.67163e-09
3.67178e-09
3.67201e-09
3.67223e-09
3.6727e-09
3.67302e-09
3.6739e-09
3.67415e-09
3.67396e-09
3.67386e-09
3.67211e-09
3.63599e-09
3.63743e-09
3.6358e-09
3.63506e-09
3.63384e-09
3.63234e-09
3.63163e-09
3.63082e-09
3.63041e-09
3.63002e-09
3.62977e-09
3.62964e-09
3.62954e-09
3.62953e-09
3.62948e-09
3.6295e-09
3.62948e-09
3.62951e-09
3.6295e-09
3.62952e-09
3.62952e-09
3.62953e-09
3.62953e-09
3.62954e-09
3.62954e-09
3.62954e-09
3.62954e-09
3.62953e-09
3.62953e-09
3.62952e-09
3.62952e-09
3.6295e-09
3.62951e-09
3.62948e-09
3.6295e-09
3.62948e-09
3.62953e-09
3.62954e-09
3.62964e-09
3.62976e-09
3.63002e-09
3.63041e-09
3.63082e-09
3.63162e-09
3.63234e-09
3.63384e-09
3.63506e-09
3.6358e-09
3.63743e-09
3.63599e-09
3.59153e-09
3.59194e-09
3.58846e-09
3.58675e-09
3.58445e-09
3.58216e-09
3.58099e-09
3.5798e-09
3.57915e-09
3.57856e-09
3.57819e-09
3.57798e-09
3.5778e-09
3.57776e-09
3.57766e-09
3.57767e-09
3.57762e-09
3.57764e-09
3.57761e-09
3.57764e-09
3.57762e-09
3.57764e-09
3.57764e-09
3.57765e-09
3.57764e-09
3.57764e-09
3.57765e-09
3.57764e-09
3.57764e-09
3.57762e-09
3.57764e-09
3.57761e-09
3.57764e-09
3.57762e-09
3.57767e-09
3.57766e-09
3.57776e-09
3.5778e-09
3.57798e-09
3.57819e-09
3.57856e-09
3.57915e-09
3.57979e-09
3.58099e-09
3.58216e-09
3.58445e-09
3.58675e-09
3.58845e-09
3.59194e-09
3.59153e-09
3.53667e-09
3.53597e-09
3.53165e-09
3.52899e-09
3.52562e-09
3.52264e-09
3.52109e-09
3.51955e-09
3.51871e-09
3.51796e-09
3.51748e-09
3.5172e-09
3.51696e-09
3.51688e-09
3.51674e-09
3.51674e-09
3.51666e-09
3.51668e-09
3.51664e-09
3.51666e-09
3.51664e-09
3.51666e-09
3.51665e-09
3.51666e-09
3.51665e-09
3.51665e-09
3.51666e-09
3.51665e-09
3.51666e-09
3.51664e-09
3.51666e-09
3.51664e-09
3.51668e-09
3.51666e-09
3.51674e-09
3.51674e-09
3.51688e-09
3.51696e-09
3.5172e-09
3.51748e-09
3.51796e-09
3.51871e-09
3.51955e-09
3.52109e-09
3.52264e-09
3.52561e-09
3.52899e-09
3.53165e-09
3.53597e-09
3.53667e-09
3.4732e-09
3.47149e-09
3.46503e-09
3.46116e-09
3.45641e-09
3.4526e-09
3.45062e-09
3.44867e-09
3.4476e-09
3.44666e-09
3.44606e-09
3.44569e-09
3.44538e-09
3.44527e-09
3.44509e-09
3.44506e-09
3.44496e-09
3.44497e-09
3.44491e-09
3.44494e-09
3.4449e-09
3.44492e-09
3.44491e-09
3.44492e-09
3.44491e-09
3.44491e-09
3.44492e-09
3.44491e-09
3.44492e-09
3.4449e-09
3.44494e-09
3.44491e-09
3.44497e-09
3.44496e-09
3.44506e-09
3.44509e-09
3.44527e-09
3.44538e-09
3.44569e-09
3.44606e-09
3.44666e-09
3.4476e-09
3.44867e-09
3.45061e-09
3.4526e-09
3.45641e-09
3.46116e-09
3.46502e-09
3.47149e-09
3.47319e-09
3.39849e-09
3.39566e-09
3.38716e-09
3.38235e-09
3.37835e-09
3.37385e-09
3.37152e-09
3.36923e-09
3.36798e-09
3.36688e-09
3.36618e-09
3.36574e-09
3.36537e-09
3.36523e-09
3.36501e-09
3.36498e-09
3.36485e-09
3.36486e-09
3.36478e-09
3.36481e-09
3.36477e-09
3.36479e-09
3.36477e-09
3.36478e-09
3.36477e-09
3.36477e-09
3.36478e-09
3.36477e-09
3.36479e-09
3.36477e-09
3.36481e-09
3.36478e-09
3.36486e-09
3.36485e-09
3.36498e-09
3.36501e-09
3.36523e-09
3.36537e-09
3.36575e-09
3.36617e-09
3.36688e-09
3.36798e-09
3.36923e-09
3.37151e-09
3.37384e-09
3.37835e-09
3.38234e-09
3.38715e-09
3.39565e-09
3.39848e-09
3.31589e-09
3.31209e-09
3.30166e-09
3.29596e-09
3.29096e-09
3.28578e-09
3.28313e-09
3.28052e-09
3.2791e-09
3.27785e-09
3.27705e-09
3.27656e-09
3.27613e-09
3.27596e-09
3.2757e-09
3.27566e-09
3.27551e-09
3.27552e-09
3.27543e-09
3.27545e-09
3.2754e-09
3.27542e-09
3.2754e-09
3.27541e-09
3.2754e-09
3.2754e-09
3.27541e-09
3.2754e-09
3.27542e-09
3.2754e-09
3.27545e-09
3.27543e-09
3.27552e-09
3.27551e-09
3.27566e-09
3.27571e-09
3.27596e-09
3.27613e-09
3.27656e-09
3.27705e-09
3.27785e-09
3.2791e-09
3.28051e-09
3.28312e-09
3.28577e-09
3.29096e-09
3.29595e-09
3.30165e-09
3.31208e-09
3.31588e-09
3.22279e-09
3.21795e-09
3.20708e-09
3.20053e-09
3.19467e-09
3.18884e-09
3.1859e-09
3.18299e-09
3.18144e-09
3.18004e-09
3.17916e-09
3.17861e-09
3.17813e-09
3.17794e-09
3.17765e-09
3.1776e-09
3.17743e-09
3.17743e-09
3.17733e-09
3.17735e-09
3.1773e-09
3.17732e-09
3.17729e-09
3.1773e-09
3.17729e-09
3.17729e-09
3.1773e-09
3.17729e-09
3.17732e-09
3.17729e-09
3.17735e-09
3.17733e-09
3.17743e-09
3.17743e-09
3.1776e-09
3.17765e-09
3.17794e-09
3.17813e-09
3.17861e-09
3.17916e-09
3.18005e-09
3.18144e-09
3.18299e-09
3.1859e-09
3.18883e-09
3.19467e-09
3.20052e-09
3.20707e-09
3.21794e-09
3.22278e-09
3.12234e-09
3.11657e-09
3.10405e-09
3.09667e-09
3.09007e-09
3.08364e-09
3.08045e-09
3.07712e-09
3.07533e-09
3.07372e-09
3.07272e-09
3.07208e-09
3.07152e-09
3.0713e-09
3.07096e-09
3.07089e-09
3.07069e-09
3.07069e-09
3.07057e-09
3.07059e-09
3.07053e-09
3.07055e-09
3.07051e-09
3.07053e-09
3.07052e-09
3.07052e-09
3.07053e-09
3.07051e-09
3.07055e-09
3.07052e-09
3.07059e-09
3.07057e-09
3.07069e-09
3.07069e-09
3.0709e-09
3.07096e-09
3.0713e-09
3.07153e-09
3.07208e-09
3.07271e-09
3.07373e-09
3.07533e-09
3.07712e-09
3.08045e-09
3.08364e-09
3.09006e-09
3.09666e-09
3.10403e-09
3.11656e-09
3.12233e-09
3.01392e-09
3.00723e-09
2.99328e-09
2.9851e-09
2.97788e-09
2.97094e-09
2.96752e-09
2.96396e-09
2.96205e-09
2.96033e-09
2.95926e-09
2.95857e-09
2.95798e-09
2.95774e-09
2.95737e-09
2.9573e-09
2.95708e-09
2.95708e-09
2.95695e-09
2.95697e-09
2.9569e-09
2.95692e-09
2.95688e-09
2.9569e-09
2.95689e-09
2.95689e-09
2.9569e-09
2.95688e-09
2.95692e-09
2.9569e-09
2.95697e-09
2.95695e-09
2.95708e-09
2.95708e-09
2.9573e-09
2.95737e-09
2.95774e-09
2.95798e-09
2.95858e-09
2.95926e-09
2.96034e-09
2.96205e-09
2.96395e-09
2.96751e-09
2.97093e-09
2.97787e-09
2.98509e-09
2.99326e-09
3.00722e-09
3.01391e-09
2.89834e-09
2.8908e-09
2.87558e-09
2.86668e-09
2.85896e-09
2.85158e-09
2.84796e-09
2.84422e-09
2.84221e-09
2.8404e-09
2.83928e-09
2.83855e-09
2.83792e-09
2.83766e-09
2.83727e-09
2.8372e-09
2.83696e-09
2.83696e-09
2.83682e-09
2.83685e-09
2.83677e-09
2.83679e-09
2.83675e-09
2.83677e-09
2.83675e-09
2.83675e-09
2.83677e-09
2.83675e-09
2.83679e-09
2.83677e-09
2.83685e-09
2.83682e-09
2.83696e-09
2.83696e-09
2.8372e-09
2.83728e-09
2.83766e-09
2.83792e-09
2.83855e-09
2.83927e-09
2.84041e-09
2.84221e-09
2.84421e-09
2.84795e-09
2.85158e-09
2.85895e-09
2.86667e-09
2.87556e-09
2.89079e-09
2.89833e-09
2.77653e-09
2.76824e-09
2.75188e-09
2.74236e-09
2.73426e-09
2.72655e-09
2.72275e-09
2.71886e-09
2.71678e-09
2.7149e-09
2.71373e-09
2.71297e-09
2.71231e-09
2.71204e-09
2.71164e-09
2.71156e-09
2.71131e-09
2.71131e-09
2.71116e-09
2.71119e-09
2.71111e-09
2.71113e-09
2.71109e-09
2.71111e-09
2.71109e-09
2.71109e-09
2.71111e-09
2.71109e-09
2.71113e-09
2.7111e-09
2.71119e-09
2.71116e-09
2.71131e-09
2.71131e-09
2.71156e-09
2.71164e-09
2.71205e-09
2.71231e-09
2.71297e-09
2.71372e-09
2.7149e-09
2.71678e-09
2.71886e-09
2.72274e-09
2.72655e-09
2.73425e-09
2.74235e-09
2.75186e-09
2.76823e-09
2.77651e-09
2.64927e-09
2.63995e-09
2.62319e-09
2.61318e-09
2.60479e-09
2.59687e-09
2.59292e-09
2.58892e-09
2.58678e-09
2.58485e-09
2.58365e-09
2.58286e-09
2.58219e-09
2.58192e-09
2.5815e-09
2.58142e-09
2.58116e-09
2.58116e-09
2.58101e-09
2.58104e-09
2.58095e-09
2.58098e-09
2.58093e-09
2.58095e-09
2.58093e-09
2.58093e-09
2.58095e-09
2.58093e-09
2.58097e-09
2.58094e-09
2.58103e-09
2.58101e-09
2.58116e-09
2.58116e-09
2.58142e-09
2.5815e-09
2.58192e-09
2.58219e-09
2.58286e-09
2.58365e-09
2.58486e-09
2.58679e-09
2.58891e-09
2.59291e-09
2.59686e-09
2.60478e-09
2.61317e-09
2.62317e-09
2.63993e-09
2.64926e-09
2.51803e-09
2.50817e-09
2.49059e-09
2.48022e-09
2.47165e-09
2.46357e-09
2.45953e-09
2.45545e-09
2.45331e-09
2.45134e-09
2.45012e-09
2.44931e-09
2.44862e-09
2.44835e-09
2.44792e-09
2.44784e-09
2.44758e-09
2.44758e-09
2.44742e-09
2.44745e-09
2.44736e-09
2.44739e-09
2.44734e-09
2.44736e-09
2.44734e-09
2.44734e-09
2.44736e-09
2.44734e-09
2.44739e-09
2.44736e-09
2.44745e-09
2.44742e-09
2.44758e-09
2.44758e-09
2.44784e-09
2.44792e-09
2.44835e-09
2.44862e-09
2.44931e-09
2.45011e-09
2.45134e-09
2.45331e-09
2.45545e-09
2.45953e-09
2.46356e-09
2.47163e-09
2.4802e-09
2.49056e-09
2.50816e-09
2.51801e-09
2.3837e-09
2.37342e-09
2.35515e-09
2.34455e-09
2.3359e-09
2.32775e-09
2.32368e-09
2.31956e-09
2.31742e-09
2.31543e-09
2.31421e-09
)
;

boundaryField
{
    fuel
    {
        type            fixedValue;
        value           nonuniform 0();
    }
    wall
    {
        type            zeroGradient;
    }
    outlet
    {
        type            zeroGradient;
    }
    frontAndBack
    {
        type            empty;
    }
    procBoundary2to0
    {
        type            processor;
        value           nonuniform List<scalar> 
53
(
3.68428e-09
3.69717e-09
3.70802e-09
3.71487e-09
3.7187e-09
3.72144e-09
3.72251e-09
3.72341e-09
3.72379e-09
3.72423e-09
3.72442e-09
3.7247e-09
3.72481e-09
3.72501e-09
3.72508e-09
3.72522e-09
3.72526e-09
3.72536e-09
3.69507e-09
3.69507e-09
3.69513e-09
3.69514e-09
3.69518e-09
3.69518e-09
3.6952e-09
3.6952e-09
3.6952e-09
3.6952e-09
3.69518e-09
3.66934e-09
3.66934e-09
3.66931e-09
3.66929e-09
3.66923e-09
3.6692e-09
3.6691e-09
3.66904e-09
3.6689e-09
3.6688e-09
3.66858e-09
3.66842e-09
3.6681e-09
3.64621e-09
3.64621e-09
3.64565e-09
3.64504e-09
3.64393e-09
3.64246e-09
3.63967e-09
3.63521e-09
3.62837e-09
3.61816e-09
3.60669e-09
)
;
    }
    procBoundary2to3
    {
        type            processor;
        value           nonuniform List<scalar> 
51
(
2.31338e-09
2.31269e-09
2.31242e-09
2.31199e-09
2.31192e-09
2.31165e-09
2.31165e-09
2.31149e-09
2.31152e-09
2.31143e-09
2.31146e-09
2.31141e-09
2.31143e-09
2.31141e-09
2.31141e-09
2.31143e-09
2.31141e-09
2.31146e-09
2.31142e-09
2.31152e-09
2.31149e-09
2.31165e-09
2.31165e-09
2.31192e-09
2.31199e-09
2.31243e-09
2.3127e-09
2.31339e-09
2.31421e-09
2.31543e-09
2.31742e-09
2.31955e-09
2.32367e-09
2.32774e-09
2.33589e-09
2.34454e-09
2.35513e-09
2.3734e-09
2.38368e-09
2.24737e-09
2.23679e-09
2.21796e-09
2.20727e-09
2.19864e-09
2.19049e-09
2.18642e-09
2.1823e-09
2.1802e-09
2.17821e-09
2.31338e-09
2.177e-09
)
;
    }
}


// ************************************************************************* //
