/*--------------------------------*- C++ -*----------------------------------*\
| =========                 |                                                 |
| \\      /  F ield         | OpenFOAM: The Open Source CFD Toolbox           |
|  \\    /   O peration     | Version:  dev                                   |
|   \\  /    A nd           | Web:      www.OpenFOAM.org                      |
|    \\/     M anipulation  |                                                 |
\*---------------------------------------------------------------------------*/
FoamFile
{
    version     2.0;
    format      ascii;
    class       volScalarField;
    location    "0.09";
    object      A2C2HA;
}
// * * * * * * * * * * * * * * * * * * * * * * * * * * * * * * * * * * * * * //

dimensions      [0 0 0 0 0 0 0];

internalField   nonuniform List<scalar> 
25
(
7.92053e-16
8.94531e-16
1.00096e-15
1.1125e-15
1.22818e-15
1.34654e-15
1.46631e-15
1.58596e-15
1.70384e-15
1.81818e-15
1.92708e-15
2.02865e-15
2.12071e-15
2.20128e-15
2.26832e-15
2.31989e-15
2.35417e-15
2.36956e-15
2.36474e-15
2.33872e-15
2.29091e-15
2.22141e-15
2.13075e-15
2.02014e-15
1.89145e-15
)
;

boundaryField
{
    wall
    {
        type            zeroGradient;
    }
    fuel
    {
        type            fixedValue;
        value           nonuniform 0();
    }
    outlet
    {
        type            inletOutlet;
        inletValue      nonuniform 0();
        value           nonuniform 0();
    }
    procBoundary2to1
    {
        type            processor;
        value           uniform 6.98218e-16;
    }
    procBoundary2to3
    {
        type            processor;
        value           uniform 1.74727e-15;
    }
}


// ************************************************************************* //
