/*--------------------------------*- C++ -*----------------------------------*\
| =========                 |                                                 |
| \\      /  F ield         | OpenFOAM: The Open Source CFD Toolbox           |
|  \\    /   O peration     | Version:  dev                                   |
|   \\  /    A nd           | Web:      www.OpenFOAM.org                      |
|    \\/     M anipulation  |                                                 |
\*---------------------------------------------------------------------------*/
FoamFile
{
    version     2.0;
    format      ascii;
    class       volScalarField;
    location    "0.09";
    object      A2C2HB*;
}
// * * * * * * * * * * * * * * * * * * * * * * * * * * * * * * * * * * * * * //

dimensions      [0 0 0 0 0 0 0];

internalField   nonuniform List<scalar> 
250
(
1.44702e-11
2.20916e-09
1.62653e-09
1.55752e-09
1.54862e-09
1.54757e-09
1.54788e-09
1.54745e-09
1.54819e-09
8.26334e-12
1.98043e-09
1.11832e-09
1.03479e-09
1.02589e-09
1.02496e-09
1.02465e-09
1.02477e-09
1.02495e-09
2.30266e-12
1.31171e-09
6.03514e-10
5.41254e-10
5.34777e-10
5.34072e-10
5.33777e-10
5.3389e-10
5.34023e-10
7.9213e-13
8.51336e-10
3.26284e-10
2.82341e-10
2.7789e-10
2.77412e-10
2.77188e-10
2.77245e-10
2.77386e-10
4.01111e-13
5.77531e-10
1.89312e-10
1.57746e-10
1.54738e-10
1.54474e-10
1.54349e-10
1.54309e-10
1.54476e-10
2.58494e-13
4.12725e-10
1.20192e-10
9.44028e-11
9.13285e-11
9.11116e-11
9.11196e-11
9.07889e-11
9.10453e-11
2.21003e-13
3.08301e-10
8.32416e-11
6.22835e-11
5.9757e-11
5.9801e-11
5.98853e-11
5.93256e-11
5.97581e-11
2.51281e-13
2.38441e-10
6.09137e-11
4.4189e-11
4.18984e-11
4.14066e-11
4.15252e-11
4.15128e-11
4.13082e-11
3.2035e-13
1.89412e-10
4.76365e-11
3.26003e-11
3.10916e-11
3.07545e-11
3.08531e-11
3.06329e-11
3.06717e-11
4.36144e-13
1.53553e-10
3.76444e-11
2.45341e-11
2.3197e-11
2.29557e-11
2.30195e-11
2.31287e-11
2.28897e-11
6.66799e-13
1.26397e-10
3.028e-11
1.96566e-11
1.84529e-11
1.82642e-11
1.83014e-11
1.82986e-11
1.82124e-11
1.8004e-11
1.0499e-12
1.052e-10
2.53077e-11
1.59445e-11
1.47444e-11
1.45664e-11
1.45836e-11
1.45469e-11
1.45278e-11
1.46173e-11
1.52787e-12
8.82104e-11
2.13951e-11
1.30746e-11
1.20034e-11
1.18483e-11
1.18515e-11
1.18104e-11
1.18219e-11
1.19004e-11
2.0756e-12
7.16833e-11
1.81309e-11
1.09096e-11
9.95387e-12
9.81503e-12
9.81003e-12
9.77035e-12
9.7972e-12
9.85084e-12
2.71035e-12
5.97666e-11
1.52445e-11
9.23715e-12
8.38547e-12
8.25915e-12
8.24972e-12
8.21217e-12
8.24658e-12
8.28636e-12
3.3811e-12
4.98157e-11
1.28784e-11
7.91776e-12
7.1591e-12
7.04295e-12
7.03149e-12
6.99572e-12
7.03307e-12
7.06494e-12
4.02674e-12
4.14294e-11
1.09248e-11
6.85608e-12
6.1801e-12
6.07257e-12
6.06053e-12
6.02622e-12
6.06364e-12
6.0877e-12
4.61219e-12
3.43316e-11
9.30375e-12
5.9854e-12
5.38277e-12
5.2828e-12
5.27103e-12
5.23804e-12
5.27384e-12
5.28914e-12
5.1312e-12
2.8387e-11
7.95386e-12
5.25819e-12
4.72083e-12
4.6277e-12
4.61669e-12
4.585e-12
4.61833e-12
4.62499e-12
5.58701e-12
2.30358e-11
6.8263e-12
4.63998e-12
4.16122e-12
4.07447e-12
4.06447e-12
4.03418e-12
4.06469e-12
4.06392e-12
5.98101e-12
1.88453e-11
5.88182e-12
4.10522e-12
3.67993e-12
3.5993e-12
3.59044e-12
3.56174e-12
3.58931e-12
3.58286e-12
6.29207e-12
1.50352e-11
5.08731e-12
3.634e-12
3.25883e-12
3.18419e-12
3.17651e-12
3.14967e-12
3.17427e-12
3.16393e-12
6.50285e-12
1.21767e-11
4.41885e-12
3.26524e-12
2.92716e-12
2.85839e-12
2.8516e-12
2.8263e-12
2.84863e-12
2.83596e-12
6.59147e-12
9.94111e-12
3.84926e-12
2.9388e-12
2.61703e-12
2.55286e-12
2.54712e-12
2.52153e-12
2.54298e-12
2.52798e-12
6.54965e-12
8.17882e-12
3.41114e-12
2.62059e-12
2.3565e-12
2.29849e-12
2.29353e-12
2.26958e-12
2.28907e-12
2.27361e-12
6.38982e-12
6.78864e-12
3.00709e-12
2.36318e-12
2.12543e-12
2.07391e-12
2.06964e-12
2.04749e-12
2.06506e-12
2.04982e-12
)
;

boundaryField
{
    fuel
    {
        type            fixedValue;
        value           uniform 0;
    }
    wall
    {
        type            zeroGradient;
    }
    outlet
    {
        type            zeroGradient;
    }
    frontAndBack
    {
        type            empty;
    }
    procBoundary2to0
    {
        type            processor;
        value           nonuniform List<scalar> 
12
(
2.27278e-12
6.13223e-12
5.70497e-12
2.68026e-12
2.13444e-12
1.92219e-12
1.87655e-12
1.87284e-12
1.85271e-12
1.86835e-12
2.05047e-12
1.85391e-12
)
;
    }
    procBoundary2to3
    {
        type            processor;
        value           nonuniform List<scalar> 
25
(
1.54798e-09
1.0248e-09
5.33915e-10
2.77297e-10
1.54385e-10
9.08613e-11
5.93742e-11
4.14445e-11
3.06141e-11
2.27884e-11
2.27884e-11
1.84063e-11
1.46132e-11
1.18497e-11
9.79622e-12
8.23112e-12
7.01058e-12
6.03822e-12
5.2478e-12
4.59298e-12
4.04073e-12
3.56714e-12
3.15416e-12
2.83019e-12
2.52507e-12
)
;
    }
}


// ************************************************************************* //
