/*--------------------------------*- C++ -*----------------------------------*\
| =========                 |                                                 |
| \\      /  F ield         | OpenFOAM: The Open Source CFD Toolbox           |
|  \\    /   O peration     | Version:  dev                                   |
|   \\  /    A nd           | Web:      www.OpenFOAM.org                      |
|    \\/     M anipulation  |                                                 |
\*---------------------------------------------------------------------------*/
FoamFile
{
    version     2.0;
    format      ascii;
    class       volScalarField;
    location    "0.09";
    object      A2R5-;
}
// * * * * * * * * * * * * * * * * * * * * * * * * * * * * * * * * * * * * * //

dimensions      [0 0 0 0 0 0 0];

internalField   nonuniform List<scalar> 
1997
(
4.0299e-09
4.03997e-09
4.03937e-09
4.0392e-09
4.0346e-09
4.03219e-09
4.02836e-09
4.02586e-09
4.02344e-09
4.022e-09
4.02061e-09
4.0199e-09
4.01909e-09
4.01876e-09
4.01829e-09
4.01817e-09
4.01789e-09
4.01786e-09
3.92081e-09
3.93e-09
3.92866e-09
3.92808e-09
3.92328e-09
3.92068e-09
3.91685e-09
3.91433e-09
3.91193e-09
3.91049e-09
3.90912e-09
3.9084e-09
3.90761e-09
3.90728e-09
3.90682e-09
3.90669e-09
3.90642e-09
3.90639e-09
3.90623e-09
3.90623e-09
3.90613e-09
3.90615e-09
3.90609e-09
3.9061e-09
3.90609e-09
3.90609e-09
3.90611e-09
3.9061e-09
3.81358e-09
3.82192e-09
3.81987e-09
3.81889e-09
3.81388e-09
3.8111e-09
3.80727e-09
3.80474e-09
3.80237e-09
3.80093e-09
3.79957e-09
3.79886e-09
3.79807e-09
3.79775e-09
3.79729e-09
3.79716e-09
3.79689e-09
3.79686e-09
3.7967e-09
3.79671e-09
3.79661e-09
3.79662e-09
3.79657e-09
3.79658e-09
3.79657e-09
3.79657e-09
3.79658e-09
3.79657e-09
3.79662e-09
3.79661e-09
3.79671e-09
3.7967e-09
3.79686e-09
3.79689e-09
3.79717e-09
3.79729e-09
3.79775e-09
3.79808e-09
3.79886e-09
3.79958e-09
3.70814e-09
3.71563e-09
3.7129e-09
3.71154e-09
3.70633e-09
3.70339e-09
3.69956e-09
3.69701e-09
3.69467e-09
3.69323e-09
3.6919e-09
3.69118e-09
3.69041e-09
3.69009e-09
3.68963e-09
3.68951e-09
3.68924e-09
3.68921e-09
3.68905e-09
3.68906e-09
3.68896e-09
3.68897e-09
3.68892e-09
3.68893e-09
3.68892e-09
3.68892e-09
3.68893e-09
3.68892e-09
3.68897e-09
3.68896e-09
3.68906e-09
3.68905e-09
3.68921e-09
3.68924e-09
3.68951e-09
3.68964e-09
3.69009e-09
3.69041e-09
3.69119e-09
3.6919e-09
3.69323e-09
3.69467e-09
3.69701e-09
3.69956e-09
3.70338e-09
3.70632e-09
3.71154e-09
3.71289e-09
3.71563e-09
3.70813e-09
3.60441e-09
3.61108e-09
3.6077e-09
3.60598e-09
3.60055e-09
3.59747e-09
3.59366e-09
3.59109e-09
3.58878e-09
3.58734e-09
3.58603e-09
3.58532e-09
3.58456e-09
3.58424e-09
3.58379e-09
3.58366e-09
3.5834e-09
3.58337e-09
3.58322e-09
3.58322e-09
3.58313e-09
3.58314e-09
3.58309e-09
3.5831e-09
3.58308e-09
3.58308e-09
3.5831e-09
3.58309e-09
3.58314e-09
3.58313e-09
3.58322e-09
3.58322e-09
3.58337e-09
3.5834e-09
3.58367e-09
3.58379e-09
3.58424e-09
3.58456e-09
3.58532e-09
3.58603e-09
3.58735e-09
3.58878e-09
3.59109e-09
3.59366e-09
3.59747e-09
3.60055e-09
3.60597e-09
3.60769e-09
3.61107e-09
3.6044e-09
3.5007e-09
3.50676e-09
3.50274e-09
3.50057e-09
3.49468e-09
3.49143e-09
3.48752e-09
3.48489e-09
3.48256e-09
3.4811e-09
3.47978e-09
3.47906e-09
3.47829e-09
3.47796e-09
3.47752e-09
3.47739e-09
3.47713e-09
3.47709e-09
3.47694e-09
3.47694e-09
3.47685e-09
3.47686e-09
3.47681e-09
3.47682e-09
3.4768e-09
3.4768e-09
3.47682e-09
3.47681e-09
3.47686e-09
3.47685e-09
3.47694e-09
3.47694e-09
3.47709e-09
3.47713e-09
3.47739e-09
3.47752e-09
3.47797e-09
3.4783e-09
3.47906e-09
3.47978e-09
3.4811e-09
3.48256e-09
3.48489e-09
3.48752e-09
3.49143e-09
3.49468e-09
3.50056e-09
3.50273e-09
3.50675e-09
3.5007e-09
3.40003e-09
3.40532e-09
3.40069e-09
3.39817e-09
3.39209e-09
3.38872e-09
3.38481e-09
3.38217e-09
3.37988e-09
3.37842e-09
3.37712e-09
3.37641e-09
3.37566e-09
3.37533e-09
3.37489e-09
3.37476e-09
3.3745e-09
3.37447e-09
3.37431e-09
3.37432e-09
3.37422e-09
3.37423e-09
3.37419e-09
3.37419e-09
3.37418e-09
3.37418e-09
3.37419e-09
3.37419e-09
3.37423e-09
3.37423e-09
3.37432e-09
3.37432e-09
3.37447e-09
3.3745e-09
3.37476e-09
3.37489e-09
3.37533e-09
3.37566e-09
3.37641e-09
3.37712e-09
3.37842e-09
3.37988e-09
3.38217e-09
3.38481e-09
3.38871e-09
3.39209e-09
3.39817e-09
3.40069e-09
3.40531e-09
3.40003e-09
3.3008e-09
3.30532e-09
3.30013e-09
3.29726e-09
3.291e-09
3.28751e-09
3.28354e-09
3.28078e-09
3.27842e-09
3.27691e-09
3.27559e-09
3.27486e-09
3.27409e-09
3.27376e-09
3.27331e-09
3.27317e-09
3.27291e-09
3.27287e-09
3.27271e-09
3.27271e-09
3.27262e-09
3.27263e-09
3.27258e-09
3.27259e-09
3.27257e-09
3.27257e-09
3.27259e-09
3.27258e-09
3.27263e-09
3.27262e-09
3.27272e-09
3.27271e-09
3.27287e-09
3.27291e-09
3.27318e-09
3.27331e-09
3.27376e-09
3.27409e-09
3.27486e-09
3.27559e-09
3.27692e-09
3.27843e-09
3.28078e-09
3.28354e-09
3.2875e-09
3.29099e-09
3.29725e-09
3.30012e-09
3.30532e-09
3.30079e-09
3.20295e-09
3.20675e-09
3.20099e-09
3.19779e-09
3.19136e-09
3.18776e-09
3.1838e-09
3.18103e-09
3.17871e-09
3.1772e-09
3.1759e-09
3.17517e-09
3.17442e-09
3.17408e-09
3.17364e-09
3.17351e-09
3.17325e-09
3.17321e-09
3.17306e-09
3.17306e-09
3.17297e-09
3.17298e-09
3.17293e-09
3.17293e-09
3.17292e-09
3.17292e-09
3.17293e-09
3.17293e-09
3.17298e-09
3.17297e-09
3.17306e-09
3.17306e-09
3.17321e-09
3.17325e-09
3.17351e-09
3.17365e-09
3.17409e-09
3.17442e-09
3.17517e-09
3.1759e-09
3.17721e-09
3.17871e-09
3.18103e-09
3.1838e-09
3.18776e-09
3.19136e-09
3.19778e-09
3.20099e-09
3.20674e-09
3.20295e-09
3.105e-09
3.10829e-09
3.10196e-09
3.09837e-09
3.0916e-09
3.08785e-09
3.0838e-09
3.08097e-09
3.07863e-09
3.0771e-09
3.07579e-09
3.07505e-09
3.0743e-09
3.07396e-09
3.07352e-09
3.07338e-09
3.07312e-09
3.07308e-09
3.07293e-09
3.07293e-09
3.07283e-09
3.07284e-09
3.07279e-09
3.0728e-09
3.07279e-09
3.07279e-09
3.0728e-09
3.07279e-09
3.07284e-09
3.07283e-09
3.07293e-09
3.07293e-09
3.07308e-09
3.07312e-09
3.07339e-09
3.07352e-09
3.07397e-09
3.0743e-09
3.07506e-09
3.07579e-09
3.0771e-09
3.07863e-09
3.08096e-09
3.0838e-09
3.08785e-09
3.0916e-09
3.09836e-09
3.10195e-09
3.10828e-09
3.105e-09
3.00676e-09
3.00926e-09
3.00247e-09
2.99853e-09
2.99166e-09
2.9878e-09
2.98376e-09
2.98093e-09
2.97862e-09
2.9771e-09
2.97582e-09
2.97509e-09
2.97435e-09
2.97401e-09
2.97358e-09
2.97344e-09
2.97318e-09
2.97315e-09
2.97299e-09
2.97299e-09
2.9729e-09
2.97291e-09
2.97286e-09
2.97287e-09
2.97286e-09
2.97286e-09
2.97287e-09
2.97286e-09
2.97291e-09
2.9729e-09
2.97299e-09
2.97299e-09
2.97315e-09
2.97319e-09
2.97344e-09
2.97358e-09
2.97402e-09
2.97435e-09
2.97509e-09
2.97582e-09
2.9771e-09
2.97862e-09
2.98093e-09
2.98376e-09
2.9878e-09
2.99166e-09
2.99852e-09
3.00246e-09
3.00926e-09
3.00675e-09
2.91236e-09
2.91419e-09
2.9069e-09
2.90263e-09
2.89567e-09
2.8917e-09
2.88766e-09
2.88481e-09
2.88254e-09
2.88102e-09
2.87976e-09
2.87904e-09
2.87831e-09
2.87797e-09
2.87755e-09
2.87741e-09
2.87716e-09
2.87712e-09
2.87697e-09
2.87696e-09
2.87688e-09
2.87688e-09
2.87684e-09
2.87685e-09
2.87683e-09
2.87683e-09
2.87685e-09
2.87684e-09
2.87688e-09
2.87688e-09
2.87696e-09
2.87697e-09
2.87712e-09
2.87716e-09
2.87741e-09
2.87755e-09
2.87798e-09
2.87831e-09
2.87904e-09
2.87977e-09
2.88102e-09
2.88254e-09
2.88481e-09
2.88765e-09
2.8917e-09
2.89566e-09
2.90262e-09
2.9069e-09
2.91419e-09
2.91235e-09
2.81897e-09
2.82016e-09
2.81239e-09
2.80779e-09
2.80076e-09
2.79668e-09
2.79263e-09
2.78979e-09
2.78755e-09
2.78603e-09
2.78479e-09
2.78407e-09
2.78336e-09
2.78303e-09
2.7826e-09
2.78247e-09
2.78222e-09
2.78218e-09
2.78203e-09
2.78203e-09
2.78194e-09
2.78195e-09
2.7819e-09
2.78191e-09
2.7819e-09
2.7819e-09
2.78191e-09
2.7819e-09
2.78195e-09
2.78194e-09
2.78203e-09
2.78203e-09
2.78218e-09
2.78222e-09
2.78247e-09
2.78261e-09
2.78303e-09
2.78336e-09
2.78408e-09
2.7848e-09
2.78603e-09
2.78755e-09
2.78979e-09
2.79263e-09
2.79668e-09
2.80075e-09
2.80778e-09
2.81238e-09
2.82015e-09
2.81896e-09
2.72659e-09
2.72716e-09
2.71893e-09
2.71401e-09
2.70693e-09
2.70274e-09
2.69872e-09
2.69586e-09
2.69365e-09
2.69214e-09
2.69093e-09
2.69021e-09
2.68951e-09
2.68918e-09
2.68876e-09
2.68863e-09
2.68838e-09
2.68834e-09
2.6882e-09
2.68819e-09
2.68811e-09
2.68812e-09
2.68807e-09
2.68808e-09
2.68806e-09
2.68806e-09
2.68808e-09
2.68807e-09
2.68812e-09
2.68811e-09
2.68819e-09
2.6882e-09
2.68834e-09
2.68838e-09
2.68863e-09
2.68876e-09
2.68918e-09
2.68951e-09
2.69022e-09
2.69093e-09
2.69214e-09
2.69365e-09
2.69585e-09
2.69872e-09
2.70274e-09
2.70693e-09
2.71401e-09
2.71892e-09
2.72715e-09
2.72658e-09
2.63344e-09
2.63333e-09
2.62448e-09
2.61912e-09
2.6119e-09
2.60752e-09
2.60346e-09
2.60054e-09
2.59834e-09
2.59682e-09
2.59562e-09
2.5949e-09
2.5942e-09
2.59387e-09
2.59346e-09
2.59332e-09
2.59308e-09
2.59304e-09
2.59289e-09
2.59289e-09
2.5928e-09
2.59281e-09
2.59276e-09
2.59277e-09
2.59276e-09
2.59276e-09
2.59277e-09
2.59276e-09
2.59281e-09
2.5928e-09
2.59289e-09
2.59289e-09
2.59304e-09
2.59308e-09
2.59333e-09
2.59346e-09
2.59388e-09
2.5942e-09
2.59491e-09
2.59562e-09
2.59682e-09
2.59834e-09
2.60054e-09
2.60346e-09
2.60752e-09
2.61189e-09
2.61911e-09
2.62447e-09
2.63332e-09
2.63343e-09
2.54021e-09
2.53942e-09
2.53019e-09
2.52451e-09
2.5173e-09
2.51283e-09
2.5088e-09
2.50588e-09
2.50372e-09
2.50221e-09
2.50104e-09
2.50033e-09
2.49964e-09
2.49932e-09
2.49891e-09
2.49878e-09
2.49854e-09
2.49849e-09
2.49835e-09
2.49835e-09
2.49827e-09
2.49827e-09
2.49823e-09
2.49823e-09
2.49822e-09
2.49822e-09
2.49824e-09
2.49823e-09
2.49827e-09
2.49826e-09
2.49835e-09
2.49835e-09
2.4985e-09
2.49854e-09
2.49878e-09
2.49891e-09
2.49932e-09
2.49965e-09
2.50033e-09
2.50104e-09
2.50221e-09
2.50372e-09
2.50587e-09
2.5088e-09
2.51283e-09
2.51729e-09
2.5245e-09
2.53018e-09
2.53942e-09
2.5402e-09
2.45032e-09
2.44894e-09
2.43929e-09
2.43331e-09
2.42608e-09
2.42153e-09
2.41752e-09
2.41459e-09
2.41248e-09
2.41098e-09
2.40983e-09
2.40913e-09
2.40846e-09
2.40814e-09
2.40774e-09
2.40761e-09
2.40737e-09
2.40733e-09
2.40719e-09
2.40718e-09
2.4071e-09
2.40711e-09
2.40706e-09
2.40707e-09
2.40706e-09
2.40706e-09
2.40707e-09
2.40706e-09
2.40711e-09
2.4071e-09
2.40718e-09
2.40719e-09
2.40733e-09
2.40737e-09
2.40761e-09
2.40774e-09
2.40814e-09
2.40846e-09
2.40913e-09
2.40983e-09
2.41098e-09
2.41248e-09
2.41459e-09
2.41751e-09
2.42153e-09
2.42607e-09
2.4333e-09
2.43928e-09
2.44893e-09
2.45032e-09
2.36057e-09
2.35894e-09
2.34884e-09
2.34252e-09
2.33517e-09
2.33045e-09
2.32636e-09
2.32337e-09
2.32125e-09
2.31971e-09
2.31856e-09
2.31786e-09
2.31719e-09
2.31686e-09
2.31646e-09
2.31633e-09
2.31609e-09
2.31605e-09
2.31591e-09
2.31591e-09
2.31582e-09
2.31583e-09
2.31579e-09
2.31579e-09
2.31578e-09
2.31578e-09
2.31579e-09
2.31579e-09
2.31583e-09
2.31582e-09
2.31591e-09
2.31591e-09
2.31605e-09
2.31609e-09
2.31633e-09
2.31646e-09
2.31687e-09
2.31719e-09
2.31787e-09
2.31857e-09
2.31971e-09
2.32125e-09
2.32337e-09
2.32636e-09
2.33045e-09
2.33517e-09
2.34251e-09
2.34883e-09
2.35893e-09
2.36056e-09
2.27223e-09
2.27005e-09
2.25962e-09
2.25294e-09
2.24556e-09
2.24076e-09
2.23675e-09
2.23376e-09
2.23166e-09
2.23013e-09
2.22901e-09
2.22832e-09
2.22766e-09
2.22734e-09
2.22695e-09
2.22682e-09
2.22658e-09
2.22654e-09
2.2264e-09
2.2264e-09
2.22632e-09
2.22633e-09
2.22628e-09
2.22629e-09
2.22628e-09
2.22628e-09
2.22629e-09
2.22628e-09
2.22633e-09
2.22632e-09
2.2264e-09
2.2264e-09
2.22654e-09
2.22658e-09
2.22682e-09
2.22695e-09
2.22735e-09
2.22766e-09
2.22833e-09
2.22902e-09
2.23013e-09
2.23166e-09
2.23375e-09
2.23674e-09
2.24076e-09
2.24556e-09
2.25293e-09
2.25961e-09
2.27004e-09
2.27222e-09
2.18262e-09
2.17993e-09
2.16924e-09
2.162e-09
2.15454e-09
2.14963e-09
2.14565e-09
2.14265e-09
2.14055e-09
2.13903e-09
2.13793e-09
2.13724e-09
2.13659e-09
2.13628e-09
2.13588e-09
2.13576e-09
2.13552e-09
2.13548e-09
2.13535e-09
2.13534e-09
2.13526e-09
2.13527e-09
2.13523e-09
2.13523e-09
2.13522e-09
2.13522e-09
2.13523e-09
2.13523e-09
2.13527e-09
2.13526e-09
2.13534e-09
2.13535e-09
2.13548e-09
2.13552e-09
2.13576e-09
2.13589e-09
2.13628e-09
2.13659e-09
2.13724e-09
2.13793e-09
2.13903e-09
2.14055e-09
2.14265e-09
2.14564e-09
2.14962e-09
2.15453e-09
2.16199e-09
2.16923e-09
2.17992e-09
2.18261e-09
2.09335e-09
2.09007e-09
2.0794e-09
2.07394e-09
2.06644e-09
2.0615e-09
2.05758e-09
2.0546e-09
2.05253e-09
2.05102e-09
2.04995e-09
2.04928e-09
2.04864e-09
2.04833e-09
2.04795e-09
2.04782e-09
2.0476e-09
2.04756e-09
2.04742e-09
2.04742e-09
2.04734e-09
2.04735e-09
2.0473e-09
2.04731e-09
2.0473e-09
2.0473e-09
2.04731e-09
2.0473e-09
2.04735e-09
2.04734e-09
2.04742e-09
2.04742e-09
2.04756e-09
2.0476e-09
2.04783e-09
2.04795e-09
2.04834e-09
2.04864e-09
2.04928e-09
2.04995e-09
2.05102e-09
2.05253e-09
2.0546e-09
2.05757e-09
2.0615e-09
2.06644e-09
2.07393e-09
2.07939e-09
2.09006e-09
2.09334e-09
2.0072e-09
2.0034e-09
1.99257e-09
1.98673e-09
1.97918e-09
1.97423e-09
1.97035e-09
1.96742e-09
1.96537e-09
1.96389e-09
1.96284e-09
1.96217e-09
1.96152e-09
1.96122e-09
1.96083e-09
1.9607e-09
1.96047e-09
1.96043e-09
1.96029e-09
1.96029e-09
1.96021e-09
1.96022e-09
1.96017e-09
1.96018e-09
1.96017e-09
1.96017e-09
1.96018e-09
1.96017e-09
1.96022e-09
1.96021e-09
1.96029e-09
1.96029e-09
1.96043e-09
1.96047e-09
1.9607e-09
1.96083e-09
1.96122e-09
1.96153e-09
1.96217e-09
1.96284e-09
1.96389e-09
1.96538e-09
1.96742e-09
1.97034e-09
1.97423e-09
1.97917e-09
1.98672e-09
1.99256e-09
2.00339e-09
2.00719e-09
1.92043e-09
1.9157e-09
1.90455e-09
1.89845e-09
1.89079e-09
1.88584e-09
1.88198e-09
1.87908e-09
1.87705e-09
1.87558e-09
1.87455e-09
1.87389e-09
1.87326e-09
1.87295e-09
1.87257e-09
1.87245e-09
1.87222e-09
1.87218e-09
1.87204e-09
1.87204e-09
1.87196e-09
1.87197e-09
1.87193e-09
1.87193e-09
1.87192e-09
1.87192e-09
1.87194e-09
1.87193e-09
1.87197e-09
1.87196e-09
1.87204e-09
1.87204e-09
1.87218e-09
1.87222e-09
1.87245e-09
1.87257e-09
1.87295e-09
1.87326e-09
1.87389e-09
1.87455e-09
1.87558e-09
1.87705e-09
1.87908e-09
1.88197e-09
1.88583e-09
1.89079e-09
1.89844e-09
1.90454e-09
1.91569e-09
1.92042e-09
1.83359e-09
1.83058e-09
1.81913e-09
1.81291e-09
1.80525e-09
1.8003e-09
1.7965e-09
1.79365e-09
1.79165e-09
1.79023e-09
1.78921e-09
1.78857e-09
1.78795e-09
1.78766e-09
1.78728e-09
1.78716e-09
1.78694e-09
1.7869e-09
1.78677e-09
1.78677e-09
1.78669e-09
1.7867e-09
1.78666e-09
1.78666e-09
1.78665e-09
1.78665e-09
1.78666e-09
1.78666e-09
1.7867e-09
1.78669e-09
1.78677e-09
1.78677e-09
1.7869e-09
1.78694e-09
1.78717e-09
1.78729e-09
1.78766e-09
1.78796e-09
1.78857e-09
1.78921e-09
1.79022e-09
1.79165e-09
1.79365e-09
1.7965e-09
1.80029e-09
1.80524e-09
1.8129e-09
1.81912e-09
1.83056e-09
1.83358e-09
1.74988e-09
1.7464e-09
1.73463e-09
1.72832e-09
1.72071e-09
1.71576e-09
1.71205e-09
1.70924e-09
1.70724e-09
1.7058e-09
1.70477e-09
1.70411e-09
1.7035e-09
1.7032e-09
1.70282e-09
1.7027e-09
1.70247e-09
1.70244e-09
1.7023e-09
1.7023e-09
1.70222e-09
1.70223e-09
1.70219e-09
1.7022e-09
1.70218e-09
1.70218e-09
1.7022e-09
1.70219e-09
1.70223e-09
1.70222e-09
1.7023e-09
1.7023e-09
1.70244e-09
1.70247e-09
1.7027e-09
1.70282e-09
1.7032e-09
1.7035e-09
1.70412e-09
1.70477e-09
1.7058e-09
1.70724e-09
1.70923e-09
1.71204e-09
1.71575e-09
1.72071e-09
1.72831e-09
1.73462e-09
1.74638e-09
1.74987e-09
1.66577e-09
1.66172e-09
1.64943e-09
1.64297e-09
1.63539e-09
1.63036e-09
1.62673e-09
1.62393e-09
1.62197e-09
1.62056e-09
1.61954e-09
1.6189e-09
1.6183e-09
1.618e-09
1.61764e-09
1.61752e-09
1.6173e-09
1.61726e-09
1.61713e-09
1.61712e-09
1.61705e-09
1.61706e-09
1.61702e-09
1.61702e-09
1.61701e-09
1.61701e-09
1.61702e-09
1.61702e-09
1.61706e-09
1.61705e-09
1.61712e-09
1.61713e-09
1.61726e-09
1.6173e-09
1.61752e-09
1.61764e-09
1.61801e-09
1.6183e-09
1.6189e-09
1.61954e-09
1.62055e-09
1.62197e-09
1.62393e-09
1.62673e-09
1.63036e-09
1.63539e-09
1.64296e-09
1.64942e-09
1.66171e-09
1.66576e-09
1.58185e-09
1.57738e-09
1.56695e-09
1.56048e-09
1.55303e-09
1.54801e-09
1.5445e-09
1.54174e-09
1.53984e-09
1.53846e-09
1.53747e-09
1.53685e-09
1.53626e-09
1.53598e-09
1.53562e-09
1.53551e-09
1.53529e-09
1.53526e-09
1.53513e-09
1.53513e-09
1.53505e-09
1.53506e-09
1.53502e-09
1.53503e-09
1.53501e-09
1.53501e-09
1.53503e-09
1.53502e-09
1.53506e-09
1.53505e-09
1.53513e-09
1.53513e-09
1.53526e-09
1.53529e-09
1.53551e-09
1.53562e-09
1.53598e-09
1.53627e-09
1.53685e-09
1.53747e-09
1.53846e-09
1.53983e-09
1.54174e-09
1.54449e-09
1.54801e-09
1.55302e-09
1.56047e-09
1.56694e-09
1.57736e-09
1.58183e-09
1.50121e-09
1.49634e-09
1.48523e-09
1.47846e-09
1.47085e-09
1.46574e-09
1.46225e-09
1.45948e-09
1.4576e-09
1.45623e-09
1.45525e-09
1.45463e-09
1.45406e-09
1.45378e-09
1.45343e-09
1.45331e-09
1.4531e-09
1.45307e-09
1.45294e-09
1.45294e-09
1.45286e-09
1.45287e-09
1.45283e-09
1.45284e-09
1.45283e-09
1.45283e-09
1.45284e-09
1.45283e-09
1.45287e-09
1.45286e-09
1.45294e-09
1.45294e-09
1.45307e-09
1.4531e-09
1.45332e-09
1.45343e-09
1.45378e-09
1.45406e-09
1.45464e-09
1.45525e-09
1.45623e-09
1.4576e-09
1.45948e-09
1.46225e-09
1.46574e-09
1.47084e-09
1.47845e-09
1.48522e-09
1.49633e-09
1.5012e-09
1.42006e-09
1.41659e-09
1.40526e-09
1.39854e-09
1.39104e-09
1.38598e-09
1.38263e-09
1.37993e-09
1.37811e-09
1.37677e-09
1.37583e-09
1.37523e-09
1.37468e-09
1.37441e-09
1.37407e-09
1.37396e-09
1.37375e-09
1.37372e-09
1.3736e-09
1.3736e-09
1.37352e-09
1.37353e-09
1.37349e-09
1.3735e-09
1.37349e-09
1.37349e-09
1.3735e-09
1.37349e-09
1.37353e-09
1.37352e-09
1.3736e-09
1.3736e-09
1.37372e-09
1.37375e-09
1.37396e-09
1.37407e-09
1.37441e-09
1.37468e-09
1.37524e-09
1.37583e-09
1.37677e-09
1.37811e-09
1.37992e-09
1.38263e-09
1.38598e-09
1.39103e-09
1.39854e-09
1.40525e-09
1.41658e-09
1.42005e-09
1.34202e-09
1.33828e-09
1.32674e-09
1.32017e-09
1.31261e-09
1.30743e-09
1.30412e-09
1.30139e-09
1.29961e-09
1.29826e-09
1.29733e-09
1.29674e-09
1.29619e-09
1.29592e-09
1.29559e-09
1.29548e-09
1.29527e-09
1.29524e-09
1.29512e-09
1.29512e-09
1.29505e-09
1.29506e-09
1.29502e-09
1.29502e-09
1.29501e-09
1.29501e-09
1.29502e-09
1.29502e-09
1.29505e-09
1.29505e-09
1.29512e-09
1.29512e-09
1.29524e-09
1.29527e-09
1.29548e-09
1.29559e-09
1.29593e-09
1.29619e-09
1.29674e-09
1.29733e-09
1.29825e-09
1.29961e-09
1.30139e-09
1.30412e-09
1.30743e-09
1.3126e-09
1.32016e-09
1.32673e-09
1.33827e-09
1.34201e-09
1.26406e-09
1.26e-09
1.24986e-09
1.24347e-09
1.23594e-09
1.23085e-09
1.22769e-09
1.22503e-09
1.22333e-09
1.22201e-09
1.22113e-09
1.22055e-09
1.22003e-09
1.21977e-09
1.21945e-09
1.21935e-09
1.21915e-09
1.21912e-09
1.219e-09
1.219e-09
1.21893e-09
1.21894e-09
1.2189e-09
1.21891e-09
1.2189e-09
1.2189e-09
1.21891e-09
1.2189e-09
1.21894e-09
1.21893e-09
1.219e-09
1.219e-09
1.21912e-09
1.21915e-09
1.21935e-09
1.21945e-09
1.21978e-09
1.22003e-09
1.22055e-09
1.22113e-09
1.22201e-09
1.22333e-09
1.22502e-09
1.22769e-09
1.23084e-09
1.23593e-09
1.24346e-09
1.24985e-09
1.25999e-09
1.26405e-09
1.18917e-09
1.18497e-09
1.17447e-09
1.168e-09
1.16024e-09
1.15511e-09
1.15204e-09
1.14938e-09
1.14774e-09
1.14643e-09
1.14557e-09
1.145e-09
1.1445e-09
1.14425e-09
1.14393e-09
1.14383e-09
1.14363e-09
1.14361e-09
1.14349e-09
1.14349e-09
1.14342e-09
1.14343e-09
1.14339e-09
1.1434e-09
1.14339e-09
1.14339e-09
1.1434e-09
1.14339e-09
1.14343e-09
1.14342e-09
1.14349e-09
1.14349e-09
1.14361e-09
1.14363e-09
1.14383e-09
1.14393e-09
1.14425e-09
1.1445e-09
1.14501e-09
1.14557e-09
1.14643e-09
1.14774e-09
1.14938e-09
1.15204e-09
1.1551e-09
1.16023e-09
1.16799e-09
1.17446e-09
1.18496e-09
1.18916e-09
1.11445e-09
1.11005e-09
1.09943e-09
1.09319e-09
1.08728e-09
1.08225e-09
1.07935e-09
1.07676e-09
1.07521e-09
1.07394e-09
1.07312e-09
1.07257e-09
1.07209e-09
1.07185e-09
1.07154e-09
1.07145e-09
1.07126e-09
1.07124e-09
1.07113e-09
1.07113e-09
1.07106e-09
1.07107e-09
1.07104e-09
1.07104e-09
1.07103e-09
1.07103e-09
1.07104e-09
1.07104e-09
1.07107e-09
1.07106e-09
1.07113e-09
1.07113e-09
1.07124e-09
1.07126e-09
1.07145e-09
1.07155e-09
1.07185e-09
1.07209e-09
1.07257e-09
1.07311e-09
1.07394e-09
1.07521e-09
1.07676e-09
1.07934e-09
1.08225e-09
1.08727e-09
1.09318e-09
1.09942e-09
1.11004e-09
1.11444e-09
1.04329e-09
1.03885e-09
1.02819e-09
1.02218e-09
1.0164e-09
1.01149e-09
1.00874e-09
1.00624e-09
1.00477e-09
1.00355e-09
1.00276e-09
1.00224e-09
1.00178e-09
1.00156e-09
1.00127e-09
1.00118e-09
1.001e-09
1.00097e-09
1.00087e-09
1.00087e-09
1.00081e-09
1.00081e-09
1.00078e-09
1.00079e-09
1.00078e-09
1.00078e-09
1.00079e-09
1.00078e-09
1.00081e-09
1.0008e-09
1.00087e-09
1.00087e-09
1.00097e-09
1.001e-09
1.00118e-09
1.00127e-09
1.00156e-09
1.00179e-09
1.00225e-09
1.00276e-09
1.00355e-09
1.00477e-09
1.00624e-09
1.00874e-09
1.01148e-09
1.01639e-09
1.02217e-09
1.02818e-09
1.03884e-09
1.04328e-09
9.73204e-10
9.68693e-10
9.5911e-10
9.53338e-10
9.47742e-10
9.42959e-10
9.40378e-10
9.37967e-10
9.36581e-10
9.35413e-10
9.34664e-10
9.34169e-10
9.33734e-10
9.33518e-10
9.33241e-10
9.3316e-10
9.32988e-10
9.32966e-10
9.32863e-10
9.32865e-10
9.32805e-10
9.32815e-10
9.32783e-10
9.32789e-10
9.32779e-10
9.32779e-10
9.32789e-10
9.32782e-10
9.32814e-10
9.32805e-10
9.32865e-10
9.32863e-10
9.32966e-10
9.32989e-10
9.33161e-10
9.33243e-10
9.33521e-10
9.33736e-10
9.34171e-10
9.34662e-10
9.35413e-10
9.3658e-10
9.37965e-10
9.40374e-10
9.42955e-10
9.47736e-10
9.53331e-10
9.591e-10
9.68684e-10
9.73195e-10
9.06338e-10
9.01831e-10
8.92386e-10
8.86815e-10
8.81443e-10
8.76809e-10
8.74383e-10
8.71975e-10
8.70607e-10
8.6944e-10
8.687e-10
8.68209e-10
8.67777e-10
8.67565e-10
8.67291e-10
8.67212e-10
8.67041e-10
8.6702e-10
8.66917e-10
8.6692e-10
8.6686e-10
8.6687e-10
8.66838e-10
8.66845e-10
8.66835e-10
8.66835e-10
8.66845e-10
8.66838e-10
8.66869e-10
8.6686e-10
8.6692e-10
8.66917e-10
8.6702e-10
8.67041e-10
8.67213e-10
8.67293e-10
8.67568e-10
8.67779e-10
8.68211e-10
8.68697e-10
8.69441e-10
8.70606e-10
8.71974e-10
8.74379e-10
8.76805e-10
8.81437e-10
8.86808e-10
8.92377e-10
9.01822e-10
9.06329e-10
8.41838e-10
8.37337e-10
8.28141e-10
8.22744e-10
8.17622e-10
8.13163e-10
8.10876e-10
8.08582e-10
8.07291e-10
8.06178e-10
8.05478e-10
8.05012e-10
8.04601e-10
8.04403e-10
8.04143e-10
8.04069e-10
8.03907e-10
8.03888e-10
8.0379e-10
8.03794e-10
8.03737e-10
8.03746e-10
8.03716e-10
8.03722e-10
8.03713e-10
8.03713e-10
8.03722e-10
8.03715e-10
8.03745e-10
8.03736e-10
8.03793e-10
8.0379e-10
8.03888e-10
8.03907e-10
8.0407e-10
8.04145e-10
8.04406e-10
8.04603e-10
8.05014e-10
8.05475e-10
8.06181e-10
8.07289e-10
8.0858e-10
8.10873e-10
8.13159e-10
8.17617e-10
8.22737e-10
8.28132e-10
8.37328e-10
8.41829e-10
7.79833e-10
7.75365e-10
7.66462e-10
7.61242e-10
7.56394e-10
7.52127e-10
7.49965e-10
7.47795e-10
7.46577e-10
7.45522e-10
7.4486e-10
7.44418e-10
7.44029e-10
7.43845e-10
7.43598e-10
7.4353e-10
7.43376e-10
7.4336e-10
7.43267e-10
7.43271e-10
7.43217e-10
7.43226e-10
7.43197e-10
7.43204e-10
7.43194e-10
7.43194e-10
7.43204e-10
7.43197e-10
7.43226e-10
7.43216e-10
7.4327e-10
7.43266e-10
7.4336e-10
7.43377e-10
7.43531e-10
7.436e-10
7.43848e-10
7.44032e-10
7.44421e-10
7.44855e-10
7.45526e-10
7.46576e-10
7.47794e-10
7.49962e-10
7.52123e-10
7.56389e-10
7.61235e-10
7.66453e-10
7.75357e-10
7.79825e-10
7.20432e-10
7.16038e-10
7.07435e-10
7.02408e-10
6.97845e-10
6.93795e-10
6.91747e-10
6.89701e-10
6.88556e-10
6.87558e-10
6.86936e-10
6.86519e-10
6.86152e-10
6.85981e-10
6.85748e-10
6.85685e-10
6.85539e-10
6.85525e-10
6.85437e-10
6.85442e-10
6.8539e-10
6.854e-10
6.85372e-10
6.85379e-10
6.8537e-10
6.8537e-10
6.85379e-10
6.85372e-10
6.85399e-10
6.8539e-10
6.85441e-10
6.85437e-10
6.85525e-10
6.8554e-10
6.85686e-10
6.85749e-10
6.85983e-10
6.86154e-10
6.86521e-10
6.86932e-10
6.8756e-10
6.88555e-10
6.897e-10
6.91744e-10
6.93791e-10
6.9784e-10
7.02401e-10
7.07427e-10
7.16031e-10
7.20424e-10
6.63633e-10
6.59171e-10
6.51142e-10
6.46332e-10
6.42043e-10
6.38232e-10
6.36293e-10
6.3437e-10
6.33296e-10
6.32359e-10
6.31776e-10
6.31382e-10
6.31038e-10
6.3088e-10
6.3066e-10
6.30603e-10
6.30466e-10
6.30453e-10
6.3037e-10
6.30376e-10
6.30327e-10
6.30336e-10
6.3031e-10
6.30317e-10
6.30308e-10
6.30308e-10
6.30317e-10
6.3031e-10
6.30336e-10
6.30326e-10
6.30375e-10
6.3037e-10
6.30453e-10
6.30466e-10
6.30604e-10
6.30662e-10
6.30882e-10
6.3104e-10
6.31383e-10
6.31773e-10
6.32361e-10
6.33296e-10
6.34369e-10
6.3629e-10
6.38228e-10
6.42039e-10
6.46325e-10
6.51134e-10
6.59164e-10
6.63624e-10
6.09677e-10
6.05351e-10
5.97643e-10
5.93068e-10
5.89057e-10
5.85479e-10
5.83653e-10
5.8185e-10
5.80854e-10
5.79974e-10
5.79429e-10
5.79057e-10
5.78738e-10
5.78591e-10
5.78386e-10
5.78334e-10
5.78205e-10
5.78194e-10
5.78116e-10
5.78122e-10
5.78076e-10
5.78085e-10
5.78061e-10
5.78067e-10
5.78059e-10
5.78059e-10
5.78067e-10
5.7806e-10
5.78085e-10
5.78075e-10
5.78121e-10
5.78116e-10
5.78194e-10
5.78205e-10
5.78335e-10
5.78387e-10
5.78593e-10
5.78739e-10
5.79059e-10
5.79426e-10
5.79975e-10
5.80854e-10
5.81848e-10
5.8365e-10
5.85476e-10
5.89052e-10
5.93061e-10
5.97634e-10
6.05344e-10
6.09669e-10
5.58529e-10
5.5436e-10
5.46975e-10
5.42652e-10
5.38916e-10
5.35571e-10
5.33858e-10
5.32174e-10
5.31254e-10
5.30432e-10
5.29925e-10
)
;

boundaryField
{
    fuel
    {
        type            fixedValue;
        value           nonuniform 0();
    }
    wall
    {
        type            zeroGradient;
    }
    outlet
    {
        type            zeroGradient;
    }
    frontAndBack
    {
        type            empty;
    }
    procBoundary2to0
    {
        type            processor;
        value           nonuniform List<scalar> 
53
(
4.14092e-09
4.15189e-09
4.15207e-09
4.15231e-09
4.14792e-09
4.14573e-09
4.14189e-09
4.13942e-09
4.13697e-09
4.13554e-09
4.13413e-09
4.13341e-09
4.13259e-09
4.13227e-09
4.13179e-09
4.13167e-09
4.13139e-09
4.13136e-09
4.0177e-09
4.0177e-09
4.0177e-09
4.0176e-09
4.01762e-09
4.01756e-09
4.01757e-09
4.01756e-09
4.01756e-09
4.01757e-09
4.01756e-09
3.90615e-09
3.90615e-09
3.90613e-09
3.90623e-09
3.90623e-09
3.90639e-09
3.90642e-09
3.9067e-09
3.90682e-09
3.90729e-09
3.90761e-09
3.90841e-09
3.90912e-09
3.80093e-09
3.80093e-09
3.80237e-09
3.80473e-09
3.80727e-09
3.8111e-09
3.81388e-09
3.81888e-09
3.81986e-09
3.82191e-09
3.81357e-09
)
;
    }
    procBoundary2to3
    {
        type            processor;
        value           nonuniform List<scalar> 
51
(
5.29575e-10
5.29278e-10
5.29144e-10
5.28952e-10
5.28905e-10
5.28784e-10
5.28776e-10
5.28702e-10
5.28708e-10
5.28665e-10
5.28674e-10
5.28652e-10
5.28657e-10
5.2865e-10
5.2865e-10
5.28657e-10
5.28651e-10
5.28674e-10
5.28665e-10
5.28708e-10
5.28702e-10
5.28776e-10
5.28785e-10
5.28906e-10
5.28953e-10
5.29146e-10
5.2928e-10
5.29576e-10
5.29922e-10
5.30433e-10
5.31254e-10
5.32172e-10
5.33855e-10
5.35567e-10
5.38911e-10
5.42646e-10
5.46966e-10
5.54354e-10
5.58521e-10
5.10214e-10
5.06224e-10
4.99154e-10
4.95098e-10
4.91634e-10
4.88517e-10
4.86918e-10
4.85352e-10
4.84506e-10
4.8374e-10
5.29575e-10
4.83272e-10
)
;
    }
}


// ************************************************************************* //
