/*--------------------------------*- C++ -*----------------------------------*\
| =========                 |                                                 |
| \\      /  F ield         | OpenFOAM: The Open Source CFD Toolbox           |
|  \\    /   O peration     | Version:  dev                                   |
|   \\  /    A nd           | Web:      www.OpenFOAM.org                      |
|    \\/     M anipulation  |                                                 |
\*---------------------------------------------------------------------------*/
FoamFile
{
    version     2.0;
    format      ascii;
    class       volScalarField;
    location    "0.09";
    object      A3-4;
}
// * * * * * * * * * * * * * * * * * * * * * * * * * * * * * * * * * * * * * //

dimensions      [0 0 0 0 0 0 0];

internalField   nonuniform List<scalar> 
25
(
2.29429e-16
2.70993e-16
3.15418e-16
3.63052e-16
4.13322e-16
4.65387e-16
5.18462e-16
5.71658e-16
6.24051e-16
6.74707e-16
7.22709e-16
7.67238e-16
8.07426e-16
8.42611e-16
8.7219e-16
8.95675e-16
9.12695e-16
9.22994e-16
9.26426e-16
9.22951e-16
9.12618e-16
8.95602e-16
8.72155e-16
8.42617e-16
8.07405e-16
)
;

boundaryField
{
    wall
    {
        type            zeroGradient;
    }
    fuel
    {
        type            fixedValue;
        value           nonuniform 0();
    }
    outlet
    {
        type            inletOutlet;
        inletValue      nonuniform 0();
        value           nonuniform 0();
    }
    procBoundary2to1
    {
        type            processor;
        value           uniform 1.92657e-16;
    }
    procBoundary2to3
    {
        type            processor;
        value           uniform 7.67017e-16;
    }
}


// ************************************************************************* //
