/*--------------------------------*- C++ -*----------------------------------*\
| =========                 |                                                 |
| \\      /  F ield         | OpenFOAM: The Open Source CFD Toolbox           |
|  \\    /   O peration     | Version:  dev                                   |
|   \\  /    A nd           | Web:      www.OpenFOAM.org                      |
|    \\/     M anipulation  |                                                 |
\*---------------------------------------------------------------------------*/
FoamFile
{
    version     2.0;
    format      ascii;
    class       volScalarField;
    location    "0.09";
    object      C6H5OH;
}
// * * * * * * * * * * * * * * * * * * * * * * * * * * * * * * * * * * * * * //

dimensions      [0 0 0 0 0 0 0];

internalField   nonuniform List<scalar> 
250
(
3.82315e-07
1.19169e-05
9.73412e-06
9.44504e-06
9.40371e-06
9.39726e-06
9.3942e-06
9.39627e-06
9.3969e-06
7.85963e-07
5.54684e-06
4.39822e-06
4.24874e-06
4.22653e-06
4.22303e-06
4.22175e-06
4.22206e-06
4.22254e-06
1.07731e-06
2.7125e-06
1.99903e-06
1.91219e-06
1.8991e-06
1.89683e-06
1.89603e-06
1.89607e-06
1.89663e-06
1.333e-06
1.50313e-06
9.78414e-07
9.21553e-07
9.13551e-07
9.11044e-07
9.10533e-07
9.10519e-07
9.11223e-07
1.64624e-06
9.56326e-07
5.27841e-07
4.879e-07
4.83308e-07
4.79159e-07
4.78825e-07
4.78801e-07
4.79506e-07
2.22467e-06
6.85124e-07
3.15738e-07
2.81471e-07
2.75817e-07
2.77689e-07
2.77472e-07
2.77437e-07
2.77342e-07
3.59473e-06
5.35383e-07
2.08853e-07
1.80559e-07
1.76043e-07
1.7665e-07
1.76479e-07
1.76442e-07
1.7626e-07
6.5615e-06
4.42951e-07
1.46862e-07
1.26465e-07
1.22137e-07
1.22054e-07
1.21882e-07
1.21857e-07
1.21773e-07
9.77801e-06
3.78525e-07
1.13185e-07
9.30593e-08
9.01357e-08
9.00098e-08
8.99797e-08
9.00308e-08
9.00059e-08
1.03884e-05
3.27379e-07
9.01749e-08
7.16808e-08
7.08543e-08
7.04239e-08
7.04425e-08
7.05867e-08
7.05993e-08
9.70121e-06
2.85572e-07
7.45742e-08
5.93641e-08
5.77928e-08
5.74182e-08
5.73169e-08
5.73606e-08
5.74132e-08
5.73726e-08
8.58712e-06
2.49139e-07
6.35721e-08
4.99095e-08
4.82063e-08
4.78168e-08
4.76927e-08
4.77709e-08
4.78409e-08
4.78112e-08
7.36376e-06
2.17186e-07
5.64919e-08
4.31346e-08
4.1372e-08
4.08704e-08
4.06851e-08
4.09564e-08
4.10443e-08
4.10257e-08
6.1479e-06
1.91478e-07
5.06068e-08
3.80711e-08
3.63018e-08
3.57083e-08
3.60902e-08
3.59051e-08
3.60142e-08
3.60025e-08
4.99512e-06
1.70268e-07
4.57496e-08
3.41505e-08
3.24096e-08
3.22002e-08
3.21108e-08
3.20092e-08
3.21528e-08
3.21421e-08
3.95342e-06
1.51753e-07
4.17863e-08
3.10256e-08
2.9313e-08
2.90533e-08
2.93434e-08
2.88941e-08
2.90954e-08
2.90787e-08
3.05353e-06
1.34154e-07
3.84629e-08
2.84752e-08
2.71027e-08
2.67745e-08
2.68469e-08
2.66555e-08
2.66138e-08
2.65784e-08
2.30794e-06
1.18567e-07
3.59822e-08
2.63414e-08
2.51227e-08
2.49067e-08
2.47957e-08
2.47192e-08
2.45582e-08
2.44909e-08
1.71422e-06
1.06278e-07
3.35726e-08
2.47501e-08
2.34175e-08
2.31505e-08
2.30854e-08
2.30292e-08
2.28288e-08
2.29435e-08
1.25821e-06
9.43119e-08
3.14131e-08
2.3318e-08
2.19895e-08
2.18504e-08
2.16479e-08
2.16097e-08
2.15435e-08
2.16465e-08
9.1848e-07
8.3682e-08
2.95105e-08
2.20528e-08
2.07941e-08
2.06397e-08
2.04354e-08
2.04278e-08
2.04369e-08
2.04726e-08
6.71138e-07
7.4205e-08
2.78398e-08
2.0988e-08
1.98025e-08
1.96387e-08
1.95447e-08
1.94511e-08
1.94538e-08
1.94881e-08
4.93887e-07
6.63992e-08
2.63838e-08
2.0213e-08
1.90979e-08
1.89259e-08
1.88368e-08
1.87575e-08
1.87544e-08
1.87887e-08
3.68212e-07
5.97943e-08
2.5124e-08
1.95515e-08
1.85039e-08
1.83278e-08
1.82409e-08
1.81763e-08
1.8169e-08
1.82024e-08
2.79841e-07
5.43026e-08
2.42002e-08
1.9103e-08
1.8124e-08
1.79458e-08
1.78605e-08
1.78083e-08
1.77975e-08
1.78308e-08
2.11136e-07
4.93235e-08
2.34205e-08
1.88201e-08
1.79078e-08
1.77303e-08
1.76465e-08
1.76049e-08
1.75909e-08
1.76245e-08
)
;

boundaryField
{
    fuel
    {
        type            fixedValue;
        value           uniform 0;
    }
    wall
    {
        type            zeroGradient;
    }
    outlet
    {
        type            zeroGradient;
    }
    frontAndBack
    {
        type            empty;
    }
    procBoundary2to0
    {
        type            processor;
        value           nonuniform List<scalar> 
12
(
1.79248e-08
1.65767e-07
4.49871e-08
2.287e-08
1.8704e-08
1.78561e-08
1.76819e-08
1.75994e-08
1.7567e-08
1.75497e-08
1.77181e-08
1.75847e-08
)
;
    }
    procBoundary2to3
    {
        type            processor;
        value           nonuniform List<scalar> 
25
(
9.39468e-06
4.22197e-06
1.89596e-06
9.10354e-07
4.78644e-07
2.7731e-07
1.76345e-07
1.21782e-07
8.99878e-08
7.05605e-08
7.05605e-08
5.70974e-08
4.81619e-08
4.13018e-08
3.60798e-08
3.20378e-08
2.92099e-08
2.66285e-08
2.47523e-08
2.2996e-08
2.16939e-08
2.04687e-08
1.95667e-08
1.88472e-08
1.83011e-08
)
;
    }
}


// ************************************************************************* //
