/*--------------------------------*- C++ -*----------------------------------*\
| =========                 |                                                 |
| \\      /  F ield         | OpenFOAM: The Open Source CFD Toolbox           |
|  \\    /   O peration     | Version:  dev                                   |
|   \\  /    A nd           | Web:      www.OpenFOAM.org                      |
|    \\/     M anipulation  |                                                 |
\*---------------------------------------------------------------------------*/
FoamFile
{
    version     2.0;
    format      ascii;
    class       volScalarField;
    location    "0.09";
    object      CH4;
}
// * * * * * * * * * * * * * * * * * * * * * * * * * * * * * * * * * * * * * //

dimensions      [0 0 0 0 0 0 0];

internalField   nonuniform List<scalar> 
250
(
7.05808e-05
0.00107762
0.00100554
0.000995365
0.000993509
0.00099389
0.000993334
0.000993501
0.000993807
0.000185157
0.000929188
0.000871786
0.000862538
0.00086121
0.000861075
0.000860936
0.000860941
0.000861014
0.000303404
0.000927127
0.000870389
0.000859474
0.000857937
0.000857609
0.000857559
0.000857592
0.000857565
0.000426869
0.000968681
0.000905615
0.000892026
0.000889959
0.000889603
0.000889581
0.000889634
0.000889549
0.000567257
0.00101438
0.000938739
0.000921976
0.000919211
0.000918992
0.000918973
0.000919035
0.000918925
0.000766968
0.00105716
0.000962546
0.000942884
0.000939731
0.000938776
0.000938744
0.000938817
0.000938802
0.00115362
0.0010986
0.000978169
0.000955036
0.000951179
0.000950248
0.000950198
0.000950288
0.000950296
0.00203107
0.00114145
0.000988822
0.000961404
0.000956893
0.000955919
0.000955853
0.000955967
0.000955976
0.00328075
0.00118461
0.000995003
0.000964181
0.00095892
0.000957831
0.000957747
0.000957893
0.000957911
0.00383753
0.0012221
0.000999009
0.000964353
0.00095854
0.000957307
0.000957222
0.000957415
0.000957453
0.00398106
0.00125108
0.0010011
0.000963041
0.000956536
0.000955175
0.000955054
0.00095527
0.000955339
0.000955333
0.00394157
0.00127245
0.0010017
0.000960403
0.000953214
0.000951719
0.000951549
0.000951809
0.000951914
0.000951918
0.00381262
0.00128581
0.00100123
0.000957018
0.000949184
0.0009475
0.000947257
0.000947636
0.000947783
0.000947801
0.00363405
0.00129073
0.000999809
0.0009532
0.000944788
0.000942915
0.000943214
0.000943084
0.00094328
0.00094331
0.00342655
0.00128905
0.000997571
0.000949201
0.000940301
0.000938827
0.000938551
0.000938405
0.000938669
0.000938705
0.00320604
0.00128218
0.000994784
0.000945233
0.00093592
0.000934308
0.000934598
0.000933814
0.000934171
0.000934202
0.00298337
0.00127004
0.000991638
0.000941479
0.000932364
0.000930581
0.00093049
0.000930069
0.00092998
0.000929986
0.00276573
0.00125414
0.000988746
0.000938085
0.000928952
0.000927324
0.000926864
0.000926613
0.000926267
0.000926228
0.00255812
0.0012377
0.000985487
0.000935561
0.000926042
0.000924293
0.000923873
0.000923633
0.000923188
0.000923491
0.00236388
0.00121783
0.000982305
0.000933522
0.000923899
0.000922316
0.00092167
0.000921438
0.000921183
0.000921484
0.00218514
0.001197
0.00097945
0.00093221
0.000922668
0.00092105
0.000920401
0.000920193
0.000920003
0.00092025
0.00202303
0.00117586
0.000977116
0.000931856
0.000922499
0.000920867
0.000920238
0.000920042
0.00091983
0.000920094
0.0018781
0.00115671
0.000975496
0.000932515
0.000923408
0.000921786
0.000921159
0.000920996
0.000920765
0.000921047
0.00175057
0.00113937
0.000974778
0.000934408
0.000925693
0.0009241
0.000923474
0.000923357
0.000923104
0.000923413
0.00164039
0.00112422
0.000975088
0.000937342
0.000929039
0.000927494
0.000926866
0.000926795
0.000926525
0.000926864
0.00153565
0.00111011
0.000976547
0.000941511
0.000933679
0.000932197
0.000931565
0.000931543
0.000931258
0.000931637
)
;

boundaryField
{
    fuel
    {
        type            fixedValue;
        value           uniform 0;
    }
    wall
    {
        type            zeroGradient;
    }
    outlet
    {
        type            zeroGradient;
    }
    frontAndBack
    {
        type            empty;
    }
    procBoundary2to0
    {
        type            processor;
        value           nonuniform List<scalar> 
12
(
0.000927777
0.00145363
0.00109779
0.000979102
0.000946949
0.00093964
0.000938228
0.000937588
0.00093762
0.000937322
0.000932682
0.000937753
)
;
    }
    procBoundary2to3
    {
        type            processor;
        value           nonuniform List<scalar> 
25
(
0.000993848
0.000861079
0.00085766
0.000889684
0.000919074
0.000938845
0.000950308
0.000955984
0.000957914
0.000957453
0.000957453
0.000954943
0.000951823
0.000947773
0.000943201
0.000938467
0.000934431
0.000930208
0.000926952
0.000923969
0.000922063
0.000920901
0.000920859
0.000921929
0.00092421
)
;
    }
}


// ************************************************************************* //
