/*--------------------------------*- C++ -*----------------------------------*\
| =========                 |                                                 |
| \\      /  F ield         | OpenFOAM: The Open Source CFD Toolbox           |
|  \\    /   O peration     | Version:  dev                                   |
|   \\  /    A nd           | Web:      www.OpenFOAM.org                      |
|    \\/     M anipulation  |                                                 |
\*---------------------------------------------------------------------------*/
FoamFile
{
    version     2.0;
    format      ascii;
    class       volScalarField;
    location    "0.09";
    object      H2C4O;
}
// * * * * * * * * * * * * * * * * * * * * * * * * * * * * * * * * * * * * * //

dimensions      [0 0 0 0 0 0 0];

internalField   nonuniform List<scalar> 
250
(
1.88141e-06
1.29325e-05
1.19424e-05
1.17985e-05
1.17808e-05
1.17797e-05
1.17792e-05
1.17791e-05
1.17797e-05
3.12004e-06
1.06166e-05
9.29486e-06
9.10831e-06
9.08446e-06
9.08155e-06
9.0801e-06
9.08037e-06
9.08087e-06
3.52977e-06
8.64816e-06
7.24631e-06
7.03739e-06
7.00795e-06
7.00384e-06
7.00158e-06
7.00178e-06
7.00257e-06
3.70137e-06
7.45118e-06
6.04298e-06
5.81518e-06
5.78005e-06
5.77518e-06
5.77244e-06
5.77187e-06
5.77317e-06
3.69918e-06
6.6676e-06
5.2984e-06
5.05923e-06
5.01881e-06
5.01381e-06
5.01174e-06
5.00878e-06
5.01102e-06
3.58441e-06
6.0888e-06
4.78459e-06
4.51865e-06
4.46149e-06
4.45548e-06
4.45552e-06
4.44658e-06
4.45092e-06
3.4189e-06
5.62017e-06
4.39411e-06
4.12212e-06
4.05695e-06
4.05313e-06
4.05473e-06
4.03993e-06
4.0479e-06
3.22967e-06
5.21777e-06
4.05754e-06
3.80141e-06
3.7268e-06
3.70932e-06
3.71178e-06
3.70705e-06
3.70204e-06
2.92486e-06
4.86097e-06
3.78312e-06
3.51235e-06
3.4475e-06
3.43095e-06
3.43301e-06
3.42169e-06
3.42349e-06
2.3724e-06
4.53813e-06
3.50798e-06
3.23843e-06
3.16882e-06
3.15261e-06
3.15372e-06
3.15433e-06
3.14544e-06
1.69419e-06
4.24286e-06
3.25206e-06
3.0255e-06
2.95235e-06
2.93622e-06
2.9365e-06
2.93256e-06
2.92966e-06
2.91004e-06
1.17714e-06
3.97116e-06
3.04614e-06
2.8211e-06
2.73683e-06
2.71894e-06
2.71852e-06
2.71263e-06
2.71323e-06
2.7133e-06
9.31779e-07
3.71985e-06
2.8585e-06
2.62558e-06
2.53885e-06
2.52059e-06
2.51956e-06
2.513e-06
2.51584e-06
2.51762e-06
9.0019e-07
3.44222e-06
2.68033e-06
2.44719e-06
2.359e-06
2.34044e-06
2.33899e-06
2.33208e-06
2.33648e-06
2.33816e-06
9.95553e-07
3.21985e-06
2.50156e-06
2.28385e-06
2.19519e-06
2.17644e-06
2.17472e-06
2.16759e-06
2.17305e-06
2.17499e-06
1.14702e-06
3.01528e-06
2.33681e-06
2.13395e-06
2.04571e-06
2.02689e-06
2.02504e-06
2.01776e-06
2.02388e-06
2.02592e-06
1.30764e-06
2.82607e-06
2.18489e-06
1.99612e-06
1.90913e-06
1.89036e-06
1.88849e-06
1.88113e-06
1.88757e-06
1.88915e-06
1.45107e-06
2.65019e-06
2.04481e-06
1.8692e-06
1.78421e-06
1.76562e-06
1.7638e-06
1.75645e-06
1.76295e-06
1.76359e-06
1.56556e-06
2.48799e-06
1.9157e-06
1.75214e-06
1.66987e-06
1.65159e-06
1.64987e-06
1.6426e-06
1.64899e-06
1.64851e-06
1.64805e-06
2.32553e-06
1.79677e-06
1.64397e-06
1.56512e-06
1.54727e-06
1.54569e-06
1.53859e-06
1.54475e-06
1.54321e-06
1.70011e-06
2.18237e-06
1.68734e-06
1.54376e-06
1.46904e-06
1.45173e-06
1.45032e-06
1.44347e-06
1.44931e-06
1.44692e-06
1.72507e-06
2.03543e-06
1.58677e-06
1.4505e-06
1.38068e-06
1.36401e-06
1.36279e-06
1.35629e-06
1.36171e-06
1.35874e-06
1.72759e-06
1.91035e-06
1.49456e-06
1.37479e-06
1.30873e-06
1.29285e-06
1.29176e-06
1.28556e-06
1.29065e-06
1.28731e-06
1.71163e-06
1.79729e-06
1.40953e-06
1.30571e-06
1.23953e-06
1.22417e-06
1.22325e-06
1.21691e-06
1.22199e-06
1.21818e-06
1.68095e-06
1.69378e-06
1.33966e-06
1.23636e-06
1.18021e-06
1.16581e-06
1.16502e-06
1.15898e-06
1.16374e-06
1.15984e-06
1.63898e-06
1.59881e-06
1.27095e-06
1.17912e-06
1.12656e-06
1.11328e-06
1.11259e-06
1.10686e-06
1.11132e-06
1.10743e-06
)
;

boundaryField
{
    fuel
    {
        type            fixedValue;
        value           uniform 0;
    }
    wall
    {
        type            zeroGradient;
    }
    outlet
    {
        type            zeroGradient;
    }
    frontAndBack
    {
        type            empty;
    }
    procBoundary2to0
    {
        type            processor;
        value           nonuniform List<scalar> 
12
(
1.15998e-06
1.58863e-06
1.512e-06
1.21211e-06
1.1271e-06
1.07825e-06
1.06598e-06
1.06538e-06
1.05997e-06
1.06414e-06
1.10783e-06
1.06034e-06
)
;
    }
    procBoundary2to3
    {
        type            processor;
        value           nonuniform List<scalar> 
25
(
1.17795e-05
9.08028e-06
7.0016e-06
5.77157e-06
5.00828e-06
4.44527e-06
4.03666e-06
3.69909e-06
3.41393e-06
3.1325e-06
3.1325e-06
2.93753e-06
2.71632e-06
2.51575e-06
2.33438e-06
2.16966e-06
2.01968e-06
1.88291e-06
1.75808e-06
1.64409e-06
1.53995e-06
1.44472e-06
1.35743e-06
1.28663e-06
1.21797e-06
)
;
    }
}


// ************************************************************************* //
