/*--------------------------------*- C++ -*----------------------------------*\
| =========                 |                                                 |
| \\      /  F ield         | OpenFOAM: The Open Source CFD Toolbox           |
|  \\    /   O peration     | Version:  dev                                   |
|   \\  /    A nd           | Web:      www.OpenFOAM.org                      |
|    \\/     M anipulation  |                                                 |
\*---------------------------------------------------------------------------*/
FoamFile
{
    version     2.0;
    format      ascii;
    class       volScalarField;
    location    "0.09";
    object      H2O2;
}
// * * * * * * * * * * * * * * * * * * * * * * * * * * * * * * * * * * * * * //

dimensions      [0 0 0 0 0 0 0];

internalField   nonuniform List<scalar> 
250
(
2.29723e-05
7.70586e-08
3.95399e-08
3.85259e-08
3.82207e-08
3.82236e-08
3.82552e-08
3.8223e-08
3.82615e-08
4.85711e-05
7.8465e-08
1.64939e-08
1.59948e-08
1.59122e-08
1.59102e-08
1.59171e-08
1.591e-08
1.59183e-08
6.13628e-05
8.90158e-08
6.74779e-09
6.43486e-09
6.40768e-09
6.40543e-09
6.40803e-09
6.40548e-09
6.40793e-09
6.49289e-05
1.04495e-07
2.9133e-09
2.65259e-09
2.64184e-09
2.64045e-09
2.64188e-09
2.64054e-09
2.64158e-09
6.20304e-05
1.05151e-07
1.39154e-09
1.16698e-09
1.1641e-09
1.16383e-09
1.16474e-09
1.16402e-09
1.16466e-09
5.53414e-05
8.86632e-08
7.48436e-10
5.54052e-10
5.47565e-10
5.47056e-10
5.4772e-10
5.46203e-10
5.4712e-10
4.68594e-05
6.97025e-08
4.53757e-10
3.04512e-10
3.01021e-10
3.02097e-10
3.02659e-10
3.00322e-10
3.0227e-10
3.7599e-05
5.5764e-08
3.03174e-10
1.94033e-10
1.91486e-10
1.89821e-10
1.90378e-10
1.90997e-10
1.89674e-10
2.79006e-05
4.23594e-08
2.22097e-10
1.39957e-10
1.40324e-10
1.39589e-10
1.40017e-10
1.39556e-10
1.39496e-10
1.84314e-05
2.92213e-08
1.65635e-10
1.11569e-10
1.1212e-10
1.11828e-10
1.12115e-10
1.12622e-10
1.11762e-10
1.01848e-05
1.73933e-08
1.25686e-10
9.80523e-11
9.87603e-11
9.8655e-11
9.88461e-11
9.89005e-11
9.86036e-11
9.8255e-11
4.23661e-06
8.39092e-09
9.98196e-11
8.96816e-11
9.02558e-11
9.01911e-11
9.0314e-11
9.02247e-11
9.01499e-11
9.03786e-11
1.22429e-06
3.24507e-09
8.35298e-11
8.40536e-11
8.47156e-11
8.46901e-11
8.47698e-11
8.4643e-11
8.46601e-11
8.47984e-11
2.64155e-07
9.9147e-10
7.42051e-11
8.00159e-11
8.06959e-11
8.06828e-11
8.07381e-11
8.0596e-11
8.06597e-11
8.07217e-11
5.37533e-08
3.3163e-10
6.89164e-11
7.67843e-11
7.74324e-11
7.74182e-11
7.74604e-11
7.73049e-11
7.73983e-11
7.74203e-11
1.32709e-08
1.36679e-10
6.56386e-11
7.3959e-11
7.4539e-11
7.4516e-11
7.45514e-11
7.43805e-11
7.44958e-11
7.44933e-11
4.44022e-09
7.72978e-11
6.31748e-11
7.13249e-11
7.18102e-11
7.17733e-11
7.18056e-11
7.16164e-11
7.17496e-11
7.17216e-11
1.89385e-09
5.59971e-11
6.10413e-11
6.87568e-11
6.9128e-11
6.90734e-11
6.91044e-11
6.88949e-11
6.9044e-11
6.89848e-11
9.27944e-10
4.65711e-11
5.90263e-11
6.61731e-11
6.64168e-11
6.63414e-11
6.63723e-11
6.61405e-11
6.63048e-11
6.62106e-11
4.89651e-10
4.13379e-11
5.70155e-11
6.3512e-11
6.36209e-11
6.35222e-11
6.35536e-11
6.32983e-11
6.34775e-11
6.33474e-11
2.70151e-10
3.86502e-11
5.49332e-11
6.07192e-11
6.06925e-11
6.05686e-11
6.06011e-11
6.03215e-11
6.05158e-11
6.03504e-11
1.54235e-10
3.70104e-11
5.27196e-11
5.77397e-11
5.75846e-11
5.74338e-11
5.74678e-11
5.71645e-11
5.73734e-11
5.71748e-11
9.14876e-11
3.60542e-11
5.03268e-11
5.49529e-11
5.4652e-11
5.44819e-11
5.45165e-11
5.41895e-11
5.44144e-11
5.4186e-11
5.74167e-11
3.53543e-11
4.76948e-11
5.19982e-11
5.13546e-11
5.11457e-11
5.11828e-11
5.08062e-11
5.10658e-11
5.07949e-11
3.91501e-11
3.46514e-11
4.51158e-11
4.85257e-11
4.80569e-11
4.78322e-11
4.78703e-11
4.74686e-11
4.77467e-11
4.74478e-11
2.95105e-11
3.37751e-11
4.20904e-11
4.51873e-11
4.45823e-11
4.43454e-11
4.43852e-11
4.39605e-11
4.42564e-11
4.39319e-11
)
;

boundaryField
{
    fuel
    {
        type            fixedValue;
        value           uniform 0;
    }
    wall
    {
        type            zeroGradient;
    }
    outlet
    {
        type            zeroGradient;
    }
    frontAndBack
    {
        type            empty;
    }
    procBoundary2to0
    {
        type            processor;
        value           nonuniform List<scalar> 
12
(
4.75011e-11
2.45429e-11
3.26087e-11
3.90318e-11
4.16683e-11
4.09403e-11
4.06956e-11
4.07365e-11
4.02938e-11
4.06048e-11
4.39964e-11
4.02591e-11
)
;
    }
    procBoundary2to3
    {
        type            processor;
        value           nonuniform List<scalar> 
25
(
3.82617e-08
1.59178e-08
6.40739e-09
2.64123e-09
1.16447e-09
5.46472e-10
3.00571e-10
1.90943e-10
1.39735e-10
1.11721e-10
1.11721e-10
9.92169e-11
9.03911e-11
8.47267e-11
8.0643e-11
7.73368e-11
7.44058e-11
7.16389e-11
6.89158e-11
6.61609e-11
6.33188e-11
6.03426e-11
5.71867e-11
5.42138e-11
5.08355e-11
)
;
    }
}


// ************************************************************************* //
