/*--------------------------------*- C++ -*----------------------------------*\
| =========                 |                                                 |
| \\      /  F ield         | OpenFOAM: The Open Source CFD Toolbox           |
|  \\    /   O peration     | Version:  dev                                   |
|   \\  /    A nd           | Web:      www.OpenFOAM.org                      |
|    \\/     M anipulation  |                                                 |
\*---------------------------------------------------------------------------*/
FoamFile
{
    version     2.0;
    format      ascii;
    class       volScalarField;
    location    "0.09";
    object      l-C6H4;
}
// * * * * * * * * * * * * * * * * * * * * * * * * * * * * * * * * * * * * * //

dimensions      [0 0 0 0 0 0 0];

internalField   nonuniform List<scalar> 
1997
(
4.63611e-08
4.64581e-08
4.65274e-08
4.65725e-08
4.65923e-08
4.66072e-08
4.66096e-08
4.66124e-08
4.66119e-08
4.6613e-08
4.66124e-08
4.66134e-08
4.66131e-08
4.6614e-08
4.66138e-08
4.66146e-08
4.66145e-08
4.66151e-08
4.60298e-08
4.61225e-08
4.61889e-08
4.62333e-08
4.62538e-08
4.62683e-08
4.62713e-08
4.62744e-08
4.62743e-08
4.62756e-08
4.62753e-08
4.62763e-08
4.62762e-08
4.62771e-08
4.6277e-08
4.62778e-08
4.62778e-08
4.62784e-08
4.62783e-08
4.62787e-08
4.62787e-08
4.62789e-08
4.62789e-08
4.6279e-08
4.6279e-08
4.6279e-08
4.6279e-08
4.62789e-08
4.57239e-08
4.58126e-08
4.58764e-08
4.592e-08
4.59413e-08
4.59554e-08
4.59591e-08
4.59625e-08
4.59628e-08
4.59643e-08
4.59642e-08
4.59653e-08
4.59653e-08
4.59663e-08
4.59663e-08
4.59671e-08
4.59671e-08
4.59677e-08
4.59677e-08
4.59681e-08
4.5968e-08
4.59683e-08
4.59682e-08
4.59683e-08
4.59683e-08
4.59683e-08
4.59684e-08
4.59682e-08
4.59683e-08
4.5968e-08
4.59681e-08
4.59677e-08
4.59677e-08
4.59671e-08
4.59671e-08
4.59663e-08
4.59662e-08
4.59653e-08
4.59653e-08
4.59642e-08
4.54425e-08
4.55273e-08
4.55889e-08
4.56316e-08
4.56537e-08
4.56676e-08
4.56719e-08
4.56755e-08
4.56763e-08
4.56779e-08
4.56781e-08
4.56793e-08
4.56794e-08
4.56804e-08
4.56805e-08
4.56813e-08
4.56813e-08
4.56819e-08
4.5682e-08
4.56823e-08
4.56823e-08
4.56826e-08
4.56825e-08
4.56827e-08
4.56827e-08
4.56827e-08
4.56827e-08
4.56825e-08
4.56826e-08
4.56823e-08
4.56823e-08
4.5682e-08
4.56819e-08
4.56813e-08
4.56813e-08
4.56805e-08
4.56804e-08
4.56794e-08
4.56793e-08
4.56781e-08
4.56779e-08
4.56763e-08
4.56755e-08
4.56718e-08
4.56676e-08
4.56537e-08
4.56316e-08
4.55889e-08
4.55273e-08
4.54425e-08
4.51845e-08
4.52657e-08
4.53252e-08
4.53671e-08
4.53901e-08
4.54037e-08
4.54085e-08
4.54125e-08
4.54136e-08
4.54154e-08
4.54158e-08
4.54171e-08
4.54174e-08
4.54184e-08
4.54186e-08
4.54193e-08
4.54195e-08
4.542e-08
4.54201e-08
4.54205e-08
4.54205e-08
4.54207e-08
4.54207e-08
4.54208e-08
4.54208e-08
4.54208e-08
4.54208e-08
4.54207e-08
4.54207e-08
4.54205e-08
4.54205e-08
4.54201e-08
4.542e-08
4.54195e-08
4.54193e-08
4.54186e-08
4.54183e-08
4.54174e-08
4.54171e-08
4.54158e-08
4.54154e-08
4.54136e-08
4.54125e-08
4.54085e-08
4.54037e-08
4.53901e-08
4.53671e-08
4.53252e-08
4.52657e-08
4.51845e-08
4.4945e-08
4.50231e-08
4.50807e-08
4.51217e-08
4.51448e-08
4.5158e-08
4.51632e-08
4.51673e-08
4.51687e-08
4.51705e-08
4.51711e-08
4.51724e-08
4.51728e-08
4.51738e-08
4.51741e-08
4.51748e-08
4.5175e-08
4.51756e-08
4.51757e-08
4.5176e-08
4.5176e-08
4.51763e-08
4.51763e-08
4.51764e-08
4.51764e-08
4.51764e-08
4.51764e-08
4.51763e-08
4.51763e-08
4.51761e-08
4.5176e-08
4.51757e-08
4.51756e-08
4.5175e-08
4.51748e-08
4.5174e-08
4.51738e-08
4.51728e-08
4.51724e-08
4.51711e-08
4.51705e-08
4.51686e-08
4.51672e-08
4.51631e-08
4.5158e-08
4.51448e-08
4.51216e-08
4.50807e-08
4.50231e-08
4.4945e-08
4.47306e-08
4.48053e-08
4.48613e-08
4.49015e-08
4.49253e-08
4.49383e-08
4.4944e-08
4.49484e-08
4.49501e-08
4.49521e-08
4.49529e-08
4.49543e-08
4.49548e-08
4.49558e-08
4.49561e-08
4.49569e-08
4.49571e-08
4.49577e-08
4.49578e-08
4.49582e-08
4.49582e-08
4.49584e-08
4.49584e-08
4.49586e-08
4.49586e-08
4.49586e-08
4.49586e-08
4.49585e-08
4.49584e-08
4.49582e-08
4.49582e-08
4.49578e-08
4.49577e-08
4.49571e-08
4.49569e-08
4.49561e-08
4.49558e-08
4.49548e-08
4.49543e-08
4.49529e-08
4.49521e-08
4.49501e-08
4.49483e-08
4.4944e-08
4.49383e-08
4.49253e-08
4.49015e-08
4.48613e-08
4.48053e-08
4.47306e-08
4.45364e-08
4.46079e-08
4.46625e-08
4.47019e-08
4.47264e-08
4.47392e-08
4.47452e-08
4.47496e-08
4.47515e-08
4.47535e-08
4.47544e-08
4.47557e-08
4.47563e-08
4.47573e-08
4.47577e-08
4.47585e-08
4.47587e-08
4.47593e-08
4.47594e-08
4.47598e-08
4.47598e-08
4.476e-08
4.476e-08
4.47601e-08
4.47601e-08
4.47601e-08
4.47601e-08
4.476e-08
4.476e-08
4.47598e-08
4.47598e-08
4.47594e-08
4.47593e-08
4.47587e-08
4.47585e-08
4.47577e-08
4.47573e-08
4.47563e-08
4.47557e-08
4.47544e-08
4.47535e-08
4.47514e-08
4.47496e-08
4.47452e-08
4.47392e-08
4.47264e-08
4.47019e-08
4.46625e-08
4.46079e-08
4.45364e-08
4.43612e-08
4.44298e-08
4.4483e-08
4.45217e-08
4.45467e-08
4.45593e-08
4.45658e-08
4.45705e-08
4.45726e-08
4.45748e-08
4.45758e-08
4.45772e-08
4.45779e-08
4.45789e-08
4.45794e-08
4.45802e-08
4.45804e-08
4.4581e-08
4.45811e-08
4.45815e-08
4.45816e-08
4.45818e-08
4.45818e-08
4.45819e-08
4.45819e-08
4.45819e-08
4.45819e-08
4.45818e-08
4.45818e-08
4.45816e-08
4.45815e-08
4.45811e-08
4.4581e-08
4.45804e-08
4.45802e-08
4.45794e-08
4.45789e-08
4.45779e-08
4.45772e-08
4.45758e-08
4.45748e-08
4.45726e-08
4.45704e-08
4.45658e-08
4.45593e-08
4.45467e-08
4.45217e-08
4.4483e-08
4.44298e-08
4.43612e-08
4.42012e-08
4.42674e-08
4.43192e-08
4.43572e-08
4.43822e-08
4.43946e-08
4.44014e-08
4.44061e-08
4.44084e-08
4.44107e-08
4.44118e-08
4.44133e-08
4.4414e-08
4.44151e-08
4.44155e-08
4.44163e-08
4.44166e-08
4.44172e-08
4.44173e-08
4.44177e-08
4.44178e-08
4.4418e-08
4.4418e-08
4.44181e-08
4.44181e-08
4.44181e-08
4.44181e-08
4.4418e-08
4.4418e-08
4.44178e-08
4.44177e-08
4.44173e-08
4.44172e-08
4.44166e-08
4.44163e-08
4.44155e-08
4.44151e-08
4.4414e-08
4.44133e-08
4.44118e-08
4.44107e-08
4.44084e-08
4.44061e-08
4.44014e-08
4.43946e-08
4.43822e-08
4.43571e-08
4.43192e-08
4.42674e-08
4.42012e-08
4.40556e-08
4.41189e-08
4.41697e-08
4.42069e-08
4.42323e-08
4.42446e-08
4.42518e-08
4.42567e-08
4.42593e-08
4.42617e-08
4.42629e-08
4.42644e-08
4.42653e-08
4.42663e-08
4.42669e-08
4.42676e-08
4.4268e-08
4.42685e-08
4.42687e-08
4.42691e-08
4.42692e-08
4.42693e-08
4.42694e-08
4.42695e-08
4.42695e-08
4.42695e-08
4.42695e-08
4.42694e-08
4.42693e-08
4.42692e-08
4.42691e-08
4.42687e-08
4.42685e-08
4.4268e-08
4.42676e-08
4.42669e-08
4.42663e-08
4.42652e-08
4.42644e-08
4.42629e-08
4.42617e-08
4.42593e-08
4.42567e-08
4.42518e-08
4.42446e-08
4.42323e-08
4.42069e-08
4.41697e-08
4.41189e-08
4.40556e-08
4.39303e-08
4.39911e-08
4.40408e-08
4.40775e-08
4.41029e-08
4.41152e-08
4.41228e-08
4.41279e-08
4.41307e-08
4.41332e-08
4.41346e-08
4.41361e-08
4.4137e-08
4.41381e-08
4.41387e-08
4.41394e-08
4.41398e-08
4.41403e-08
4.41406e-08
4.41409e-08
4.4141e-08
4.41412e-08
4.41412e-08
4.41413e-08
4.41413e-08
4.41414e-08
4.41413e-08
4.41412e-08
4.41412e-08
4.4141e-08
4.41409e-08
4.41406e-08
4.41403e-08
4.41398e-08
4.41394e-08
4.41387e-08
4.41381e-08
4.4137e-08
4.41361e-08
4.41345e-08
4.41331e-08
4.41307e-08
4.41279e-08
4.41228e-08
4.41152e-08
4.41029e-08
4.40774e-08
4.40408e-08
4.39911e-08
4.39303e-08
4.38198e-08
4.38782e-08
4.3927e-08
4.39631e-08
4.39885e-08
4.40009e-08
4.40087e-08
4.4014e-08
4.4017e-08
4.40196e-08
4.40211e-08
4.40227e-08
4.40236e-08
4.40247e-08
4.40254e-08
4.40261e-08
4.40265e-08
4.40271e-08
4.40273e-08
4.40276e-08
4.40278e-08
4.40279e-08
4.4028e-08
4.40281e-08
4.40281e-08
4.40281e-08
4.40281e-08
4.4028e-08
4.40279e-08
4.40278e-08
4.40276e-08
4.40273e-08
4.40271e-08
4.40265e-08
4.40261e-08
4.40254e-08
4.40247e-08
4.40236e-08
4.40226e-08
4.40211e-08
4.40196e-08
4.4017e-08
4.4014e-08
4.40087e-08
4.40008e-08
4.39885e-08
4.39631e-08
4.3927e-08
4.38782e-08
4.38198e-08
4.3723e-08
4.37792e-08
4.3827e-08
4.38626e-08
4.38879e-08
4.39004e-08
4.39085e-08
4.3914e-08
4.39171e-08
4.39198e-08
4.39214e-08
4.3923e-08
4.39241e-08
4.39252e-08
4.39259e-08
4.39266e-08
4.39271e-08
4.39276e-08
4.39278e-08
4.39282e-08
4.39283e-08
4.39285e-08
4.39285e-08
4.39286e-08
4.39287e-08
4.39287e-08
4.39286e-08
4.39285e-08
4.39285e-08
4.39283e-08
4.39282e-08
4.39278e-08
4.39276e-08
4.39271e-08
4.39266e-08
4.39259e-08
4.39252e-08
4.39241e-08
4.3923e-08
4.39214e-08
4.39198e-08
4.39171e-08
4.3914e-08
4.39085e-08
4.39004e-08
4.38879e-08
4.38626e-08
4.3827e-08
4.37792e-08
4.3723e-08
4.36369e-08
4.36909e-08
4.37377e-08
4.37727e-08
4.37976e-08
4.38101e-08
4.38185e-08
4.38241e-08
4.38274e-08
4.38301e-08
4.38318e-08
4.38334e-08
4.38345e-08
4.38357e-08
4.38364e-08
4.38371e-08
4.38376e-08
4.38381e-08
4.38384e-08
4.38387e-08
4.38388e-08
4.3839e-08
4.38391e-08
4.38392e-08
4.38392e-08
4.38392e-08
4.38392e-08
4.38391e-08
4.3839e-08
4.38388e-08
4.38387e-08
4.38384e-08
4.38381e-08
4.38376e-08
4.38371e-08
4.38364e-08
4.38356e-08
4.38345e-08
4.38334e-08
4.38318e-08
4.38301e-08
4.38274e-08
4.38241e-08
4.38185e-08
4.38101e-08
4.37976e-08
4.37727e-08
4.37377e-08
4.36909e-08
4.36369e-08
4.35625e-08
4.36144e-08
4.36605e-08
4.36949e-08
4.37198e-08
4.37324e-08
4.37411e-08
4.37469e-08
4.37504e-08
4.37532e-08
4.3755e-08
4.37567e-08
4.37578e-08
4.3759e-08
4.37597e-08
4.37605e-08
4.3761e-08
4.37615e-08
4.37618e-08
4.37621e-08
4.37622e-08
4.37624e-08
4.37625e-08
4.37626e-08
4.37626e-08
4.37626e-08
4.37626e-08
4.37625e-08
4.37624e-08
4.37622e-08
4.37621e-08
4.37618e-08
4.37615e-08
4.3761e-08
4.37605e-08
4.37597e-08
4.3759e-08
4.37578e-08
4.37567e-08
4.3755e-08
4.37532e-08
4.37504e-08
4.37469e-08
4.37411e-08
4.37324e-08
4.37198e-08
4.36949e-08
4.36605e-08
4.36144e-08
4.35625e-08
4.35032e-08
4.35533e-08
4.35987e-08
4.36328e-08
4.36576e-08
4.36704e-08
4.36794e-08
4.36854e-08
4.3689e-08
4.3692e-08
4.36939e-08
4.36956e-08
4.36968e-08
4.3698e-08
4.36988e-08
4.36995e-08
4.37001e-08
4.37006e-08
4.37009e-08
4.37012e-08
4.37013e-08
4.37015e-08
4.37016e-08
4.37017e-08
4.37017e-08
4.37017e-08
4.37017e-08
4.37016e-08
4.37015e-08
4.37013e-08
4.37012e-08
4.37009e-08
4.37005e-08
4.37e-08
4.36995e-08
4.36988e-08
4.3698e-08
4.36968e-08
4.36956e-08
4.36939e-08
4.3692e-08
4.3689e-08
4.36854e-08
4.36794e-08
4.36704e-08
4.36576e-08
4.36328e-08
4.35987e-08
4.35533e-08
4.35032e-08
4.3456e-08
4.35048e-08
4.35497e-08
4.35834e-08
4.36082e-08
4.36213e-08
4.36305e-08
4.36367e-08
4.36404e-08
4.36435e-08
4.36454e-08
4.36472e-08
4.36485e-08
4.36496e-08
4.36505e-08
4.36512e-08
4.36518e-08
4.36523e-08
4.36526e-08
4.36529e-08
4.36531e-08
4.36532e-08
4.36533e-08
4.36534e-08
4.36534e-08
4.36534e-08
4.36534e-08
4.36533e-08
4.36532e-08
4.36531e-08
4.36529e-08
4.36526e-08
4.36523e-08
4.36518e-08
4.36512e-08
4.36505e-08
4.36496e-08
4.36485e-08
4.36472e-08
4.36454e-08
4.36435e-08
4.36404e-08
4.36366e-08
4.36305e-08
4.36213e-08
4.36082e-08
4.35834e-08
4.35497e-08
4.35048e-08
4.3456e-08
4.34223e-08
4.34697e-08
4.35144e-08
4.35478e-08
4.35729e-08
4.35864e-08
4.35959e-08
4.36024e-08
4.36064e-08
4.36097e-08
4.36117e-08
4.36135e-08
4.36149e-08
4.36161e-08
4.36169e-08
4.36177e-08
4.36183e-08
4.36188e-08
4.36191e-08
4.36194e-08
4.36196e-08
4.36198e-08
4.36199e-08
4.36199e-08
4.362e-08
4.362e-08
4.36199e-08
4.36199e-08
4.36198e-08
4.36196e-08
4.36194e-08
4.36191e-08
4.36188e-08
4.36183e-08
4.36177e-08
4.36169e-08
4.3616e-08
4.36148e-08
4.36135e-08
4.36117e-08
4.36096e-08
4.36064e-08
4.36024e-08
4.35959e-08
4.35864e-08
4.35729e-08
4.35478e-08
4.35144e-08
4.34697e-08
4.34223e-08
4.34013e-08
4.34475e-08
4.34925e-08
4.35259e-08
4.35516e-08
4.35656e-08
4.35755e-08
4.35823e-08
4.35866e-08
4.35901e-08
4.35923e-08
4.35941e-08
4.35956e-08
4.35968e-08
4.35978e-08
4.35986e-08
4.35992e-08
4.35997e-08
4.36e-08
4.36003e-08
4.36005e-08
4.36007e-08
4.36008e-08
4.36009e-08
4.36009e-08
4.36009e-08
4.36009e-08
4.36008e-08
4.36007e-08
4.36005e-08
4.36003e-08
4.36e-08
4.35997e-08
4.35992e-08
4.35986e-08
4.35978e-08
4.35968e-08
4.35956e-08
4.35941e-08
4.35922e-08
4.35901e-08
4.35866e-08
4.35823e-08
4.35755e-08
4.35656e-08
4.35516e-08
4.35259e-08
4.34925e-08
4.34475e-08
4.34013e-08
4.33964e-08
4.34415e-08
4.34878e-08
4.35224e-08
4.3549e-08
4.35637e-08
4.35742e-08
4.35814e-08
4.35862e-08
4.35898e-08
4.35922e-08
4.35942e-08
4.35957e-08
4.3597e-08
4.3598e-08
4.35989e-08
4.35995e-08
4.36e-08
4.36004e-08
4.36007e-08
4.36009e-08
4.36011e-08
4.36012e-08
4.36012e-08
4.36013e-08
4.36013e-08
4.36012e-08
4.36012e-08
4.36011e-08
4.36009e-08
4.36007e-08
4.36004e-08
4.36e-08
4.35995e-08
4.35988e-08
4.3598e-08
4.3597e-08
4.35957e-08
4.35942e-08
4.35922e-08
4.35898e-08
4.35861e-08
4.35814e-08
4.35742e-08
4.35637e-08
4.3549e-08
4.35224e-08
4.34878e-08
4.34415e-08
4.33964e-08
4.34113e-08
4.34558e-08
4.35036e-08
4.35389e-08
4.35669e-08
4.35825e-08
4.35938e-08
4.36016e-08
4.36068e-08
4.36108e-08
4.36133e-08
4.36155e-08
4.36172e-08
4.36185e-08
4.36196e-08
4.36204e-08
4.36211e-08
4.36216e-08
4.3622e-08
4.36223e-08
4.36226e-08
4.36227e-08
4.36229e-08
4.36229e-08
4.3623e-08
4.3623e-08
4.36229e-08
4.36229e-08
4.36227e-08
4.36226e-08
4.36223e-08
4.3622e-08
4.36216e-08
4.36211e-08
4.36204e-08
4.36196e-08
4.36185e-08
4.36171e-08
4.36155e-08
4.36133e-08
4.36108e-08
4.36068e-08
4.36016e-08
4.35938e-08
4.35825e-08
4.35669e-08
4.35389e-08
4.35036e-08
4.34558e-08
4.34113e-08
4.34484e-08
4.34931e-08
4.35429e-08
4.35794e-08
4.36093e-08
4.36262e-08
4.36385e-08
4.3647e-08
4.36528e-08
4.36572e-08
4.36601e-08
4.36624e-08
4.36642e-08
4.36656e-08
4.36668e-08
4.36677e-08
4.36685e-08
4.3669e-08
4.36694e-08
4.36697e-08
4.367e-08
4.36701e-08
4.36703e-08
4.36703e-08
4.36704e-08
4.36704e-08
4.36704e-08
4.36703e-08
4.36701e-08
4.367e-08
4.36697e-08
4.36694e-08
4.3669e-08
4.36685e-08
4.36677e-08
4.36668e-08
4.36656e-08
4.36642e-08
4.36623e-08
4.366e-08
4.36572e-08
4.36528e-08
4.3647e-08
4.36385e-08
4.36262e-08
4.36093e-08
4.35794e-08
4.35429e-08
4.34932e-08
4.34484e-08
4.3513e-08
4.35581e-08
4.36108e-08
4.3649e-08
4.36814e-08
4.37e-08
4.37135e-08
4.37229e-08
4.37294e-08
4.37343e-08
4.37375e-08
4.374e-08
4.37421e-08
4.37436e-08
4.37449e-08
4.37458e-08
4.37467e-08
4.37472e-08
4.37477e-08
4.3748e-08
4.37483e-08
4.37484e-08
4.37486e-08
4.37486e-08
4.37487e-08
4.37487e-08
4.37486e-08
4.37486e-08
4.37484e-08
4.37483e-08
4.3748e-08
4.37477e-08
4.37472e-08
4.37467e-08
4.37458e-08
4.37449e-08
4.37436e-08
4.37421e-08
4.374e-08
4.37375e-08
4.37342e-08
4.37294e-08
4.37229e-08
4.37135e-08
4.37e-08
4.36814e-08
4.3649e-08
4.36108e-08
4.35581e-08
4.35131e-08
4.36099e-08
4.36564e-08
4.37135e-08
4.37541e-08
4.37895e-08
4.38104e-08
4.38254e-08
4.3836e-08
4.38435e-08
4.38489e-08
4.38526e-08
4.38554e-08
4.38577e-08
4.38594e-08
4.38609e-08
4.38619e-08
4.38628e-08
4.38633e-08
4.38639e-08
4.38642e-08
4.38645e-08
4.38647e-08
4.38648e-08
4.38649e-08
4.3865e-08
4.3865e-08
4.38649e-08
4.38648e-08
4.38647e-08
4.38645e-08
4.38642e-08
4.38639e-08
4.38633e-08
4.38628e-08
4.38618e-08
4.38609e-08
4.38594e-08
4.38577e-08
4.38554e-08
4.38526e-08
4.38489e-08
4.38434e-08
4.3836e-08
4.38254e-08
4.38104e-08
4.37895e-08
4.37541e-08
4.37135e-08
4.36565e-08
4.36099e-08
4.37484e-08
4.3797e-08
4.38608e-08
4.39049e-08
4.3944e-08
4.39682e-08
4.3985e-08
4.39973e-08
4.40058e-08
4.4012e-08
4.40163e-08
4.40194e-08
4.40221e-08
4.40239e-08
4.40256e-08
4.40266e-08
4.40277e-08
4.40283e-08
4.40289e-08
4.40292e-08
4.40296e-08
4.40297e-08
4.40299e-08
4.403e-08
4.403e-08
4.403e-08
4.403e-08
4.40299e-08
4.40297e-08
4.40296e-08
4.40292e-08
4.40289e-08
4.40282e-08
4.40277e-08
4.40266e-08
4.40256e-08
4.40239e-08
4.40221e-08
4.40194e-08
4.40163e-08
4.4012e-08
4.40058e-08
4.39973e-08
4.3985e-08
4.39682e-08
4.39441e-08
4.39049e-08
4.38608e-08
4.37971e-08
4.37485e-08
4.39385e-08
4.39901e-08
4.40584e-08
4.41068e-08
4.41505e-08
4.41784e-08
4.41973e-08
4.42116e-08
4.42213e-08
4.42284e-08
4.42334e-08
4.4237e-08
4.424e-08
4.4242e-08
4.42439e-08
4.4245e-08
4.42462e-08
4.42468e-08
4.42475e-08
4.42479e-08
4.42483e-08
4.42484e-08
4.42486e-08
4.42487e-08
4.42488e-08
4.42488e-08
4.42487e-08
4.42486e-08
4.42484e-08
4.42483e-08
4.42479e-08
4.42475e-08
4.42468e-08
4.42462e-08
4.4245e-08
4.42439e-08
4.4242e-08
4.42399e-08
4.42369e-08
4.42334e-08
4.42284e-08
4.42213e-08
4.42115e-08
4.41973e-08
4.41784e-08
4.41505e-08
4.41068e-08
4.40584e-08
4.39901e-08
4.39385e-08
4.41853e-08
4.42417e-08
4.43213e-08
4.43761e-08
4.44264e-08
4.44593e-08
4.44812e-08
4.4498e-08
4.45093e-08
4.45178e-08
4.45236e-08
4.45277e-08
4.45312e-08
4.45335e-08
4.45357e-08
4.45369e-08
4.45383e-08
4.4539e-08
4.45398e-08
4.45401e-08
4.45406e-08
4.45407e-08
4.4541e-08
4.4541e-08
4.45411e-08
4.45411e-08
4.4541e-08
4.4541e-08
4.45407e-08
4.45406e-08
4.45401e-08
4.45398e-08
4.4539e-08
4.45383e-08
4.45369e-08
4.45357e-08
4.45335e-08
4.45312e-08
4.45277e-08
4.45236e-08
4.45178e-08
4.45093e-08
4.4498e-08
4.44812e-08
4.44593e-08
4.44264e-08
4.43761e-08
4.43214e-08
4.42418e-08
4.41854e-08
4.45122e-08
4.45689e-08
4.4661e-08
4.47226e-08
4.47803e-08
4.48188e-08
4.48438e-08
4.48634e-08
4.48765e-08
4.48864e-08
4.48932e-08
4.4898e-08
4.4902e-08
4.49045e-08
4.49071e-08
4.49084e-08
4.491e-08
4.49107e-08
4.49117e-08
4.4912e-08
4.49125e-08
4.49127e-08
4.4913e-08
4.4913e-08
4.49131e-08
4.49131e-08
4.4913e-08
4.4913e-08
4.49127e-08
4.49125e-08
4.4912e-08
4.49117e-08
4.49107e-08
4.491e-08
4.49084e-08
4.49071e-08
4.49045e-08
4.4902e-08
4.48979e-08
4.48932e-08
4.48864e-08
4.48765e-08
4.48634e-08
4.48438e-08
4.48188e-08
4.47803e-08
4.47227e-08
4.46611e-08
4.45689e-08
4.45123e-08
4.49226e-08
4.49867e-08
4.5095e-08
4.51647e-08
4.52324e-08
4.52789e-08
4.53082e-08
4.53318e-08
4.53472e-08
4.53592e-08
4.53672e-08
4.53728e-08
4.53776e-08
4.53805e-08
4.53835e-08
4.5385e-08
4.53869e-08
4.53876e-08
4.53887e-08
4.53891e-08
4.53897e-08
4.53898e-08
4.53902e-08
4.53902e-08
4.53903e-08
4.53903e-08
4.53902e-08
4.53902e-08
4.53898e-08
4.53897e-08
4.53891e-08
4.53887e-08
4.53876e-08
4.53869e-08
4.5385e-08
4.53835e-08
4.53805e-08
4.53775e-08
4.53728e-08
4.53672e-08
4.53592e-08
4.53472e-08
4.53318e-08
4.53082e-08
4.52789e-08
4.52325e-08
4.51648e-08
4.50951e-08
4.49868e-08
4.49227e-08
4.54503e-08
4.5524e-08
4.56423e-08
4.57218e-08
4.58015e-08
4.58565e-08
4.58901e-08
4.5918e-08
4.59359e-08
4.595e-08
4.59593e-08
4.59658e-08
4.59714e-08
4.59747e-08
4.59782e-08
4.59798e-08
4.5982e-08
4.59828e-08
4.59841e-08
4.59844e-08
4.59852e-08
4.59853e-08
4.59857e-08
4.59857e-08
4.59858e-08
4.59858e-08
4.59857e-08
4.59857e-08
4.59853e-08
4.59852e-08
4.59844e-08
4.59841e-08
4.59828e-08
4.5982e-08
4.59798e-08
4.59782e-08
4.59746e-08
4.59713e-08
4.59658e-08
4.59593e-08
4.595e-08
4.59358e-08
4.5918e-08
4.58901e-08
4.58565e-08
4.58016e-08
4.57218e-08
4.56424e-08
4.5524e-08
4.54504e-08
4.61e-08
4.61842e-08
4.63282e-08
4.64221e-08
4.65195e-08
4.65862e-08
4.66257e-08
4.66596e-08
4.66806e-08
4.66976e-08
4.67087e-08
4.67165e-08
4.6723e-08
4.67268e-08
4.6731e-08
4.67328e-08
4.67354e-08
4.67363e-08
4.67378e-08
4.67382e-08
4.6739e-08
4.67391e-08
4.67396e-08
4.67396e-08
4.67398e-08
4.67398e-08
4.67396e-08
4.67396e-08
4.67392e-08
4.67391e-08
4.67382e-08
4.67378e-08
4.67363e-08
4.67354e-08
4.67328e-08
4.6731e-08
4.67268e-08
4.67229e-08
4.67164e-08
4.67087e-08
4.66976e-08
4.66806e-08
4.66596e-08
4.66257e-08
4.65862e-08
4.65195e-08
4.64222e-08
4.63283e-08
4.61843e-08
4.61001e-08
4.69244e-08
4.7023e-08
4.71969e-08
4.73058e-08
4.74012e-08
4.74806e-08
4.75262e-08
4.75664e-08
4.75909e-08
4.76109e-08
4.7624e-08
4.76331e-08
4.76407e-08
4.76451e-08
4.76499e-08
4.7652e-08
4.7655e-08
4.76559e-08
4.76577e-08
4.76581e-08
4.76591e-08
4.76592e-08
4.76597e-08
4.76597e-08
4.76599e-08
4.76599e-08
4.76598e-08
4.76597e-08
4.76592e-08
4.76591e-08
4.76581e-08
4.76577e-08
4.76559e-08
4.7655e-08
4.7652e-08
4.76499e-08
4.7645e-08
4.76406e-08
4.7633e-08
4.7624e-08
4.76109e-08
4.75909e-08
4.75664e-08
4.75263e-08
4.74806e-08
4.74012e-08
4.73059e-08
4.7197e-08
4.70232e-08
4.69245e-08
4.79224e-08
4.80371e-08
4.82464e-08
4.83732e-08
4.84879e-08
4.85827e-08
4.86357e-08
4.86835e-08
4.87119e-08
4.87356e-08
4.8751e-08
4.87617e-08
4.87705e-08
4.87756e-08
4.87813e-08
4.87835e-08
4.87871e-08
4.87881e-08
4.87902e-08
4.87905e-08
4.87917e-08
4.87918e-08
4.87924e-08
4.87924e-08
4.87926e-08
4.87926e-08
4.87924e-08
4.87924e-08
4.87918e-08
4.87918e-08
4.87905e-08
4.87902e-08
4.8788e-08
4.87871e-08
4.87835e-08
4.87812e-08
4.87755e-08
4.87705e-08
4.87616e-08
4.8751e-08
4.87356e-08
4.87119e-08
4.86835e-08
4.86357e-08
4.85828e-08
4.8488e-08
4.83733e-08
4.82466e-08
4.80373e-08
4.79226e-08
4.9167e-08
4.9303e-08
4.95368e-08
4.96851e-08
4.98208e-08
4.99341e-08
4.99957e-08
5.00524e-08
5.00855e-08
5.01135e-08
5.01316e-08
5.01441e-08
5.01545e-08
5.01603e-08
5.01669e-08
5.01695e-08
5.01737e-08
5.01747e-08
5.01772e-08
5.01775e-08
5.01789e-08
5.0179e-08
5.01797e-08
5.01797e-08
5.01799e-08
5.01799e-08
5.01797e-08
5.01797e-08
5.0179e-08
5.0179e-08
5.01775e-08
5.01772e-08
5.01747e-08
5.01736e-08
5.01695e-08
5.01669e-08
5.01602e-08
5.01545e-08
5.0144e-08
5.01316e-08
5.01135e-08
5.00855e-08
5.00524e-08
4.99957e-08
4.99341e-08
4.98209e-08
4.96852e-08
4.9537e-08
4.93032e-08
4.91672e-08
5.0671e-08
5.08326e-08
5.1115e-08
5.12905e-08
5.145e-08
5.15852e-08
5.16571e-08
5.17269e-08
5.17671e-08
5.18017e-08
5.18238e-08
5.1839e-08
5.18518e-08
5.18586e-08
5.18667e-08
5.18696e-08
5.18747e-08
5.18759e-08
5.18789e-08
5.18792e-08
5.1881e-08
5.1881e-08
5.18819e-08
5.18818e-08
5.18821e-08
5.18821e-08
5.18818e-08
5.18819e-08
5.1881e-08
5.1881e-08
5.18792e-08
5.18789e-08
5.18759e-08
5.18747e-08
5.18696e-08
5.18666e-08
5.18585e-08
5.18517e-08
5.18389e-08
5.18238e-08
5.18016e-08
5.17671e-08
5.17269e-08
5.16572e-08
5.15853e-08
5.14501e-08
5.12907e-08
5.11153e-08
5.08328e-08
5.06712e-08
5.25082e-08
5.27021e-08
5.30408e-08
5.32502e-08
5.34372e-08
5.35984e-08
5.36829e-08
5.37654e-08
5.38124e-08
5.38533e-08
5.38792e-08
5.38971e-08
5.39121e-08
5.39199e-08
5.39295e-08
5.39328e-08
5.39388e-08
5.394e-08
5.39436e-08
5.39438e-08
5.39459e-08
5.39458e-08
5.39469e-08
5.39468e-08
5.39472e-08
5.39472e-08
5.39468e-08
5.39469e-08
5.39458e-08
5.39459e-08
5.39438e-08
5.39436e-08
5.394e-08
5.39387e-08
5.39327e-08
5.39294e-08
5.39198e-08
5.3912e-08
5.3897e-08
5.38793e-08
5.38531e-08
5.38124e-08
5.37654e-08
5.3683e-08
5.35985e-08
5.34374e-08
5.32504e-08
5.30411e-08
5.27023e-08
5.25085e-08
5.47488e-08
5.49824e-08
5.53893e-08
5.564e-08
5.58591e-08
5.60513e-08
5.61512e-08
5.62488e-08
5.63041e-08
5.63525e-08
5.63831e-08
5.64043e-08
5.64221e-08
5.6431e-08
5.64423e-08
5.6446e-08
5.64531e-08
5.64544e-08
5.64586e-08
5.64588e-08
5.64613e-08
5.64611e-08
5.64624e-08
5.64623e-08
5.64627e-08
5.64627e-08
5.64623e-08
5.64625e-08
5.64611e-08
5.64613e-08
5.64588e-08
5.64586e-08
5.64543e-08
5.64531e-08
5.6446e-08
5.64422e-08
5.64309e-08
5.6422e-08
5.64042e-08
5.63833e-08
5.63523e-08
5.6304e-08
5.62488e-08
5.61514e-08
5.60514e-08
5.58593e-08
5.56402e-08
5.53896e-08
5.49827e-08
5.47491e-08
5.74808e-08
5.77629e-08
5.82542e-08
5.85549e-08
5.88123e-08
5.90411e-08
5.916e-08
5.9276e-08
5.9341e-08
5.93987e-08
5.94349e-08
5.946e-08
5.94812e-08
5.94915e-08
5.95049e-08
5.9509e-08
5.95174e-08
5.95187e-08
5.95238e-08
5.95239e-08
5.95269e-08
5.95266e-08
5.95281e-08
5.95279e-08
5.95284e-08
5.95284e-08
5.95279e-08
5.95282e-08
5.95266e-08
5.95269e-08
5.95239e-08
5.95238e-08
5.95187e-08
5.95174e-08
5.95089e-08
5.95047e-08
5.94913e-08
5.9481e-08
5.94599e-08
5.94351e-08
5.93985e-08
5.93409e-08
5.9276e-08
5.91601e-08
5.90413e-08
5.88126e-08
5.85553e-08
5.82547e-08
5.77632e-08
5.74812e-08
6.08211e-08
6.11738e-08
6.1754e-08
6.2115e-08
6.24191e-08
6.26913e-08
6.28333e-08
6.29718e-08
6.30486e-08
6.31173e-08
6.31604e-08
6.31904e-08
6.32154e-08
6.32273e-08
6.32433e-08
6.32479e-08
6.3258e-08
6.32593e-08
6.32654e-08
6.32654e-08
6.32689e-08
6.32685e-08
6.32704e-08
6.327e-08
6.32707e-08
6.32707e-08
6.32701e-08
6.32704e-08
6.32685e-08
6.3269e-08
6.32654e-08
6.32654e-08
6.32593e-08
6.32579e-08
6.32479e-08
6.32432e-08
6.32272e-08
6.32153e-08
6.31903e-08
6.31605e-08
6.31171e-08
6.30485e-08
6.29719e-08
6.28335e-08
6.26916e-08
6.24195e-08
6.21154e-08
6.17547e-08
6.11742e-08
6.08216e-08
6.49019e-08
6.53294e-08
6.6039e-08
6.64732e-08
6.68336e-08
6.71594e-08
6.73287e-08
6.74951e-08
6.75854e-08
6.76679e-08
6.77193e-08
6.77554e-08
6.77851e-08
6.77989e-08
6.7818e-08
6.78232e-08
6.78352e-08
6.78366e-08
6.78439e-08
6.78437e-08
6.7848e-08
6.78473e-08
6.78496e-08
6.78492e-08
6.78499e-08
6.78499e-08
6.78492e-08
6.78496e-08
6.78474e-08
6.7848e-08
6.78437e-08
6.78439e-08
6.78366e-08
6.78352e-08
6.78231e-08
6.78179e-08
6.77987e-08
6.77849e-08
6.77553e-08
6.77195e-08
6.76678e-08
6.75853e-08
6.74953e-08
6.7329e-08
6.71597e-08
6.68341e-08
6.64737e-08
6.60399e-08
6.53298e-08
6.49025e-08
6.99084e-08
7.04295e-08
7.13008e-08
7.18241e-08
7.22527e-08
7.26444e-08
7.28466e-08
7.30473e-08
7.31538e-08
7.3253e-08
7.33145e-08
)
;

boundaryField
{
    fuel
    {
        type            fixedValue;
        value           nonuniform 0();
    }
    wall
    {
        type            zeroGradient;
    }
    outlet
    {
        type            zeroGradient;
    }
    frontAndBack
    {
        type            empty;
    }
    procBoundary2to0
    {
        type            processor;
        value           nonuniform List<scalar> 
53
(
4.67189e-08
4.68202e-08
4.68927e-08
4.69386e-08
4.69578e-08
4.69732e-08
4.69749e-08
4.69774e-08
4.69764e-08
4.69773e-08
4.69766e-08
4.69774e-08
4.6977e-08
4.69778e-08
4.69776e-08
4.69783e-08
4.69782e-08
4.69788e-08
4.6615e-08
4.6615e-08
4.66154e-08
4.66153e-08
4.66156e-08
4.66155e-08
4.66156e-08
4.66156e-08
4.66156e-08
4.66156e-08
4.66155e-08
4.62789e-08
4.62789e-08
4.62787e-08
4.62787e-08
4.62783e-08
4.62784e-08
4.62778e-08
4.62778e-08
4.6277e-08
4.62771e-08
4.62762e-08
4.62763e-08
4.62753e-08
4.59642e-08
4.59642e-08
4.59628e-08
4.59624e-08
4.59591e-08
4.59554e-08
4.59412e-08
4.592e-08
4.58764e-08
4.58126e-08
4.57239e-08
)
;
    }
    procBoundary2to3
    {
        type            processor;
        value           nonuniform List<scalar> 
51
(
7.33581e-08
7.33937e-08
7.34097e-08
7.34327e-08
7.34385e-08
7.34529e-08
7.34542e-08
7.3463e-08
7.34626e-08
7.34677e-08
7.34669e-08
7.34696e-08
7.34691e-08
7.347e-08
7.347e-08
7.34691e-08
7.34697e-08
7.34669e-08
7.34678e-08
7.34626e-08
7.34631e-08
7.34542e-08
7.34529e-08
7.34384e-08
7.34325e-08
7.34095e-08
7.33935e-08
7.33581e-08
7.33147e-08
7.32529e-08
7.31536e-08
7.30475e-08
7.2847e-08
7.26449e-08
7.22534e-08
7.18249e-08
7.13021e-08
7.043e-08
6.99093e-08
7.60698e-08
7.67073e-08
7.77822e-08
7.84141e-08
7.89254e-08
7.93982e-08
7.96398e-08
7.98825e-08
8.00083e-08
8.01284e-08
7.33581e-08
8.0202e-08
)
;
    }
}


// ************************************************************************* //
