/*--------------------------------*- C++ -*----------------------------------*\
| =========                 |                                                 |
| \\      /  F ield         | OpenFOAM: The Open Source CFD Toolbox           |
|  \\    /   O peration     | Version:  dev                                   |
|   \\  /    A nd           | Web:      www.OpenFOAM.org                      |
|    \\/     M anipulation  |                                                 |
\*---------------------------------------------------------------------------*/
FoamFile
{
    version     2.0;
    format      ascii;
    class       volScalarField;
    location    "0.09";
    object      N2;
}
// * * * * * * * * * * * * * * * * * * * * * * * * * * * * * * * * * * * * * //

dimensions      [0 0 0 0 0 0 0];

internalField   nonuniform List<scalar> 
250
(
0.00687184
0.000675192
5.35503e-05
4.29441e-06
3.73629e-07
4.93611e-10
0
0
0
0.0192558
0.0012723
0.000100092
8.1305e-06
7.40307e-07
2.83654e-08
0
0
0
0.0303868
0.00188708
0.00014954
1.23769e-05
1.1706e-06
7.60987e-08
0
0
0
0.0359323
0.00246566
0.000199806
1.69549e-05
1.66102e-06
1.38436e-07
0
0
5.26251e-10
0.0362463
0.00292317
0.000247939
2.17165e-05
2.20468e-06
2.1407e-07
0
0
1.98596e-08
0.0332773
0.00321944
0.000291304
2.67132e-05
2.83154e-06
3.06157e-07
0
0
3.84793e-08
0.0288686
0.00337296
0.000328099
3.14291e-05
3.46416e-06
4.04085e-07
8.50895e-09
0
5.58048e-08
0.0242072
0.00341997
0.000359224
3.59026e-05
4.12434e-06
5.17993e-07
4.05917e-08
0
7.46366e-08
0.0199153
0.00338229
0.000381377
4.03411e-05
4.79999e-06
6.3945e-07
7.92144e-08
4.59068e-10
9.20013e-08
0.0162578
0.00328124
0.000398519
4.47789e-05
5.5912e-06
7.94879e-07
1.32867e-07
5.10477e-08
1.11979e-07
0.0133441
0.00313588
0.000408958
4.82948e-05
6.29141e-06
9.45449e-07
1.9061e-07
8.74803e-08
1.36268e-07
1.03995e-07
0.011035
0.00296189
0.000412835
5.16578e-05
7.07885e-06
1.13432e-06
2.69626e-07
1.44665e-07
1.75357e-07
2.11503e-07
0.00920957
0.00277223
0.000412343
5.48183e-05
7.88895e-06
1.34939e-06
3.70155e-07
2.23365e-07
2.32758e-07
3.00285e-07
0.00776787
0.00253977
0.000408349
5.76197e-05
8.70761e-06
1.59359e-06
4.97528e-07
3.28674e-07
3.14711e-07
3.95138e-07
0.00663002
0.00234304
0.000401483
6.00901e-05
9.53388e-06
1.87275e-06
6.59085e-07
4.68049e-07
4.29448e-07
5.05666e-07
0.00573161
0.00215827
0.000393013
6.22598e-05
1.03686e-05
2.19434e-06
8.63867e-07
6.51086e-07
5.8692e-07
6.54174e-07
0.00502142
0.00198854
0.000383626
6.4156e-05
1.12146e-05
2.56785e-06
1.12302e-06
8.89689e-07
7.99439e-07
8.58181e-07
0.00445874
0.00183533
0.000373801
6.58005e-05
1.20772e-05
3.00527e-06
1.4502e-06
1.19836e-06
1.08157e-06
1.13415e-06
0.00401117
0.00170036
0.000363826
6.72101e-05
1.29642e-05
3.52149e-06
1.86206e-06
1.5946e-06
1.45075e-06
1.50043e-06
0.00365288
0.00157283
0.000353844
6.83984e-05
1.38864e-05
4.13488e-06
2.37867e-06
2.09932e-06
1.92787e-06
1.97856e-06
0.00336331
0.00146762
0.000343896
6.93785e-05
1.48568e-05
4.86783e-06
3.02415e-06
2.73738e-06
2.53782e-06
2.59384e-06
0.00312593
0.00136614
0.000333916
7.01675e-05
1.58903e-05
5.74741e-06
3.82725e-06
3.53819e-06
3.31002e-06
3.37603e-06
0.00292797
0.00128388
0.000323857
7.07061e-05
1.68672e-05
6.67689e-06
4.70085e-06
4.41625e-06
4.16111e-06
4.2412e-06
0.00275882
0.00121255
0.000313536
7.11262e-05
1.7966e-05
7.85541e-06
5.83308e-06
5.56956e-06
5.2782e-06
5.38367e-06
0.00261001
0.00114871
0.000304026
7.15333e-05
1.90613e-05
9.17202e-06
7.11889e-06
6.87755e-06
6.55452e-06
6.68783e-06
0.00247486
0.00109032
0.000293424
7.19401e-05
2.02025e-05
1.07379e-05
8.66322e-06
8.45636e-06
8.09751e-06
8.2687e-06
)
;

boundaryField
{
    fuel
    {
        type            fixedValue;
        value           uniform 0;
    }
    wall
    {
        type            zeroGradient;
    }
    outlet
    {
        type            zeroGradient;
    }
    frontAndBack
    {
        type            empty;
    }
    procBoundary2to0
    {
        type            processor;
        value           nonuniform List<scalar> 
12
(
6.80325e-06
0.00234842
0.00103577
0.000283157
7.22033e-05
2.16597e-05
1.25815e-05
1.05001e-05
1.03346e-05
9.93889e-06
8.3672e-06
1.01539e-05
)
;
    }
    procBoundary2to3
    {
        type            processor;
        value           nonuniform List<scalar> 
25
(
0
0
0
2.11482e-08
5.29175e-08
9.18228e-08
1.35118e-07
1.90363e-07
2.27223e-07
2.14255e-07
2.14255e-07
8.57656e-08
1.42258e-07
2.16161e-07
3.15172e-07
4.47565e-07
6.24323e-07
8.57327e-07
1.16035e-06
1.55021e-06
2.04748e-06
2.67727e-06
3.47042e-06
4.34481e-06
5.50028e-06
)
;
    }
}


// ************************************************************************* //
