/*--------------------------------*- C++ -*----------------------------------*\
| =========                 |                                                 |
| \\      /  F ield         | OpenFOAM: The Open Source CFD Toolbox           |
|  \\    /   O peration     | Version:  dev                                   |
|   \\  /    A nd           | Web:      www.OpenFOAM.org                      |
|    \\/     M anipulation  |                                                 |
\*---------------------------------------------------------------------------*/
FoamFile
{
    version     2.0;
    format      ascii;
    class       volScalarField;
    location    "0.09";
    object      O2;
}
// * * * * * * * * * * * * * * * * * * * * * * * * * * * * * * * * * * * * * //

dimensions      [0 0 0 0 0 0 0];

internalField   nonuniform List<scalar> 
250
(
0.18071
0.0335988
0.0326592
0.0325493
0.0325345
0.0325328
0.0325323
0.0325311
0.032532
0.162566
0.00865851
0.00808388
0.00803277
0.00802229
0.00802325
0.00802156
0.00802149
0.00802236
0.144412
0.00290702
0.00244076
0.00241143
0.00240569
0.00240607
0.00240512
0.00240513
0.00240561
0.126884
0.00132975
0.000868367
0.000849695
0.000846748
0.000846442
0.000845975
0.00084596
0.000846226
0.110213
0.000827987
0.000347467
0.000335549
0.000334688
0.000332603
0.00033237
0.00033234
0.000332537
0.094202
0.000640869
0.000151443
0.000140326
0.000138387
0.000140629
0.000140516
0.000140483
0.00014037
0.077617
0.000544553
7.10782e-05
6.25034e-05
6.14715e-05
6.23395e-05
6.2277e-05
6.22467e-05
6.20869e-05
0.057528
0.000461985
3.40084e-05
2.9061e-05
2.82394e-05
2.85362e-05
2.84853e-05
2.84582e-05
2.83631e-05
0.0364493
0.000374171
1.81071e-05
1.33111e-05
1.3061e-05
1.32471e-05
1.32544e-05
1.3249e-05
1.32026e-05
0.0236347
0.000296993
9.9033e-06
5.98904e-06
6.26658e-06
6.31605e-06
6.33076e-06
6.34226e-06
6.32225e-06
0.0163195
0.000236441
5.788e-06
2.96593e-06
3.01464e-06
3.05828e-06
3.04359e-06
3.02616e-06
3.02047e-06
3.01888e-06
0.0118293
0.00018798
3.63531e-06
1.41444e-06
1.42139e-06
1.44615e-06
1.43392e-06
1.41999e-06
1.41787e-06
1.41599e-06
0.00884503
0.000149132
2.55494e-06
6.97534e-07
6.89499e-07
6.94554e-07
6.79726e-07
6.85353e-07
6.84566e-07
6.83402e-07
0.0067248
0.000119508
1.85917e-06
3.62347e-07
3.5031e-07
3.45602e-07
3.61164e-07
3.46798e-07
3.46588e-07
3.45982e-07
0.00514047
9.63549e-05
1.39991e-06
2.034e-07
1.91608e-07
1.96892e-07
1.93711e-07
1.89202e-07
1.89567e-07
1.89264e-07
0.00392679
7.72877e-05
1.08276e-06
1.26577e-07
1.1574e-07
1.17821e-07
1.21687e-07
1.14317e-07
1.15755e-07
1.15588e-07
0.00298712
6.04307e-05
8.43079e-07
8.83323e-08
8.22028e-08
8.27246e-08
8.31867e-08
8.12139e-08
8.03343e-08
8.01411e-08
0.00225705
4.65256e-05
6.76626e-07
6.82195e-08
6.38938e-08
6.48505e-08
6.41134e-08
6.36181e-08
6.26248e-08
6.22384e-08
0.00169111
3.63868e-05
5.34534e-07
5.78461e-08
5.38288e-08
5.41789e-08
5.39822e-08
5.3776e-08
5.30219e-08
5.34001e-08
0.0012553
2.75125e-05
4.1912e-07
5.09084e-08
4.78258e-08
4.84374e-08
4.79255e-08
4.78541e-08
4.77212e-08
4.79588e-08
0.000922741
2.05062e-05
3.27131e-07
4.57795e-08
4.36327e-08
4.40425e-08
4.36439e-08
4.36982e-08
4.3824e-08
4.38156e-08
0.000671479
1.50171e-05
2.54197e-07
4.16212e-08
4.01777e-08
4.04704e-08
4.04668e-08
4.0246e-08
4.03557e-08
4.03354e-08
0.000483606
1.10435e-05
1.97146e-07
3.82875e-08
3.73276e-08
3.75357e-08
3.75483e-08
3.73685e-08
3.74658e-08
3.74425e-08
0.0003449
8.06478e-06
1.52366e-07
3.48801e-08
3.42393e-08
3.43797e-08
3.43937e-08
3.42394e-08
3.43313e-08
3.43028e-08
0.000244295
5.89609e-06
1.207e-07
3.17694e-08
3.13443e-08
3.14257e-08
3.14385e-08
3.13002e-08
3.13883e-08
3.13565e-08
0.000164618
4.19466e-06
9.42239e-08
2.86682e-08
2.83739e-08
2.84057e-08
2.84164e-08
2.82875e-08
2.83734e-08
2.83383e-08
)
;

boundaryField
{
    fuel
    {
        type            fixedValue;
        value           uniform 0.1914;
    }
    wall
    {
        type            zeroGradient;
    }
    outlet
    {
        type            inletOutlet;
        inletValue      uniform 0;
        value           nonuniform List<scalar> 
26
(
0.18071
0.162566
0.144412
0.126884
0.110213
0.094202
0.077617
0.057528
0.0364493
0.0236347
0.0163195
0.0118293
0.00884503
0.0067248
0.00514047
0.00392679
0.00298712
0.00225705
0.00169111
0.0012553
0.000922741
0.000671479
0.000483606
0.0003449
0.000244295
0.000164618
)
;
    }
    frontAndBack
    {
        type            empty;
    }
    procBoundary2to0
    {
        type            processor;
        value           nonuniform List<scalar> 
12
(
3.13091e-08
0.000112327
2.94337e-06
7.4145e-08
2.55697e-08
2.53423e-08
2.53334e-08
2.53435e-08
2.52198e-08
2.53038e-08
2.82574e-08
2.52661e-08
)
;
    }
    procBoundary2to3
    {
        type            processor;
        value           nonuniform List<scalar> 
25
(
0.0325328
0.00802166
0.002405
0.000845813
0.000332235
0.000140415
6.22045e-05
2.84311e-05
1.32345e-05
6.32972e-06
6.32972e-06
3.03227e-06
1.49733e-06
7.30513e-07
3.66705e-07
1.9602e-07
1.2247e-07
8.27224e-08
6.46659e-08
5.39108e-08
4.81141e-08
4.36149e-08
4.0307e-08
3.72777e-08
3.43075e-08
)
;
    }
}


// ************************************************************************* //
