/*--------------------------------*- C++ -*----------------------------------*\
| =========                 |                                                 |
| \\      /  F ield         | OpenFOAM: The Open Source CFD Toolbox           |
|  \\    /   O peration     | Version:  dev                                   |
|   \\  /    A nd           | Web:      www.OpenFOAM.org                      |
|    \\/     M anipulation  |                                                 |
\*---------------------------------------------------------------------------*/
FoamFile
{
    version     2.0;
    format      ascii;
    class       volScalarField;
    location    "0.09";
    object      PC3H4;
}
// * * * * * * * * * * * * * * * * * * * * * * * * * * * * * * * * * * * * * //

dimensions      [0 0 0 0 0 0 0];

internalField   nonuniform List<scalar> 
1997
(
1.52218e-07
1.5238e-07
1.52483e-07
1.52552e-07
1.52575e-07
1.52595e-07
1.52593e-07
1.52594e-07
1.5259e-07
1.5259e-07
1.52588e-07
1.52588e-07
1.52587e-07
1.52588e-07
1.52587e-07
1.52588e-07
1.52587e-07
1.52588e-07
1.51555e-07
1.5171e-07
1.51808e-07
1.51875e-07
1.51899e-07
1.51917e-07
1.51916e-07
1.51918e-07
1.51914e-07
1.51914e-07
1.51912e-07
1.51912e-07
1.51911e-07
1.51912e-07
1.51911e-07
1.51912e-07
1.51912e-07
1.51913e-07
1.51912e-07
1.51913e-07
1.51913e-07
1.51913e-07
1.51913e-07
1.51913e-07
1.51913e-07
1.51913e-07
1.51913e-07
1.51913e-07
1.50924e-07
1.51072e-07
1.51165e-07
1.5123e-07
1.51254e-07
1.51272e-07
1.51271e-07
1.51273e-07
1.5127e-07
1.5127e-07
1.51268e-07
1.51268e-07
1.51267e-07
1.51268e-07
1.51268e-07
1.51269e-07
1.51268e-07
1.51269e-07
1.51269e-07
1.5127e-07
1.51269e-07
1.5127e-07
1.5127e-07
1.5127e-07
1.5127e-07
1.5127e-07
1.5127e-07
1.5127e-07
1.5127e-07
1.51269e-07
1.5127e-07
1.51269e-07
1.51269e-07
1.51268e-07
1.51269e-07
1.51268e-07
1.51268e-07
1.51267e-07
1.51268e-07
1.51268e-07
1.50323e-07
1.50465e-07
1.50553e-07
1.50615e-07
1.5064e-07
1.50657e-07
1.50657e-07
1.50659e-07
1.50656e-07
1.50656e-07
1.50654e-07
1.50655e-07
1.50654e-07
1.50655e-07
1.50655e-07
1.50656e-07
1.50655e-07
1.50656e-07
1.50656e-07
1.50657e-07
1.50657e-07
1.50657e-07
1.50657e-07
1.50657e-07
1.50657e-07
1.50657e-07
1.50657e-07
1.50657e-07
1.50657e-07
1.50657e-07
1.50657e-07
1.50656e-07
1.50656e-07
1.50655e-07
1.50656e-07
1.50655e-07
1.50655e-07
1.50654e-07
1.50655e-07
1.50654e-07
1.50656e-07
1.50656e-07
1.50658e-07
1.50657e-07
1.50657e-07
1.5064e-07
1.50615e-07
1.50552e-07
1.50465e-07
1.50323e-07
1.49751e-07
1.49886e-07
1.49969e-07
1.5003e-07
1.50055e-07
1.50071e-07
1.50072e-07
1.50074e-07
1.50071e-07
1.50072e-07
1.5007e-07
1.50071e-07
1.5007e-07
1.50071e-07
1.50071e-07
1.50072e-07
1.50072e-07
1.50073e-07
1.50072e-07
1.50073e-07
1.50073e-07
1.50073e-07
1.50073e-07
1.50073e-07
1.50073e-07
1.50073e-07
1.50073e-07
1.50073e-07
1.50073e-07
1.50073e-07
1.50073e-07
1.50072e-07
1.50073e-07
1.50072e-07
1.50072e-07
1.50071e-07
1.50071e-07
1.5007e-07
1.50071e-07
1.5007e-07
1.50072e-07
1.50071e-07
1.50073e-07
1.50072e-07
1.50071e-07
1.50055e-07
1.5003e-07
1.49969e-07
1.49886e-07
1.49751e-07
1.49197e-07
1.49327e-07
1.49406e-07
1.49465e-07
1.49488e-07
1.49503e-07
1.49504e-07
1.49505e-07
1.49503e-07
1.49504e-07
1.49502e-07
1.49503e-07
1.49502e-07
1.49503e-07
1.49503e-07
1.49504e-07
1.49504e-07
1.49505e-07
1.49504e-07
1.49505e-07
1.49505e-07
1.49505e-07
1.49505e-07
1.49505e-07
1.49505e-07
1.49505e-07
1.49505e-07
1.49505e-07
1.49505e-07
1.49505e-07
1.49505e-07
1.49504e-07
1.49505e-07
1.49504e-07
1.49504e-07
1.49503e-07
1.49503e-07
1.49502e-07
1.49503e-07
1.49502e-07
1.49504e-07
1.49503e-07
1.49505e-07
1.49504e-07
1.49503e-07
1.49488e-07
1.49465e-07
1.49406e-07
1.49327e-07
1.49197e-07
1.48678e-07
1.48802e-07
1.48876e-07
1.48932e-07
1.48956e-07
1.4897e-07
1.48971e-07
1.48973e-07
1.48971e-07
1.48972e-07
1.48971e-07
1.48971e-07
1.48971e-07
1.48972e-07
1.48971e-07
1.48972e-07
1.48972e-07
1.48973e-07
1.48973e-07
1.48974e-07
1.48974e-07
1.48974e-07
1.48974e-07
1.48974e-07
1.48974e-07
1.48974e-07
1.48974e-07
1.48974e-07
1.48974e-07
1.48974e-07
1.48974e-07
1.48973e-07
1.48973e-07
1.48972e-07
1.48972e-07
1.48971e-07
1.48972e-07
1.48971e-07
1.48971e-07
1.4897e-07
1.48972e-07
1.48971e-07
1.48973e-07
1.48971e-07
1.4897e-07
1.48956e-07
1.48932e-07
1.48876e-07
1.48802e-07
1.48678e-07
1.48182e-07
1.483e-07
1.4837e-07
1.48424e-07
1.48448e-07
1.48461e-07
1.48462e-07
1.48463e-07
1.48461e-07
1.48462e-07
1.4846e-07
1.48461e-07
1.4846e-07
1.48461e-07
1.48461e-07
1.48462e-07
1.48462e-07
1.48463e-07
1.48463e-07
1.48463e-07
1.48463e-07
1.48464e-07
1.48464e-07
1.48464e-07
1.48464e-07
1.48464e-07
1.48464e-07
1.48464e-07
1.48464e-07
1.48463e-07
1.48463e-07
1.48463e-07
1.48463e-07
1.48462e-07
1.48462e-07
1.48461e-07
1.48461e-07
1.4846e-07
1.48461e-07
1.4846e-07
1.48462e-07
1.48461e-07
1.48463e-07
1.48462e-07
1.48461e-07
1.48448e-07
1.48424e-07
1.4837e-07
1.483e-07
1.48182e-07
1.47708e-07
1.4782e-07
1.47886e-07
1.47938e-07
1.47962e-07
1.47973e-07
1.47975e-07
1.47976e-07
1.47975e-07
1.47975e-07
1.47974e-07
1.47975e-07
1.47974e-07
1.47975e-07
1.47975e-07
1.47976e-07
1.47976e-07
1.47977e-07
1.47976e-07
1.47977e-07
1.47977e-07
1.47977e-07
1.47977e-07
1.47977e-07
1.47977e-07
1.47977e-07
1.47977e-07
1.47977e-07
1.47977e-07
1.47977e-07
1.47977e-07
1.47976e-07
1.47977e-07
1.47976e-07
1.47976e-07
1.47975e-07
1.47975e-07
1.47974e-07
1.47975e-07
1.47974e-07
1.47975e-07
1.47975e-07
1.47976e-07
1.47975e-07
1.47973e-07
1.47962e-07
1.47938e-07
1.47886e-07
1.4782e-07
1.47708e-07
1.47247e-07
1.47354e-07
1.47417e-07
1.47466e-07
1.47488e-07
1.47499e-07
1.475e-07
1.47501e-07
1.47499e-07
1.475e-07
1.47498e-07
1.47499e-07
1.47499e-07
1.475e-07
1.47499e-07
1.475e-07
1.475e-07
1.47501e-07
1.47501e-07
1.47501e-07
1.47501e-07
1.47502e-07
1.47502e-07
1.47502e-07
1.47502e-07
1.47502e-07
1.47502e-07
1.47502e-07
1.47502e-07
1.47501e-07
1.47501e-07
1.47501e-07
1.47501e-07
1.475e-07
1.475e-07
1.47499e-07
1.475e-07
1.47499e-07
1.47499e-07
1.47498e-07
1.47499e-07
1.47499e-07
1.47501e-07
1.475e-07
1.47499e-07
1.47488e-07
1.47466e-07
1.47417e-07
1.47354e-07
1.47247e-07
1.46797e-07
1.46898e-07
1.46957e-07
1.47004e-07
1.47025e-07
1.47035e-07
1.47036e-07
1.47037e-07
1.47036e-07
1.47036e-07
1.47035e-07
1.47036e-07
1.47035e-07
1.47036e-07
1.47036e-07
1.47037e-07
1.47037e-07
1.47038e-07
1.47038e-07
1.47038e-07
1.47038e-07
1.47038e-07
1.47038e-07
1.47039e-07
1.47039e-07
1.47039e-07
1.47039e-07
1.47038e-07
1.47038e-07
1.47038e-07
1.47038e-07
1.47038e-07
1.47038e-07
1.47037e-07
1.47037e-07
1.47036e-07
1.47036e-07
1.47035e-07
1.47036e-07
1.47035e-07
1.47036e-07
1.47036e-07
1.47037e-07
1.47036e-07
1.47035e-07
1.47025e-07
1.47004e-07
1.46957e-07
1.46898e-07
1.46797e-07
1.46375e-07
1.4647e-07
1.46525e-07
1.4657e-07
1.4659e-07
1.46599e-07
1.466e-07
1.46601e-07
1.466e-07
1.466e-07
1.46599e-07
1.466e-07
1.46599e-07
1.466e-07
1.466e-07
1.46601e-07
1.46601e-07
1.46602e-07
1.46602e-07
1.46602e-07
1.46602e-07
1.46602e-07
1.46602e-07
1.46602e-07
1.46602e-07
1.46602e-07
1.46602e-07
1.46602e-07
1.46602e-07
1.46602e-07
1.46602e-07
1.46602e-07
1.46602e-07
1.46601e-07
1.46601e-07
1.466e-07
1.466e-07
1.46599e-07
1.466e-07
1.46599e-07
1.466e-07
1.466e-07
1.46601e-07
1.466e-07
1.46599e-07
1.4659e-07
1.4657e-07
1.46525e-07
1.4647e-07
1.46375e-07
1.45965e-07
1.46056e-07
1.46106e-07
1.46148e-07
1.46167e-07
1.46175e-07
1.46176e-07
1.46177e-07
1.46176e-07
1.46176e-07
1.46175e-07
1.46175e-07
1.46175e-07
1.46176e-07
1.46176e-07
1.46177e-07
1.46177e-07
1.46177e-07
1.46177e-07
1.46178e-07
1.46178e-07
1.46178e-07
1.46178e-07
1.46178e-07
1.46178e-07
1.46178e-07
1.46178e-07
1.46178e-07
1.46178e-07
1.46178e-07
1.46178e-07
1.46177e-07
1.46177e-07
1.46177e-07
1.46177e-07
1.46176e-07
1.46176e-07
1.46175e-07
1.46175e-07
1.46175e-07
1.46176e-07
1.46176e-07
1.46177e-07
1.46176e-07
1.46175e-07
1.46167e-07
1.46148e-07
1.46106e-07
1.46055e-07
1.45965e-07
1.45566e-07
1.45651e-07
1.45698e-07
1.45737e-07
1.45754e-07
1.45762e-07
1.45763e-07
1.45763e-07
1.45762e-07
1.45762e-07
1.45761e-07
1.45761e-07
1.45761e-07
1.45762e-07
1.45762e-07
1.45763e-07
1.45762e-07
1.45763e-07
1.45763e-07
1.45764e-07
1.45764e-07
1.45764e-07
1.45764e-07
1.45764e-07
1.45764e-07
1.45764e-07
1.45764e-07
1.45764e-07
1.45764e-07
1.45764e-07
1.45764e-07
1.45763e-07
1.45763e-07
1.45762e-07
1.45763e-07
1.45762e-07
1.45762e-07
1.45761e-07
1.45761e-07
1.45761e-07
1.45762e-07
1.45762e-07
1.45763e-07
1.45763e-07
1.45762e-07
1.45754e-07
1.45737e-07
1.45698e-07
1.45651e-07
1.45566e-07
1.45168e-07
1.45247e-07
1.45289e-07
1.45325e-07
1.4534e-07
1.45346e-07
1.45346e-07
1.45346e-07
1.45344e-07
1.45344e-07
1.45343e-07
1.45343e-07
1.45343e-07
1.45344e-07
1.45344e-07
1.45344e-07
1.45344e-07
1.45345e-07
1.45345e-07
1.45346e-07
1.45346e-07
1.45346e-07
1.45346e-07
1.45346e-07
1.45346e-07
1.45346e-07
1.45346e-07
1.45346e-07
1.45346e-07
1.45346e-07
1.45346e-07
1.45345e-07
1.45345e-07
1.45344e-07
1.45344e-07
1.45344e-07
1.45344e-07
1.45343e-07
1.45343e-07
1.45343e-07
1.45344e-07
1.45344e-07
1.45346e-07
1.45346e-07
1.45345e-07
1.4534e-07
1.45325e-07
1.45289e-07
1.45247e-07
1.45168e-07
1.44771e-07
1.44845e-07
1.44882e-07
1.44914e-07
1.44927e-07
1.44932e-07
1.44932e-07
1.44931e-07
1.4493e-07
1.44929e-07
1.44928e-07
1.44928e-07
1.44928e-07
1.44929e-07
1.44929e-07
1.44929e-07
1.44929e-07
1.4493e-07
1.4493e-07
1.44931e-07
1.44931e-07
1.44931e-07
1.44931e-07
1.44931e-07
1.44931e-07
1.44931e-07
1.44931e-07
1.44931e-07
1.44931e-07
1.44931e-07
1.44931e-07
1.4493e-07
1.4493e-07
1.44929e-07
1.44929e-07
1.44929e-07
1.44929e-07
1.44928e-07
1.44928e-07
1.44928e-07
1.44929e-07
1.4493e-07
1.44931e-07
1.44932e-07
1.44932e-07
1.44927e-07
1.44914e-07
1.44882e-07
1.44845e-07
1.44771e-07
1.44387e-07
1.44455e-07
1.44487e-07
1.44516e-07
1.44527e-07
1.4453e-07
1.4453e-07
1.44529e-07
1.44527e-07
1.44526e-07
1.44525e-07
1.44525e-07
1.44525e-07
1.44525e-07
1.44525e-07
1.44526e-07
1.44526e-07
1.44527e-07
1.44527e-07
1.44527e-07
1.44527e-07
1.44527e-07
1.44527e-07
1.44527e-07
1.44527e-07
1.44527e-07
1.44527e-07
1.44527e-07
1.44527e-07
1.44527e-07
1.44527e-07
1.44527e-07
1.44527e-07
1.44526e-07
1.44526e-07
1.44525e-07
1.44525e-07
1.44525e-07
1.44525e-07
1.44525e-07
1.44526e-07
1.44527e-07
1.44529e-07
1.4453e-07
1.4453e-07
1.44527e-07
1.44516e-07
1.44487e-07
1.44455e-07
1.44387e-07
1.43999e-07
1.44062e-07
1.44089e-07
1.44115e-07
1.44123e-07
1.44124e-07
1.44122e-07
1.4412e-07
1.44118e-07
1.44117e-07
1.44116e-07
1.44116e-07
1.44115e-07
1.44116e-07
1.44115e-07
1.44116e-07
1.44116e-07
1.44117e-07
1.44117e-07
1.44117e-07
1.44117e-07
1.44117e-07
1.44117e-07
1.44117e-07
1.44117e-07
1.44117e-07
1.44117e-07
1.44117e-07
1.44117e-07
1.44117e-07
1.44117e-07
1.44117e-07
1.44117e-07
1.44116e-07
1.44116e-07
1.44115e-07
1.44116e-07
1.44115e-07
1.44116e-07
1.44116e-07
1.44117e-07
1.44118e-07
1.4412e-07
1.44122e-07
1.44124e-07
1.44123e-07
1.44115e-07
1.44089e-07
1.44062e-07
1.43999e-07
1.4361e-07
1.43668e-07
1.4369e-07
1.43711e-07
1.43716e-07
1.43716e-07
1.43713e-07
1.43711e-07
1.43708e-07
1.43707e-07
1.43705e-07
1.43705e-07
1.43704e-07
1.43705e-07
1.43704e-07
1.43705e-07
1.43705e-07
1.43706e-07
1.43706e-07
1.43706e-07
1.43706e-07
1.43706e-07
1.43706e-07
1.43706e-07
1.43706e-07
1.43706e-07
1.43706e-07
1.43706e-07
1.43706e-07
1.43706e-07
1.43706e-07
1.43706e-07
1.43706e-07
1.43705e-07
1.43705e-07
1.43704e-07
1.43705e-07
1.43704e-07
1.43705e-07
1.43705e-07
1.43706e-07
1.43708e-07
1.4371e-07
1.43713e-07
1.43716e-07
1.43716e-07
1.43711e-07
1.43689e-07
1.43668e-07
1.4361e-07
1.43205e-07
1.43258e-07
1.43274e-07
1.43289e-07
1.43291e-07
1.43289e-07
1.43285e-07
1.43282e-07
1.43279e-07
1.43277e-07
1.43275e-07
1.43275e-07
1.43274e-07
1.43274e-07
1.43274e-07
1.43275e-07
1.43274e-07
1.43275e-07
1.43275e-07
1.43275e-07
1.43275e-07
1.43276e-07
1.43276e-07
1.43276e-07
1.43276e-07
1.43276e-07
1.43276e-07
1.43276e-07
1.43276e-07
1.43275e-07
1.43275e-07
1.43275e-07
1.43275e-07
1.43274e-07
1.43275e-07
1.43274e-07
1.43274e-07
1.43274e-07
1.43275e-07
1.43275e-07
1.43277e-07
1.43279e-07
1.43282e-07
1.43285e-07
1.43289e-07
1.43291e-07
1.43289e-07
1.43274e-07
1.43258e-07
1.43205e-07
1.42788e-07
1.42834e-07
1.42845e-07
1.42866e-07
1.42865e-07
1.42861e-07
1.42856e-07
1.42852e-07
1.42848e-07
1.42846e-07
1.42844e-07
1.42843e-07
1.42842e-07
1.42843e-07
1.42842e-07
1.42843e-07
1.42843e-07
1.42843e-07
1.42843e-07
1.42843e-07
1.42843e-07
1.42844e-07
1.42844e-07
1.42844e-07
1.42844e-07
1.42844e-07
1.42844e-07
1.42844e-07
1.42844e-07
1.42843e-07
1.42843e-07
1.42843e-07
1.42843e-07
1.42843e-07
1.42843e-07
1.42842e-07
1.42843e-07
1.42842e-07
1.42843e-07
1.42844e-07
1.42846e-07
1.42848e-07
1.42851e-07
1.42856e-07
1.42861e-07
1.42865e-07
1.42866e-07
1.42845e-07
1.42834e-07
1.42788e-07
1.42369e-07
1.42409e-07
1.42414e-07
1.42428e-07
1.42424e-07
1.42418e-07
1.42412e-07
1.42406e-07
1.42402e-07
1.424e-07
1.42397e-07
1.42397e-07
1.42396e-07
1.42396e-07
1.42395e-07
1.42396e-07
1.42395e-07
1.42396e-07
1.42396e-07
1.42396e-07
1.42396e-07
1.42396e-07
1.42396e-07
1.42396e-07
1.42396e-07
1.42396e-07
1.42396e-07
1.42396e-07
1.42396e-07
1.42396e-07
1.42396e-07
1.42396e-07
1.42396e-07
1.42395e-07
1.42396e-07
1.42395e-07
1.42396e-07
1.42396e-07
1.42397e-07
1.42397e-07
1.424e-07
1.42402e-07
1.42406e-07
1.42412e-07
1.42418e-07
1.42424e-07
1.42428e-07
1.42413e-07
1.42408e-07
1.42369e-07
1.41925e-07
1.41956e-07
1.41954e-07
1.41963e-07
1.41955e-07
1.41946e-07
1.41939e-07
1.41932e-07
1.41927e-07
1.41924e-07
1.41922e-07
1.41921e-07
1.41919e-07
1.41919e-07
1.41919e-07
1.41919e-07
1.41919e-07
1.41919e-07
1.41919e-07
1.41919e-07
1.41919e-07
1.4192e-07
1.4192e-07
1.4192e-07
1.4192e-07
1.4192e-07
1.4192e-07
1.4192e-07
1.4192e-07
1.41919e-07
1.41919e-07
1.41919e-07
1.41919e-07
1.41919e-07
1.41919e-07
1.41919e-07
1.41919e-07
1.41919e-07
1.41921e-07
1.41922e-07
1.41924e-07
1.41927e-07
1.41932e-07
1.41939e-07
1.41946e-07
1.41955e-07
1.41963e-07
1.41954e-07
1.41956e-07
1.41925e-07
1.41456e-07
1.41492e-07
1.41482e-07
1.41486e-07
1.41475e-07
1.41463e-07
1.41454e-07
1.41447e-07
1.41441e-07
1.41437e-07
1.41434e-07
1.41433e-07
1.41432e-07
1.41432e-07
1.41431e-07
1.41431e-07
1.41431e-07
1.41431e-07
1.41431e-07
1.41431e-07
1.41431e-07
1.41432e-07
1.41431e-07
1.41432e-07
1.41432e-07
1.41432e-07
1.41432e-07
1.41431e-07
1.41432e-07
1.41431e-07
1.41431e-07
1.41431e-07
1.41431e-07
1.41431e-07
1.41431e-07
1.41431e-07
1.41432e-07
1.41432e-07
1.41433e-07
1.41434e-07
1.41437e-07
1.41441e-07
1.41446e-07
1.41454e-07
1.41463e-07
1.41475e-07
1.41486e-07
1.41482e-07
1.41492e-07
1.41456e-07
1.40975e-07
1.41004e-07
1.40985e-07
1.40985e-07
1.40969e-07
1.40955e-07
1.40945e-07
1.40935e-07
1.40929e-07
1.40925e-07
1.40921e-07
1.40919e-07
1.40918e-07
1.40917e-07
1.40916e-07
1.40917e-07
1.40916e-07
1.40917e-07
1.40916e-07
1.40917e-07
1.40916e-07
1.40917e-07
1.40917e-07
1.40917e-07
1.40917e-07
1.40917e-07
1.40917e-07
1.40917e-07
1.40917e-07
1.40916e-07
1.40917e-07
1.40916e-07
1.40917e-07
1.40916e-07
1.40917e-07
1.40916e-07
1.40917e-07
1.40918e-07
1.40919e-07
1.40921e-07
1.40924e-07
1.40929e-07
1.40935e-07
1.40945e-07
1.40955e-07
1.40969e-07
1.40985e-07
1.40985e-07
1.41004e-07
1.40975e-07
1.40459e-07
1.4048e-07
1.4045e-07
1.40444e-07
1.40424e-07
1.40406e-07
1.40394e-07
1.40383e-07
1.40376e-07
1.4037e-07
1.40367e-07
1.40365e-07
1.40363e-07
1.40362e-07
1.40361e-07
1.40361e-07
1.40361e-07
1.40361e-07
1.40361e-07
1.40361e-07
1.40361e-07
1.40361e-07
1.40361e-07
1.40361e-07
1.40361e-07
1.40361e-07
1.40361e-07
1.40361e-07
1.40361e-07
1.40361e-07
1.40361e-07
1.40361e-07
1.40361e-07
1.40361e-07
1.40361e-07
1.40361e-07
1.40362e-07
1.40363e-07
1.40365e-07
1.40367e-07
1.4037e-07
1.40376e-07
1.40383e-07
1.40394e-07
1.40406e-07
1.40423e-07
1.40444e-07
1.4045e-07
1.40479e-07
1.40459e-07
1.39905e-07
1.39918e-07
1.39893e-07
1.39882e-07
1.39857e-07
1.39836e-07
1.39822e-07
1.3981e-07
1.39802e-07
1.39796e-07
1.39792e-07
1.3979e-07
1.39787e-07
1.39787e-07
1.39786e-07
1.39786e-07
1.39785e-07
1.39785e-07
1.39785e-07
1.39785e-07
1.39785e-07
1.39785e-07
1.39785e-07
1.39785e-07
1.39785e-07
1.39785e-07
1.39785e-07
1.39785e-07
1.39785e-07
1.39785e-07
1.39785e-07
1.39785e-07
1.39785e-07
1.39785e-07
1.39786e-07
1.39786e-07
1.39787e-07
1.39787e-07
1.3979e-07
1.39792e-07
1.39796e-07
1.39802e-07
1.3981e-07
1.39822e-07
1.39836e-07
1.39857e-07
1.39881e-07
1.39893e-07
1.39918e-07
1.39905e-07
1.39331e-07
1.39336e-07
1.39297e-07
1.39278e-07
1.39246e-07
1.39221e-07
1.39205e-07
1.39191e-07
1.39182e-07
1.39175e-07
1.3917e-07
1.39167e-07
1.39165e-07
1.39164e-07
1.39162e-07
1.39163e-07
1.39162e-07
1.39162e-07
1.39161e-07
1.39162e-07
1.39161e-07
1.39162e-07
1.39162e-07
1.39162e-07
1.39162e-07
1.39162e-07
1.39162e-07
1.39162e-07
1.39162e-07
1.39161e-07
1.39162e-07
1.39161e-07
1.39162e-07
1.39162e-07
1.39162e-07
1.39162e-07
1.39164e-07
1.39165e-07
1.39167e-07
1.3917e-07
1.39175e-07
1.39182e-07
1.39191e-07
1.39205e-07
1.39221e-07
1.39246e-07
1.39278e-07
1.39297e-07
1.39336e-07
1.39331e-07
1.38704e-07
1.38715e-07
1.38664e-07
1.3864e-07
1.38603e-07
1.38575e-07
1.38557e-07
1.38541e-07
1.38531e-07
1.38523e-07
1.38518e-07
1.38515e-07
1.38512e-07
1.38511e-07
1.3851e-07
1.3851e-07
1.38509e-07
1.38509e-07
1.38508e-07
1.38509e-07
1.38508e-07
1.38509e-07
1.38508e-07
1.38509e-07
1.38509e-07
1.38509e-07
1.38509e-07
1.38508e-07
1.38509e-07
1.38508e-07
1.38509e-07
1.38508e-07
1.38509e-07
1.38509e-07
1.3851e-07
1.3851e-07
1.38511e-07
1.38512e-07
1.38515e-07
1.38518e-07
1.38523e-07
1.38531e-07
1.38541e-07
1.38557e-07
1.38574e-07
1.38603e-07
1.3864e-07
1.38664e-07
1.38715e-07
1.38704e-07
1.38049e-07
1.38051e-07
1.37989e-07
1.37959e-07
1.37916e-07
1.37882e-07
1.37861e-07
1.37843e-07
1.37832e-07
1.37823e-07
1.37817e-07
1.37813e-07
1.3781e-07
1.37809e-07
1.37807e-07
1.37807e-07
1.37806e-07
1.37806e-07
1.37805e-07
1.37806e-07
1.37805e-07
1.37806e-07
1.37805e-07
1.37805e-07
1.37805e-07
1.37805e-07
1.37805e-07
1.37805e-07
1.37806e-07
1.37805e-07
1.37806e-07
1.37805e-07
1.37806e-07
1.37806e-07
1.37807e-07
1.37807e-07
1.37809e-07
1.3781e-07
1.37813e-07
1.37817e-07
1.37823e-07
1.37832e-07
1.37843e-07
1.37861e-07
1.37881e-07
1.37916e-07
1.37959e-07
1.37989e-07
1.38051e-07
1.38049e-07
1.37335e-07
1.37328e-07
1.37268e-07
1.37232e-07
1.37182e-07
1.37144e-07
1.37122e-07
1.37102e-07
1.3709e-07
1.3708e-07
1.37073e-07
1.3707e-07
1.37066e-07
1.37065e-07
1.37063e-07
1.37062e-07
1.37061e-07
1.37061e-07
1.37061e-07
1.37061e-07
1.37061e-07
1.37061e-07
1.37061e-07
1.37061e-07
1.37061e-07
1.37061e-07
1.37061e-07
1.37061e-07
1.37061e-07
1.37061e-07
1.37061e-07
1.37061e-07
1.37061e-07
1.37061e-07
1.37062e-07
1.37063e-07
1.37065e-07
1.37066e-07
1.3707e-07
1.37073e-07
1.3708e-07
1.3709e-07
1.37102e-07
1.37122e-07
1.37144e-07
1.37182e-07
1.37232e-07
1.37267e-07
1.37328e-07
1.37335e-07
1.36583e-07
1.3657e-07
1.36493e-07
1.3645e-07
1.36389e-07
1.36345e-07
1.36321e-07
1.36298e-07
1.36285e-07
1.36274e-07
1.36266e-07
1.36262e-07
1.36258e-07
1.36257e-07
1.36254e-07
1.36254e-07
1.36252e-07
1.36253e-07
1.36252e-07
1.36252e-07
1.36252e-07
1.36252e-07
1.36252e-07
1.36252e-07
1.36252e-07
1.36252e-07
1.36252e-07
1.36252e-07
1.36252e-07
1.36252e-07
1.36252e-07
1.36252e-07
1.36253e-07
1.36252e-07
1.36254e-07
1.36254e-07
1.36257e-07
1.36258e-07
1.36262e-07
1.36266e-07
1.36273e-07
1.36285e-07
1.36298e-07
1.36321e-07
1.36345e-07
1.36389e-07
1.36449e-07
1.36493e-07
1.36569e-07
1.36583e-07
1.35761e-07
1.35738e-07
1.35648e-07
1.35598e-07
1.3555e-07
1.35502e-07
1.35475e-07
1.3545e-07
1.35436e-07
1.35424e-07
1.35416e-07
1.35411e-07
1.35407e-07
1.35405e-07
1.35403e-07
1.35402e-07
1.35401e-07
1.35401e-07
1.354e-07
1.354e-07
1.354e-07
1.354e-07
1.354e-07
1.354e-07
1.354e-07
1.354e-07
1.354e-07
1.354e-07
1.354e-07
1.354e-07
1.354e-07
1.354e-07
1.35401e-07
1.35401e-07
1.35402e-07
1.35403e-07
1.35405e-07
1.35407e-07
1.35411e-07
1.35416e-07
1.35424e-07
1.35436e-07
1.3545e-07
1.35475e-07
1.35501e-07
1.3555e-07
1.35598e-07
1.35647e-07
1.35738e-07
1.35761e-07
1.34898e-07
1.34868e-07
1.34763e-07
1.34707e-07
1.34652e-07
1.34599e-07
1.34571e-07
1.34543e-07
1.34528e-07
1.34515e-07
1.34507e-07
1.34502e-07
1.34497e-07
1.34495e-07
1.34492e-07
1.34492e-07
1.3449e-07
1.3449e-07
1.34489e-07
1.3449e-07
1.34489e-07
1.34489e-07
1.34489e-07
1.34489e-07
1.34489e-07
1.34489e-07
1.34489e-07
1.34489e-07
1.34489e-07
1.34489e-07
1.3449e-07
1.34489e-07
1.3449e-07
1.3449e-07
1.34492e-07
1.34492e-07
1.34495e-07
1.34497e-07
1.34502e-07
1.34507e-07
1.34515e-07
1.34528e-07
1.34543e-07
1.34571e-07
1.34599e-07
1.34652e-07
1.34707e-07
1.34763e-07
1.34868e-07
1.34898e-07
1.33961e-07
1.33921e-07
1.33816e-07
1.33753e-07
1.33692e-07
1.33634e-07
1.33604e-07
1.33574e-07
1.33558e-07
1.33544e-07
1.33535e-07
1.3353e-07
1.33525e-07
1.33523e-07
1.3352e-07
1.33519e-07
1.33517e-07
1.33517e-07
1.33516e-07
1.33517e-07
1.33516e-07
1.33516e-07
1.33516e-07
1.33516e-07
1.33516e-07
1.33516e-07
1.33516e-07
1.33516e-07
1.33516e-07
1.33516e-07
1.33517e-07
1.33516e-07
1.33517e-07
1.33517e-07
1.33519e-07
1.3352e-07
1.33523e-07
1.33525e-07
1.3353e-07
1.33535e-07
1.33544e-07
1.33558e-07
1.33574e-07
1.33604e-07
1.33634e-07
1.33692e-07
1.33753e-07
1.33815e-07
1.33921e-07
1.33961e-07
1.32971e-07
1.32923e-07
1.32803e-07
1.32733e-07
1.32667e-07
1.32603e-07
1.32571e-07
1.32538e-07
1.3252e-07
1.32504e-07
1.32494e-07
1.32487e-07
1.32482e-07
1.32479e-07
1.32476e-07
1.32475e-07
1.32473e-07
1.32473e-07
1.32472e-07
1.32472e-07
1.32472e-07
1.32472e-07
1.32472e-07
1.32472e-07
1.32472e-07
1.32472e-07
1.32472e-07
1.32472e-07
1.32472e-07
1.32472e-07
1.32472e-07
1.32472e-07
1.32473e-07
1.32473e-07
1.32475e-07
1.32476e-07
1.32479e-07
1.32482e-07
1.32487e-07
1.32494e-07
1.32504e-07
1.3252e-07
1.32538e-07
1.32571e-07
1.32603e-07
1.32667e-07
1.32733e-07
1.32803e-07
1.32923e-07
1.32971e-07
1.31912e-07
1.31855e-07
1.31721e-07
1.31644e-07
1.31572e-07
1.31503e-07
1.31469e-07
1.31433e-07
1.31414e-07
1.31397e-07
1.31386e-07
1.31379e-07
1.31373e-07
1.31371e-07
1.31367e-07
1.31367e-07
1.31364e-07
1.31365e-07
1.31363e-07
1.31364e-07
1.31363e-07
1.31363e-07
1.31363e-07
1.31363e-07
1.31363e-07
1.31363e-07
1.31363e-07
1.31363e-07
1.31363e-07
1.31363e-07
1.31364e-07
1.31363e-07
1.31365e-07
1.31364e-07
1.31367e-07
1.31367e-07
1.31371e-07
1.31373e-07
1.31379e-07
1.31386e-07
1.31397e-07
1.31414e-07
1.31433e-07
1.31469e-07
1.31503e-07
1.31572e-07
1.31644e-07
1.31721e-07
1.31854e-07
1.31912e-07
1.30781e-07
1.30714e-07
1.30567e-07
1.30481e-07
1.30404e-07
1.3033e-07
1.30293e-07
1.30256e-07
1.30235e-07
1.30217e-07
1.30206e-07
1.30198e-07
1.30192e-07
1.30189e-07
1.30185e-07
1.30185e-07
1.30182e-07
1.30183e-07
1.30181e-07
1.30181e-07
1.30181e-07
1.30181e-07
1.3018e-07
1.30181e-07
1.30181e-07
1.30181e-07
1.30181e-07
1.3018e-07
1.30181e-07
1.30181e-07
1.30181e-07
1.30181e-07
1.30182e-07
1.30182e-07
1.30185e-07
1.30185e-07
1.30189e-07
1.30192e-07
1.30198e-07
1.30206e-07
1.30217e-07
1.30235e-07
1.30256e-07
1.30293e-07
1.3033e-07
1.30404e-07
1.30481e-07
1.30567e-07
1.30714e-07
1.30781e-07
1.29574e-07
1.29497e-07
1.29336e-07
1.29242e-07
1.29159e-07
1.29081e-07
1.29042e-07
1.29002e-07
1.2898e-07
1.28961e-07
1.28949e-07
1.28941e-07
1.28934e-07
1.28931e-07
1.28927e-07
1.28926e-07
1.28924e-07
1.28924e-07
1.28922e-07
1.28923e-07
1.28922e-07
1.28922e-07
1.28922e-07
1.28922e-07
1.28922e-07
1.28922e-07
1.28922e-07
1.28922e-07
1.28922e-07
1.28922e-07
1.28923e-07
1.28922e-07
1.28924e-07
1.28924e-07
1.28926e-07
1.28927e-07
1.28931e-07
1.28934e-07
1.28941e-07
1.28949e-07
1.28961e-07
1.2898e-07
1.29001e-07
1.29041e-07
1.29081e-07
1.29159e-07
1.29242e-07
1.29335e-07
1.29497e-07
1.29574e-07
1.28286e-07
1.28195e-07
1.28025e-07
1.27923e-07
1.27835e-07
1.27752e-07
1.2771e-07
1.27668e-07
1.27645e-07
1.27625e-07
1.27612e-07
1.27604e-07
1.27596e-07
1.27594e-07
1.27589e-07
1.27588e-07
1.27586e-07
1.27586e-07
1.27584e-07
1.27584e-07
1.27584e-07
1.27584e-07
1.27583e-07
1.27584e-07
1.27583e-07
1.27583e-07
1.27584e-07
1.27583e-07
1.27584e-07
1.27584e-07
1.27584e-07
1.27584e-07
1.27586e-07
1.27586e-07
1.27588e-07
1.27589e-07
1.27594e-07
1.27596e-07
1.27604e-07
1.27612e-07
1.27625e-07
1.27645e-07
1.27668e-07
1.2771e-07
1.27752e-07
1.27835e-07
1.27923e-07
1.28024e-07
1.28195e-07
1.28285e-07
1.26917e-07
1.26817e-07
1.26631e-07
1.26521e-07
1.26428e-07
1.2634e-07
1.26296e-07
1.26251e-07
1.26228e-07
1.26206e-07
1.26193e-07
1.26184e-07
1.26176e-07
1.26173e-07
1.26169e-07
1.26168e-07
1.26165e-07
1.26165e-07
1.26163e-07
1.26164e-07
1.26163e-07
1.26163e-07
1.26163e-07
1.26163e-07
1.26163e-07
1.26163e-07
1.26163e-07
1.26163e-07
1.26163e-07
1.26163e-07
1.26164e-07
1.26163e-07
1.26165e-07
1.26165e-07
1.26168e-07
1.26169e-07
1.26173e-07
1.26176e-07
1.26184e-07
1.26193e-07
1.26206e-07
1.26228e-07
1.26251e-07
1.26296e-07
1.2634e-07
1.26428e-07
1.26521e-07
1.2663e-07
1.26816e-07
1.26916e-07
1.25463e-07
1.25353e-07
1.25151e-07
1.25034e-07
1.24936e-07
1.24843e-07
1.24797e-07
1.2475e-07
1.24725e-07
1.24702e-07
1.24689e-07
)
;

boundaryField
{
    fuel
    {
        type            fixedValue;
        value           nonuniform 0();
    }
    wall
    {
        type            zeroGradient;
    }
    outlet
    {
        type            zeroGradient;
    }
    frontAndBack
    {
        type            empty;
    }
    procBoundary2to0
    {
        type            processor;
        value           nonuniform List<scalar> 
53
(
1.52913e-07
1.53082e-07
1.53192e-07
1.53262e-07
1.53285e-07
1.53306e-07
1.53304e-07
1.53305e-07
1.533e-07
1.533e-07
1.53297e-07
1.53297e-07
1.53296e-07
1.53297e-07
1.53296e-07
1.53297e-07
1.53296e-07
1.53297e-07
1.52588e-07
1.52588e-07
1.52589e-07
1.52588e-07
1.52589e-07
1.52589e-07
1.52589e-07
1.52589e-07
1.52589e-07
1.52589e-07
1.52589e-07
1.51913e-07
1.51913e-07
1.51913e-07
1.51913e-07
1.51912e-07
1.51913e-07
1.51912e-07
1.51912e-07
1.51911e-07
1.51912e-07
1.51911e-07
1.51912e-07
1.51912e-07
1.5127e-07
1.5127e-07
1.5127e-07
1.51273e-07
1.51271e-07
1.51272e-07
1.51254e-07
1.5123e-07
1.51165e-07
1.51072e-07
1.50924e-07
)
;
    }
    procBoundary2to3
    {
        type            processor;
        value           nonuniform List<scalar> 
51
(
1.24679e-07
1.24671e-07
1.24668e-07
1.24663e-07
1.24662e-07
1.24659e-07
1.24659e-07
1.24658e-07
1.24658e-07
1.24657e-07
1.24657e-07
1.24657e-07
1.24657e-07
1.24657e-07
1.24657e-07
1.24657e-07
1.24657e-07
1.24657e-07
1.24657e-07
1.24658e-07
1.24658e-07
1.24659e-07
1.24659e-07
1.24662e-07
1.24663e-07
1.24668e-07
1.24671e-07
1.24679e-07
1.24689e-07
1.24702e-07
1.24725e-07
1.2475e-07
1.24797e-07
1.24843e-07
1.24936e-07
1.25033e-07
1.25151e-07
1.25352e-07
1.25462e-07
1.23921e-07
1.23801e-07
1.23583e-07
1.23459e-07
1.23356e-07
1.23259e-07
1.23211e-07
1.23161e-07
1.23136e-07
1.23112e-07
1.24679e-07
1.23098e-07
)
;
    }
}


// ************************************************************************* //
