/*--------------------------------*- C++ -*----------------------------------*\
| =========                 |                                                 |
| \\      /  F ield         | OpenFOAM: The Open Source CFD Toolbox           |
|  \\    /   O peration     | Version:  dev                                   |
|   \\  /    A nd           | Web:      www.OpenFOAM.org                      |
|    \\/     M anipulation  |                                                 |
\*---------------------------------------------------------------------------*/
FoamFile
{
    version     2.0;
    format      ascii;
    class       volScalarField;
    location    "0.11";
    object      A1-;
}
// * * * * * * * * * * * * * * * * * * * * * * * * * * * * * * * * * * * * * //

dimensions      [0 0 0 0 0 0 0];

internalField   nonuniform List<scalar> 
250
(
2.492e-05
2.49149e-05
2.49271e-05
2.49093e-05
2.49105e-05
2.49223e-05
2.49225e-05
2.49382e-05
2.51619e-05
2.62661e-05
9.58517e-08
2.17157e-05
2.17123e-05
2.17151e-05
2.17153e-05
2.1715e-05
2.17197e-05
2.17258e-05
2.17916e-05
2.22573e-05
2.53008e-05
7.64977e-08
1.47181e-05
1.47152e-05
1.47207e-05
1.47212e-05
1.47204e-05
1.4724e-05
1.47289e-05
1.48025e-05
1.52949e-05
1.88312e-05
4.81482e-08
9.35987e-06
9.35929e-06
9.36614e-06
9.36593e-06
9.3653e-06
9.36802e-06
9.37129e-06
9.43438e-06
9.87493e-06
1.33347e-05
3.25668e-08
6.00582e-06
6.00685e-06
6.01231e-06
6.01162e-06
6.01141e-06
6.01302e-06
6.01466e-06
6.05812e-06
6.42942e-06
9.63912e-06
2.43712e-08
3.92189e-06
3.91857e-06
3.92018e-06
3.91681e-06
3.91853e-06
3.92037e-06
3.92669e-06
4.00057e-06
4.36391e-06
7.2825e-06
2.01356e-08
2.74109e-06
2.73911e-06
2.7374e-06
2.73364e-06
2.73619e-06
2.73716e-06
2.74343e-06
2.80731e-06
3.13288e-06
5.75368e-06
1.91073e-08
2.01777e-06
2.01878e-06
2.01614e-06
2.01155e-06
2.01514e-06
2.01568e-06
2.02274e-06
2.08381e-06
2.35088e-06
4.71121e-06
2.39103e-08
1.56053e-06
1.56306e-06
1.56012e-06
1.55856e-06
1.56015e-06
1.55968e-06
1.56202e-06
1.5946e-06
1.81286e-06
3.95706e-06
5.22946e-08
1.22645e-06
1.22808e-06
1.22599e-06
1.22401e-06
1.226e-06
1.22566e-06
1.2285e-06
1.25907e-06
1.49704e-06
3.38186e-06
1.18537e-07
1.02732e-06
1.02607e-06
1.02361e-06
1.02596e-06
1.0258e-06
1.02886e-06
1.05733e-06
1.25931e-06
2.92453e-06
2.18464e-07
8.6914e-07
8.685e-07
8.65459e-07
8.683e-07
8.68405e-07
8.71632e-07
9.02735e-07
1.08072e-06
2.55131e-06
3.42754e-07
7.54088e-07
7.53821e-07
7.49809e-07
7.53608e-07
7.53927e-07
7.57227e-07
7.86661e-07
9.61905e-07
2.24269e-06
4.66614e-07
6.67198e-07
6.67127e-07
6.61398e-07
6.67008e-07
6.67457e-07
6.70772e-07
6.98757e-07
8.64066e-07
1.98559e-06
5.8643e-07
5.99151e-07
5.99173e-07
5.99958e-07
5.99281e-07
5.99735e-07
6.03029e-07
6.29669e-07
7.79102e-07
1.7704e-06
7.03031e-07
5.44059e-07
5.44048e-07
5.44002e-07
5.44465e-07
5.44919e-07
5.48172e-07
5.73514e-07
7.16432e-07
1.58951e-06
8.11205e-07
4.98162e-07
4.97915e-07
4.96485e-07
4.9883e-07
4.99281e-07
5.02479e-07
5.26443e-07
6.61649e-07
1.4291e-06
8.99743e-07
4.59023e-07
4.57878e-07
4.58725e-07
4.5999e-07
4.6041e-07
4.63544e-07
4.85919e-07
6.09456e-07
1.27767e-06
9.57172e-07
4.25043e-07
4.25603e-07
4.273e-07
4.26364e-07
4.26727e-07
4.29788e-07
4.50216e-07
5.63306e-07
1.1445e-06
9.77881e-07
3.95122e-07
3.94755e-07
3.97226e-07
3.96838e-07
3.97166e-07
4.00155e-07
4.22163e-07
5.2208e-07
1.0261e-06
9.64039e-07
3.68471e-07
3.70851e-07
3.70826e-07
3.70675e-07
3.70982e-07
3.73883e-07
3.95299e-07
4.84949e-07
9.27382e-07
9.23824e-07
3.47289e-07
3.47336e-07
3.4734e-07
3.47311e-07
3.47609e-07
3.50397e-07
3.70059e-07
4.51294e-07
8.41717e-07
8.67463e-07
3.28654e-07
3.28695e-07
3.28685e-07
3.28729e-07
3.29019e-07
3.31685e-07
3.49738e-07
4.20722e-07
7.52835e-07
8.04248e-07
3.11054e-07
3.11109e-07
3.11065e-07
3.11186e-07
3.11501e-07
3.14059e-07
3.31602e-07
3.9292e-07
6.81391e-07
7.41252e-07
)
;

boundaryField
{
    fuel
    {
        type            fixedValue;
        value           uniform 0;
    }
    wall
    {
        type            zeroGradient;
    }
    outlet
    {
        type            zeroGradient;
    }
    frontAndBack
    {
        type            empty;
    }
    procBoundary3to0
    {
        type            processor;
        value           nonuniform List<scalar> 10(2.96446e-07 2.96488e-07 2.96425e-07 2.96578e-07 2.96896e-07 2.99312e-07 3.14001e-07 3.67448e-07 6.16598e-07 6.82651e-07);
    }
    procBoundary3to2
    {
        type            processor;
        value           nonuniform List<scalar> 
25
(
2.49222e-05
2.17172e-05
1.47192e-05
9.36149e-06
6.00786e-06
3.92081e-06
2.74019e-06
2.01772e-06
1.56157e-06
1.22779e-06
1.02691e-06
1.02691e-06
8.69824e-07
7.55432e-07
6.68696e-07
6.00447e-07
5.45033e-07
4.98861e-07
4.59567e-07
4.25559e-07
3.95744e-07
3.69354e-07
3.45801e-07
3.27026e-07
3.10456e-07
)
;
    }
}


// ************************************************************************* //
