/*--------------------------------*- C++ -*----------------------------------*\
| =========                 |                                                 |
| \\      /  F ield         | OpenFOAM: The Open Source CFD Toolbox           |
|  \\    /   O peration     | Version:  dev                                   |
|   \\  /    A nd           | Web:      www.OpenFOAM.org                      |
|    \\/     M anipulation  |                                                 |
\*---------------------------------------------------------------------------*/
FoamFile
{
    version     2.0;
    format      ascii;
    class       volScalarField;
    location    "0.11";
    object      A2C2HA*;
}
// * * * * * * * * * * * * * * * * * * * * * * * * * * * * * * * * * * * * * //

dimensions      [0 0 0 0 0 0 0];

internalField   nonuniform List<scalar> 
50
(
1.19396e-21
1.10558e-21
1.02182e-21
9.40888e-22
8.66297e-22
7.95628e-22
7.2941e-22
6.6666e-22
6.06192e-22
5.51421e-22
4.98237e-22
4.48365e-22
4.03188e-22
3.60824e-22
3.21286e-22
2.84523e-22
2.50482e-22
2.19187e-22
1.89606e-22
1.63506e-22
1.3979e-22
1.18441e-22
9.9192e-23
8.23754e-23
6.76366e-23
5.48367e-23
4.38593e-23
3.4586e-23
2.67146e-23
2.02165e-23
1.52016e-23
1.12081e-23
8.09694e-24
5.73205e-24
3.93781e-24
2.67349e-24
1.77521e-24
1.15333e-24
7.33309e-25
4.56093e-25
2.77473e-25
1.64661e-25
9.46416e-26
5.2002e-26
2.67698e-26
1.25744e-26
5.24399e-27
1.92103e-27
6.47618e-28
2.00597e-28
)
;

boundaryField
{
    wall
    {
        type            zeroGradient;
    }
    fuel
    {
        type            fixedValue;
        value           nonuniform 0();
    }
    outlet
    {
        type            inletOutlet;
        inletValue      uniform 0;
        value           uniform 2.00597e-28;
    }
    procBoundary3to2
    {
        type            processor;
        value           uniform 1.289e-21;
    }
}


// ************************************************************************* //
