/*--------------------------------*- C++ -*----------------------------------*\
| =========                 |                                                 |
| \\      /  F ield         | OpenFOAM: The Open Source CFD Toolbox           |
|  \\    /   O peration     | Version:  dev                                   |
|   \\  /    A nd           | Web:      www.OpenFOAM.org                      |
|    \\/     M anipulation  |                                                 |
\*---------------------------------------------------------------------------*/
FoamFile
{
    version     2.0;
    format      ascii;
    class       volScalarField;
    location    "0.11";
    object      A2C2HB*;
}
// * * * * * * * * * * * * * * * * * * * * * * * * * * * * * * * * * * * * * //

dimensions      [0 0 0 0 0 0 0];

internalField   nonuniform List<scalar> 
250
(
1.58974e-09
1.5902e-09
1.59001e-09
1.58946e-09
1.59044e-09
1.59083e-09
1.59143e-09
1.59622e-09
1.64205e-09
2.06848e-09
3.27417e-12
1.09892e-09
1.0992e-09
1.09911e-09
1.09856e-09
1.09923e-09
1.09907e-09
1.10061e-09
1.10669e-09
1.16979e-09
2.1251e-09
1.67723e-12
5.71082e-10
5.71411e-10
5.713e-10
5.70922e-10
5.71354e-10
5.71166e-10
5.72668e-10
5.77333e-10
6.2345e-10
1.38021e-09
7.98247e-13
2.9467e-10
2.95044e-10
2.95017e-10
2.94627e-10
2.94896e-10
2.94926e-10
2.96191e-10
2.99605e-10
3.29775e-10
8.16333e-10
4.48471e-13
1.62837e-10
1.63191e-10
1.63766e-10
1.62842e-10
1.62994e-10
1.63388e-10
1.64639e-10
1.67112e-10
1.86893e-10
4.81921e-10
2.76175e-13
9.82374e-11
9.82988e-11
9.7642e-11
9.82604e-11
9.83138e-11
9.80421e-11
9.81558e-11
1.00922e-10
1.14763e-10
2.94637e-10
1.81788e-13
6.43306e-11
6.43504e-11
6.41918e-11
6.43584e-11
6.43494e-11
6.42855e-11
6.45102e-11
6.69356e-11
7.69177e-11
1.89993e-10
1.30594e-13
4.50251e-11
4.50704e-11
4.49942e-11
4.50408e-11
4.50071e-11
4.50767e-11
4.53217e-11
4.769e-11
5.52153e-11
1.30645e-10
1.09109e-13
3.31107e-11
3.31418e-11
3.31217e-11
3.31542e-11
3.31239e-11
3.31762e-11
3.34088e-11
3.53145e-11
4.09961e-11
9.16485e-11
1.14514e-13
2.53705e-11
2.54009e-11
2.53907e-11
2.53898e-11
2.53826e-11
2.5438e-11
2.56625e-11
2.65627e-11
3.09944e-11
6.55113e-11
1.91456e-13
1.98354e-11
1.9845e-11
1.9796e-11
1.98461e-11
1.98796e-11
2.02005e-11
2.12626e-11
2.48645e-11
4.84344e-11
3.39891e-13
1.55899e-11
1.5616e-11
1.55289e-11
1.56426e-11
1.56333e-11
1.59513e-11
1.69633e-11
2.01946e-11
3.83794e-11
6.29973e-13
1.24786e-11
1.25173e-11
1.23874e-11
1.25773e-11
1.2522e-11
1.2835e-11
1.37527e-11
1.65724e-11
3.1059e-11
1.11293e-12
1.01462e-11
1.01923e-11
1.0007e-11
1.02806e-11
1.01899e-11
1.04952e-11
1.13099e-11
1.38298e-11
2.56418e-11
1.8524e-12
8.36549e-12
8.41447e-12
8.39486e-12
8.52022e-12
8.40936e-12
8.70464e-12
9.41642e-12
1.17102e-11
2.16034e-11
2.92342e-12
6.98516e-12
7.03139e-12
6.99113e-12
7.14461e-12
7.02909e-12
7.31189e-12
7.92695e-12
1.0041e-11
1.84732e-11
4.40633e-12
5.90081e-12
5.93847e-12
5.88078e-12
6.05579e-12
5.94486e-12
6.21297e-12
6.74157e-12
8.70219e-12
1.6182e-11
6.36237e-12
5.03826e-12
5.05971e-12
5.09768e-12
5.18553e-12
5.08279e-12
5.33427e-12
5.78701e-12
7.60743e-12
1.44691e-11
8.79421e-12
4.34314e-12
4.42887e-12
4.39685e-12
4.48179e-12
4.38909e-12
4.62242e-12
5.00869e-12
6.6912e-12
1.3156e-11
1.16262e-11
3.77317e-12
3.86996e-12
3.82683e-12
3.90603e-12
3.82368e-12
4.03786e-12
4.36569e-12
5.99928e-12
1.21241e-11
1.47059e-11
3.35299e-12
3.39551e-12
3.35611e-12
3.42832e-12
3.35616e-12
3.5506e-12
3.82877e-12
5.37687e-12
1.12906e-11
1.78232e-11
2.96067e-12
2.99587e-12
2.96032e-12
3.02483e-12
2.96262e-12
3.13708e-12
3.40503e-12
4.79905e-12
1.05099e-11
2.0741e-11
2.66214e-12
2.69215e-12
2.6591e-12
2.71779e-12
2.66333e-12
2.82085e-12
3.06315e-12
4.34162e-12
9.77612e-12
2.32349e-11
2.3841e-12
2.41125e-12
2.3794e-12
2.43512e-12
2.38531e-12
2.53206e-12
2.74311e-12
3.92781e-12
9.09614e-12
2.51217e-11
)
;

boundaryField
{
    fuel
    {
        type            fixedValue;
        value           uniform 0;
    }
    wall
    {
        type            zeroGradient;
    }
    outlet
    {
        type            zeroGradient;
    }
    frontAndBack
    {
        type            empty;
    }
    procBoundary3to0
    {
        type            processor;
        value           nonuniform List<scalar> 10(2.16098e-12 2.18469e-12 2.15514e-12 2.20551e-12 2.16202e-12 2.29363e-12 2.4801e-12 3.52654e-12 8.51087e-12 2.62547e-11);
    }
    procBoundary3to2
    {
        type            processor;
        value           nonuniform List<scalar> 
25
(
1.59049e-09
1.09911e-09
5.71262e-10
2.9484e-10
1.62975e-10
9.83396e-11
6.44035e-11
4.50783e-11
3.31503e-11
2.54012e-11
1.98151e-11
1.98151e-11
1.55828e-11
1.24829e-11
1.01591e-11
8.38437e-12
7.00783e-12
5.9257e-12
5.06427e-12
4.36975e-12
3.80181e-12
3.32854e-12
2.97187e-12
2.67011e-12
2.39601e-12
)
;
    }
}


// ************************************************************************* //
