/*--------------------------------*- C++ -*----------------------------------*\
| =========                 |                                                 |
| \\      /  F ield         | OpenFOAM: The Open Source CFD Toolbox           |
|  \\    /   O peration     | Version:  dev                                   |
|   \\  /    A nd           | Web:      www.OpenFOAM.org                      |
|    \\/     M anipulation  |                                                 |
\*---------------------------------------------------------------------------*/
FoamFile
{
    version     2.0;
    format      ascii;
    class       volScalarField;
    location    "0.11";
    object      A2C2HA;
}
// * * * * * * * * * * * * * * * * * * * * * * * * * * * * * * * * * * * * * //

dimensions      [0 0 0 0 0 0 0];

internalField   nonuniform List<scalar> 
250
(
3.2869e-08
3.28655e-08
3.28645e-08
3.28693e-08
3.2864e-08
3.28761e-08
3.29066e-08
3.31063e-08
3.45664e-08
4.50287e-08
1.23653e-09
2.04729e-08
2.04692e-08
2.04727e-08
2.04768e-08
2.04726e-08
2.04807e-08
2.05086e-08
2.07067e-08
2.21731e-08
3.38299e-08
2.61697e-09
1.20954e-08
1.20912e-08
1.20981e-08
1.21006e-08
1.20967e-08
1.21032e-08
1.21252e-08
1.22981e-08
1.35682e-08
2.43064e-08
3.45911e-09
7.78337e-09
7.78036e-09
7.78919e-09
7.78986e-09
7.78658e-09
7.79228e-09
7.81059e-09
7.96232e-09
9.08817e-09
1.90424e-08
3.97982e-09
5.4429e-09
5.44144e-09
5.44927e-09
5.44854e-09
5.44625e-09
5.451e-09
5.46681e-09
5.59926e-09
6.62431e-09
1.60717e-08
4.33957e-09
3.97416e-09
3.97089e-09
3.97485e-09
3.97123e-09
3.97129e-09
3.97583e-09
3.99401e-09
4.14521e-09
5.13235e-09
1.42481e-08
4.61866e-09
3.06304e-09
3.06184e-09
3.06228e-09
3.05758e-09
3.05922e-09
3.06269e-09
3.0802e-09
3.2222e-09
4.15558e-09
1.30219e-08
4.84563e-09
2.43594e-09
2.43766e-09
2.43669e-09
2.43074e-09
2.43401e-09
2.43675e-09
2.45431e-09
2.59172e-09
3.44799e-09
1.21157e-08
5.01034e-09
1.99068e-09
1.99372e-09
1.99195e-09
1.98883e-09
1.99051e-09
1.99193e-09
2.00389e-09
2.10856e-09
2.88691e-09
1.1377e-08
5.05967e-09
1.62747e-09
1.62922e-09
1.6279e-09
1.6242e-09
1.62663e-09
1.6279e-09
1.63946e-09
1.73704e-09
2.5144e-09
1.07173e-08
4.89035e-09
1.39085e-09
1.39017e-09
1.38582e-09
1.38894e-09
1.3902e-09
1.40131e-09
1.49255e-09
2.19969e-09
1.0084e-08
4.61603e-09
1.18776e-09
1.18755e-09
1.18232e-09
1.1864e-09
1.18775e-09
1.1984e-09
1.28956e-09
1.9376e-09
9.44925e-09
4.54341e-09
1.03044e-09
1.03051e-09
1.02384e-09
1.02952e-09
1.03093e-09
1.04109e-09
1.12658e-09
1.7479e-09
8.80191e-09
4.84331e-09
9.05685e-10
9.0587e-10
8.96729e-10
9.0517e-10
9.06564e-10
9.16224e-10
9.96412e-10
1.57917e-09
8.14017e-09
5.49968e-09
8.04439e-10
8.04655e-10
8.0549e-10
8.04409e-10
8.05635e-10
8.14804e-10
8.89903e-10
1.42242e-09
7.46949e-09
6.40334e-09
7.20517e-10
7.20612e-10
7.20332e-10
7.20908e-10
7.22001e-10
7.30693e-10
8.00856e-10
1.30066e-09
6.79991e-09
7.40275e-09
6.49689e-10
6.49374e-10
6.47024e-10
6.50481e-10
6.51466e-10
6.59699e-10
7.24885e-10
1.18959e-09
6.11157e-09
8.3338e-09
5.89045e-10
5.87298e-10
5.88523e-10
5.90289e-10
5.9115e-10
5.98942e-10
6.58914e-10
1.08019e-09
5.38141e-09
9.05128e-09
5.36552e-10
5.37416e-10
5.40025e-10
5.38337e-10
5.3905e-10
5.46423e-10
6.0073e-10
9.81413e-10
4.68642e-09
9.45734e-09
4.90732e-10
4.90119e-10
4.9398e-10
4.93128e-10
4.9374e-10
5.0073e-10
5.55342e-10
8.92275e-10
4.04127e-09
9.51302e-09
4.50476e-10
4.54049e-10
4.54121e-10
4.53632e-10
4.54176e-10
4.60788e-10
5.12349e-10
8.12047e-10
3.49589e-09
9.23504e-09
4.19183e-10
4.19234e-10
4.19358e-10
4.19054e-10
4.19558e-10
4.25788e-10
4.72596e-10
7.39961e-10
3.02747e-09
8.67777e-09
3.92476e-10
3.92484e-10
3.92601e-10
3.92403e-10
3.92875e-10
3.98761e-10
4.41424e-10
6.75512e-10
2.55677e-09
7.91905e-09
3.6831e-10
3.68303e-10
3.68389e-10
3.68287e-10
3.68773e-10
3.74357e-10
4.1463e-10
6.18522e-10
2.19559e-09
7.04663e-09
)
;

boundaryField
{
    fuel
    {
        type            fixedValue;
        value           uniform 0;
    }
    wall
    {
        type            zeroGradient;
    }
    outlet
    {
        type            zeroGradient;
    }
    frontAndBack
    {
        type            empty;
    }
    procBoundary3to0
    {
        type            processor;
        value           nonuniform List<scalar> 10(3.49679e-10 3.49613e-10 3.49693e-10 3.49604e-10 3.50076e-10 3.55348e-10 3.90048e-10 5.68438e-10 1.88636e-09 6.14061e-09);
    }
    procBoundary3to2
    {
        type            processor;
        value           nonuniform List<scalar> 
25
(
3.28752e-08
2.0477e-08
1.20977e-08
7.7853e-09
5.44493e-09
3.97419e-09
3.06323e-09
2.43678e-09
1.99258e-09
1.62974e-09
1.39064e-09
1.39064e-09
1.18898e-09
1.03254e-09
9.07961e-10
8.064e-10
7.22001e-10
6.50778e-10
5.8992e-10
5.37409e-10
4.91783e-10
4.51964e-10
4.17126e-10
3.9022e-10
3.67531e-10
)
;
    }
}


// ************************************************************************* //
