/*--------------------------------*- C++ -*----------------------------------*\
| =========                 |                                                 |
| \\      /  F ield         | OpenFOAM: The Open Source CFD Toolbox           |
|  \\    /   O peration     | Version:  dev                                   |
|   \\  /    A nd           | Web:      www.OpenFOAM.org                      |
|    \\/     M anipulation  |                                                 |
\*---------------------------------------------------------------------------*/
FoamFile
{
    version     2.0;
    format      ascii;
    class       volScalarField;
    location    "0.11";
    object      CH;
}
// * * * * * * * * * * * * * * * * * * * * * * * * * * * * * * * * * * * * * //

dimensions      [0 0 0 0 0 0 0];

internalField   nonuniform List<scalar> 
50
(
1.92136e-14
1.91493e-14
1.90525e-14
1.89145e-14
1.87378e-14
1.85165e-14
1.82523e-14
1.79414e-14
1.75758e-14
1.71771e-14
1.67167e-14
1.62077e-14
1.56699e-14
1.5087e-14
1.44624e-14
1.37987e-14
1.30991e-14
1.23691e-14
1.15871e-14
1.08074e-14
1.00101e-14
9.20531e-15
8.39421e-15
7.60583e-15
6.8421e-15
6.11546e-15
5.44143e-15
4.83745e-15
4.31043e-15
3.88921e-15
3.61327e-15
3.48963e-15
3.55342e-15
3.84917e-15
4.45507e-15
5.42002e-15
6.85319e-15
8.84355e-15
1.14503e-14
1.46581e-14
1.83233e-14
2.21536e-14
2.57001e-14
2.84023e-14
2.96822e-14
2.90618e-14
2.62507e-14
2.11493e-14
1.38592e-14
5.37762e-15
)
;

boundaryField
{
    wall
    {
        type            zeroGradient;
    }
    fuel
    {
        type            fixedValue;
        value           nonuniform 0();
    }
    outlet
    {
        type            inletOutlet;
        inletValue      uniform 0;
        value           uniform 5.37762e-15;
    }
    procBoundary3to2
    {
        type            processor;
        value           uniform 1.92576e-14;
    }
}


// ************************************************************************* //
