/*--------------------------------*- C++ -*----------------------------------*\
| =========                 |                                                 |
| \\      /  F ield         | OpenFOAM: The Open Source CFD Toolbox           |
|  \\    /   O peration     | Version:  dev                                   |
|   \\  /    A nd           | Web:      www.OpenFOAM.org                      |
|    \\/     M anipulation  |                                                 |
\*---------------------------------------------------------------------------*/
FoamFile
{
    version     2.0;
    format      ascii;
    class       volScalarField;
    location    "0.11";
    object      CH2(S);
}
// * * * * * * * * * * * * * * * * * * * * * * * * * * * * * * * * * * * * * //

dimensions      [0 0 0 0 0 0 0];

internalField   nonuniform List<scalar> 
250
(
2.26233e-06
2.26225e-06
2.26298e-06
2.26241e-06
2.26275e-06
2.26144e-06
2.26189e-06
2.26029e-06
2.24078e-06
1.89579e-06
4.19052e-10
1.32868e-06
1.32886e-06
1.32883e-06
1.3288e-06
1.32894e-06
1.32846e-06
1.32897e-06
1.32781e-06
1.3165e-06
1.14177e-06
3.92569e-10
6.53081e-07
6.53337e-07
6.53169e-07
6.53252e-07
6.53316e-07
6.53046e-07
6.53561e-07
6.52762e-07
6.44232e-07
5.38086e-07
2.32691e-10
3.23707e-07
3.23979e-07
3.23909e-07
3.23871e-07
3.23883e-07
3.23872e-07
3.24299e-07
3.23805e-07
3.16941e-07
2.47599e-07
1.22523e-10
1.77683e-07
1.77934e-07
1.78489e-07
1.77811e-07
1.77797e-07
1.78132e-07
1.7873e-07
1.78229e-07
1.72324e-07
1.21297e-07
6.68863e-11
1.12189e-07
1.12205e-07
1.11522e-07
1.12281e-07
1.12253e-07
1.11943e-07
1.11607e-07
1.11853e-07
1.06892e-07
6.62559e-08
4.4364e-11
8.11428e-08
8.11265e-08
8.09705e-08
8.12054e-08
8.11755e-08
8.1048e-08
8.09349e-08
8.10686e-08
7.63935e-08
4.13234e-08
4.13965e-11
6.5344e-08
6.53547e-08
6.53022e-08
6.53762e-08
6.53605e-08
6.53488e-08
6.53168e-08
6.54811e-08
6.09706e-08
2.96293e-08
4.56316e-11
5.66521e-08
5.66615e-08
5.66602e-08
5.66888e-08
5.67014e-08
5.66803e-08
5.66909e-08
5.65951e-08
5.21468e-08
2.34563e-08
4.6782e-11
5.15458e-08
5.156e-08
5.15725e-08
5.15556e-08
5.16071e-08
5.15833e-08
5.16312e-08
5.09751e-08
4.66967e-08
2.03378e-08
6.15291e-11
4.81281e-08
4.81613e-08
4.80944e-08
4.82077e-08
4.81601e-08
4.83026e-08
4.77798e-08
4.36344e-08
1.90824e-08
9.59527e-11
4.55269e-08
4.5581e-08
4.54688e-08
4.56541e-08
4.55659e-08
4.57467e-08
4.52212e-08
4.13902e-08
1.89149e-08
1.78076e-10
4.34808e-08
4.35553e-08
4.33925e-08
4.36649e-08
4.35299e-08
4.37501e-08
4.31936e-08
3.9599e-08
1.92872e-08
3.59838e-10
4.1716e-08
4.18096e-08
4.15836e-08
4.1958e-08
4.17776e-08
4.20386e-08
4.14458e-08
3.80968e-08
1.99666e-08
7.36262e-10
4.00846e-08
4.01955e-08
4.01079e-08
4.03809e-08
4.01604e-08
4.04638e-08
3.98342e-08
3.67313e-08
2.07788e-08
1.43835e-09
3.85037e-08
3.86276e-08
3.8507e-08
3.88479e-08
3.85949e-08
3.89421e-08
3.82783e-08
3.54146e-08
2.16051e-08
2.60782e-09
3.69243e-08
3.70541e-08
3.69003e-08
3.73122e-08
3.70315e-08
3.74234e-08
3.67285e-08
3.40945e-08
2.22811e-08
4.3356e-09
3.53142e-08
3.54368e-08
3.54557e-08
3.57448e-08
3.54382e-08
3.58752e-08
3.51529e-08
3.27348e-08
2.27369e-08
6.57535e-09
3.36485e-08
3.3956e-08
3.37971e-08
3.41212e-08
3.37916e-08
3.42734e-08
3.35269e-08
3.13051e-08
2.29287e-08
9.09581e-09
3.19008e-08
3.22828e-08
3.20675e-08
3.24224e-08
3.20726e-08
3.2598e-08
3.18294e-08
2.99641e-08
2.28416e-08
1.15342e-08
3.02669e-08
3.04781e-08
3.0247e-08
3.06303e-08
3.0263e-08
3.08304e-08
3.00517e-08
2.84828e-08
2.24828e-08
1.35269e-08
2.83449e-08
2.85625e-08
2.83154e-08
2.87238e-08
2.83424e-08
2.8949e-08
2.83048e-08
2.68145e-08
2.18031e-08
1.48313e-08
2.65268e-08
2.67537e-08
2.64874e-08
2.69224e-08
2.65271e-08
2.71694e-08
2.65671e-08
2.52351e-08
2.08285e-08
1.53768e-08
2.44453e-08
2.46976e-08
2.43994e-08
2.4886e-08
2.44532e-08
2.51818e-08
2.45877e-08
2.35467e-08
1.9639e-08
1.52429e-08
)
;

boundaryField
{
    fuel
    {
        type            fixedValue;
        value           uniform 0;
    }
    wall
    {
        type            zeroGradient;
    }
    outlet
    {
        type            zeroGradient;
    }
    frontAndBack
    {
        type            empty;
    }
    procBoundary3to0
    {
        type            processor;
        value           nonuniform List<scalar> 10(2.24239e-08 2.26897e-08 2.23718e-08 2.28837e-08 2.24372e-08 2.32004e-08 2.26362e-08 2.16328e-08 1.84498e-08 1.45661e-08);
    }
    procBoundary3to2
    {
        type            processor;
        value           nonuniform List<scalar> 
25
(
2.26163e-06
1.32876e-06
6.53303e-07
3.23908e-07
1.77831e-07
1.12292e-07
8.12137e-08
6.53942e-08
5.66891e-08
5.15756e-08
4.8121e-08
4.8121e-08
4.55308e-08
4.34965e-08
4.17438e-08
4.01243e-08
3.85548e-08
3.6986e-08
3.53851e-08
3.37278e-08
3.19925e-08
3.01537e-08
2.84135e-08
2.65861e-08
2.45483e-08
)
;
    }
}


// ************************************************************************* //
