/*--------------------------------*- C++ -*----------------------------------*\
| =========                 |                                                 |
| \\      /  F ield         | OpenFOAM: The Open Source CFD Toolbox           |
|  \\    /   O peration     | Version:  dev                                   |
|   \\  /    A nd           | Web:      www.OpenFOAM.org                      |
|    \\/     M anipulation  |                                                 |
\*---------------------------------------------------------------------------*/
FoamFile
{
    version     2.0;
    format      ascii;
    class       volScalarField;
    location    "0.11";
    object      CH2CO;
}
// * * * * * * * * * * * * * * * * * * * * * * * * * * * * * * * * * * * * * //

dimensions      [0 0 0 0 0 0 0];

internalField   nonuniform List<scalar> 
250
(
0.000359541
0.000359543
0.000359418
0.00035937
0.000359397
0.000359558
0.000359722
0.000360387
0.000368786
0.000440444
4.01796e-05
0.000194922
0.00019491
0.000194906
0.000194892
0.00019489
0.000194946
0.000194998
0.000195409
0.000198779
0.000225189
0.000101729
0.000126324
0.000126306
0.000126333
0.000126322
0.000126318
0.000126348
0.000126372
0.0001267
0.000128716
0.000144695
0.000160544
9.13229e-05
9.13085e-05
9.13446e-05
9.13299e-05
9.13285e-05
9.13514e-05
9.13667e-05
9.16523e-05
9.32446e-05
0.00010868
0.000215674
7.06051e-05
7.05971e-05
7.06281e-05
7.06101e-05
7.06125e-05
7.06295e-05
7.0638e-05
7.08481e-05
7.22085e-05
8.98195e-05
0.000269285
5.69701e-05
5.69456e-05
5.6961e-05
5.69243e-05
5.69403e-05
5.696e-05
5.70009e-05
5.74394e-05
5.89483e-05
7.88365e-05
0.000328252
4.86168e-05
4.85985e-05
4.85957e-05
4.85533e-05
4.85769e-05
4.8592e-05
4.8636e-05
4.90388e-05
5.04547e-05
7.16761e-05
0.000403414
4.31545e-05
4.31581e-05
4.31485e-05
4.30959e-05
4.31301e-05
4.31434e-05
4.31972e-05
4.36091e-05
4.47191e-05
6.64171e-05
0.000514104
3.94918e-05
3.95096e-05
3.94959e-05
3.94635e-05
3.94854e-05
3.94914e-05
3.95104e-05
3.97208e-05
4.05484e-05
6.21759e-05
0.000704483
3.66091e-05
3.66206e-05
3.66119e-05
3.65702e-05
3.66015e-05
3.66093e-05
3.66354e-05
3.6854e-05
3.79391e-05
5.85007e-05
0.000978207
3.47063e-05
3.47034e-05
3.46514e-05
3.46932e-05
3.47027e-05
3.47332e-05
3.49554e-05
3.5791e-05
5.49623e-05
0.00119518
3.29721e-05
3.29733e-05
3.29066e-05
3.29646e-05
3.29764e-05
3.3011e-05
3.32937e-05
3.39755e-05
5.1217e-05
0.00120312
3.14898e-05
3.14931e-05
3.14049e-05
3.14877e-05
3.15012e-05
3.15392e-05
3.18339e-05
3.26054e-05
4.72582e-05
0.00102077
3.01668e-05
3.0171e-05
3.00499e-05
3.0171e-05
3.01852e-05
3.0226e-05
3.05326e-05
3.13152e-05
4.33461e-05
0.000777619
2.89521e-05
2.89564e-05
2.89567e-05
2.89647e-05
2.89778e-05
2.9021e-05
2.93379e-05
3.00411e-05
3.97358e-05
0.000557725
2.7817e-05
2.78192e-05
2.78047e-05
2.7838e-05
2.78504e-05
2.78959e-05
2.82205e-05
2.89972e-05
3.65725e-05
0.000388194
2.67443e-05
2.67395e-05
2.66928e-05
2.67746e-05
2.67866e-05
2.68342e-05
2.71615e-05
2.79955e-05
3.37805e-05
0.000267887
2.5723e-05
2.56923e-05
2.57103e-05
2.57646e-05
2.57758e-05
2.58253e-05
2.61473e-05
2.69582e-05
3.1237e-05
0.000186298
2.47451e-05
2.47642e-05
2.48156e-05
2.48006e-05
2.48104e-05
2.48616e-05
2.51666e-05
2.59728e-05
2.91008e-05
0.000132073
2.38026e-05
2.37953e-05
2.38759e-05
2.38746e-05
2.38838e-05
2.3937e-05
2.43329e-05
2.50334e-05
2.72957e-05
9.60698e-05
2.28877e-05
2.29818e-05
2.29753e-05
2.29802e-05
2.29894e-05
2.30441e-05
2.34667e-05
2.4131e-05
2.58527e-05
7.18788e-05
2.21006e-05
2.21069e-05
2.21012e-05
2.21098e-05
2.21195e-05
2.21751e-05
2.25833e-05
2.32588e-05
2.46569e-05
5.53286e-05
2.13467e-05
2.13537e-05
2.13474e-05
2.13589e-05
2.1369e-05
2.14246e-05
2.18171e-05
2.24119e-05
2.34617e-05
4.38066e-05
2.05631e-05
2.0572e-05
2.05639e-05
2.05793e-05
2.05916e-05
2.06483e-05
2.10753e-05
2.15824e-05
2.25096e-05
3.5684e-05
)
;

boundaryField
{
    fuel
    {
        type            fixedValue;
        value           uniform 0;
    }
    wall
    {
        type            zeroGradient;
    }
    outlet
    {
        type            zeroGradient;
    }
    frontAndBack
    {
        type            empty;
    }
    procBoundary3to0
    {
        type            processor;
        value           nonuniform List<scalar> 10(1.98494e-05 1.98589e-05 1.98495e-05 1.98673e-05 1.98806e-05 1.99365e-05 2.02835e-05 2.07588e-05 2.16399e-05 2.9956e-05);
    }
    procBoundary3to2
    {
        type            processor;
        value           nonuniform List<scalar> 
25
(
0.000359568
0.000194934
0.000126332
9.13317e-05
7.06161e-05
5.69671e-05
4.86149e-05
4.31614e-05
3.95114e-05
3.66347e-05
3.47055e-05
3.47055e-05
3.29825e-05
3.15088e-05
3.01889e-05
2.89723e-05
2.78331e-05
2.67572e-05
2.57348e-05
2.47585e-05
2.38213e-05
2.29161e-05
2.20348e-05
2.12721e-05
2.05352e-05
)
;
    }
}


// ************************************************************************* //
