/*--------------------------------*- C++ -*----------------------------------*\
| =========                 |                                                 |
| \\      /  F ield         | OpenFOAM: The Open Source CFD Toolbox           |
|  \\    /   O peration     | Version:  dev                                   |
|   \\  /    A nd           | Web:      www.OpenFOAM.org                      |
|    \\/     M anipulation  |                                                 |
\*---------------------------------------------------------------------------*/
FoamFile
{
    version     2.0;
    format      ascii;
    class       volScalarField;
    location    "0.11";
    object      H2C4O;
}
// * * * * * * * * * * * * * * * * * * * * * * * * * * * * * * * * * * * * * //

dimensions      [0 0 0 0 0 0 0];

internalField   nonuniform List<scalar> 
250
(
1.26196e-05
1.26197e-05
1.26219e-05
1.26191e-05
1.26214e-05
1.26189e-05
1.2622e-05
1.26331e-05
1.27274e-05
1.35283e-05
1.57164e-06
9.39807e-06
9.39943e-06
9.3996e-06
9.39756e-06
9.39951e-06
9.3982e-06
9.4055e-06
9.42159e-06
9.55042e-06
1.08388e-05
2.94499e-06
7.13837e-06
7.14076e-06
7.14067e-06
7.1378e-06
7.14036e-06
7.13938e-06
7.15058e-06
7.17195e-06
7.31048e-06
8.47455e-06
3.30874e-06
5.86508e-06
5.86863e-06
5.86928e-06
5.86433e-06
5.86755e-06
5.8679e-06
5.88321e-06
5.91067e-06
6.05385e-06
6.98007e-06
3.09731e-06
5.0839e-06
5.08809e-06
5.09385e-06
5.08296e-06
5.08645e-06
5.08981e-06
5.11059e-06
5.14446e-06
5.29103e-06
5.9926e-06
2.66535e-06
4.53891e-06
4.54041e-06
4.53569e-06
4.53776e-06
4.54093e-06
4.53786e-06
4.55314e-06
4.60424e-06
4.75925e-06
5.30082e-06
2.19781e-06
4.11696e-06
4.11826e-06
4.11798e-06
4.11544e-06
4.11839e-06
4.11787e-06
4.13799e-06
4.20021e-06
4.36e-06
4.7986e-06
1.79479e-06
3.76776e-06
3.76951e-06
3.76997e-06
3.76536e-06
3.7687e-06
3.77013e-06
3.7946e-06
3.87081e-06
4.03527e-06
4.42636e-06
1.48471e-06
3.46656e-06
3.46764e-06
3.4698e-06
3.4641e-06
3.46885e-06
3.46918e-06
3.49714e-06
3.57345e-06
3.73982e-06
4.10152e-06
1.24071e-06
3.2048e-06
3.20557e-06
3.20855e-06
3.20048e-06
3.20802e-06
3.20762e-06
3.23902e-06
3.28831e-06
3.46072e-06
3.81057e-06
1.0412e-06
2.96115e-06
2.9655e-06
2.95366e-06
2.96671e-06
2.96417e-06
3.00395e-06
3.06719e-06
3.24304e-06
3.56303e-06
9.26782e-07
2.7252e-06
2.73087e-06
2.71508e-06
2.73553e-06
2.72897e-06
2.77268e-06
2.84081e-06
3.03515e-06
3.37783e-06
9.66701e-07
2.51245e-06
2.51928e-06
2.49888e-06
2.52835e-06
2.51709e-06
2.56404e-06
2.63316e-06
2.83579e-06
3.2087e-06
1.14375e-06
2.32055e-06
2.32825e-06
2.30222e-06
2.34145e-06
2.32609e-06
2.37554e-06
2.44345e-06
2.65279e-06
3.05295e-06
1.37879e-06
2.14745e-06
2.15569e-06
2.14657e-06
2.17213e-06
2.15389e-06
2.20507e-06
2.27015e-06
2.48422e-06
2.90778e-06
1.6103e-06
1.99136e-06
1.99956e-06
1.98882e-06
2.01832e-06
1.99867e-06
2.05077e-06
2.11197e-06
2.32846e-06
2.7658e-06
1.81142e-06
1.85068e-06
1.8581e-06
1.84588e-06
1.87886e-06
1.8588e-06
1.91102e-06
1.96781e-06
2.184e-06
2.63537e-06
1.9757e-06
1.72394e-06
1.72951e-06
1.73258e-06
1.75275e-06
1.73278e-06
1.78434e-06
1.83641e-06
2.04947e-06
2.51229e-06
2.10395e-06
1.60966e-06
1.62704e-06
1.61886e-06
1.6386e-06
1.61921e-06
1.66936e-06
1.71647e-06
1.92333e-06
2.39471e-06
2.19873e-06
1.5062e-06
1.52667e-06
1.51633e-06
1.53522e-06
1.51677e-06
1.56483e-06
1.6068e-06
1.8189e-06
2.28254e-06
2.26254e-06
1.42348e-06
1.43341e-06
1.42365e-06
1.44138e-06
1.42417e-06
1.46954e-06
1.50679e-06
1.71691e-06
2.17613e-06
2.29746e-06
1.34011e-06
1.3486e-06
1.33949e-06
1.3558e-06
1.34011e-06
1.38231e-06
1.4222e-06
1.61544e-06
2.06305e-06
2.30505e-06
1.27291e-06
1.28031e-06
1.27164e-06
1.28681e-06
1.27246e-06
1.31171e-06
1.3498e-06
1.53116e-06
1.94832e-06
2.28733e-06
1.20698e-06
1.21381e-06
1.20526e-06
1.21997e-06
1.20633e-06
1.24398e-06
1.27853e-06
1.45206e-06
1.83934e-06
2.2468e-06
)
;

boundaryField
{
    fuel
    {
        type            fixedValue;
        value           uniform 0;
    }
    wall
    {
        type            zeroGradient;
    }
    outlet
    {
        type            zeroGradient;
    }
    frontAndBack
    {
        type            empty;
    }
    procBoundary3to0
    {
        type            processor;
        value           nonuniform List<scalar> 10(1.15207e-06 1.15813e-06 1.15002e-06 1.16361e-06 1.15127e-06 1.186e-06 1.21778e-06 1.37312e-06 1.74766e-06 2.18566e-06);
    }
    procBoundary3to2
    {
        type            processor;
        value           nonuniform List<scalar> 
25
(
1.26184e-05
9.39857e-06
7.13947e-06
5.86642e-06
5.08532e-06
4.54029e-06
4.1183e-06
3.76907e-06
3.46785e-06
3.20601e-06
2.9611e-06
2.9611e-06
2.72608e-06
2.5143e-06
2.32332e-06
2.15108e-06
1.99577e-06
1.85575e-06
1.72947e-06
1.61548e-06
1.51236e-06
1.41855e-06
1.34285e-06
1.27498e-06
1.21012e-06
)
;
    }
}


// ************************************************************************* //
