/*--------------------------------*- C++ -*----------------------------------*\
| =========                 |                                                 |
| \\      /  F ield         | OpenFOAM: The Open Source CFD Toolbox           |
|  \\    /   O peration     | Version:  dev                                   |
|   \\  /    A nd           | Web:      www.OpenFOAM.org                      |
|    \\/     M anipulation  |                                                 |
\*---------------------------------------------------------------------------*/
FoamFile
{
    version     2.0;
    format      ascii;
    class       volScalarField;
    location    "0.11";
    object      H2O;
}
// * * * * * * * * * * * * * * * * * * * * * * * * * * * * * * * * * * * * * //

dimensions      [0 0 0 0 0 0 0];

internalField   nonuniform List<scalar> 
250
(
0.0599685
0.059968
0.0599695
0.0599692
0.059969
0.0599688
0.0599685
0.0599703
0.0599621
0.0597514
0.00371727
0.0672414
0.0672407
0.067242
0.067242
0.0672418
0.0672422
0.0672439
0.0672556
0.0673214
0.0675489
0.00998298
0.0676258
0.0676244
0.0676276
0.067627
0.0676264
0.0676279
0.0676301
0.0676513
0.0677646
0.0681941
0.0162376
0.0669624
0.0669612
0.066966
0.0669645
0.066964
0.0669662
0.0669692
0.0669983
0.0671465
0.0676544
0.0222452
0.0662439
0.0662436
0.0662485
0.0662458
0.0662459
0.0662483
0.0662525
0.0662881
0.0664632
0.0669916
0.0278684
0.0655764
0.0655754
0.065578
0.0655729
0.0655747
0.0655776
0.0655854
0.0656462
0.0658626
0.0663858
0.0330221
0.0650262
0.0650274
0.0650279
0.0650209
0.0650244
0.0650273
0.0650372
0.0651085
0.0653496
0.0658556
0.0376801
0.0645447
0.0645487
0.0645483
0.0645391
0.0645446
0.0645475
0.0645599
0.0646433
0.0648838
0.0653901
0.0418861
0.0641173
0.0641222
0.0641212
0.0641136
0.0641183
0.0641205
0.0641292
0.0641953
0.0644281
0.0649762
0.0457596
0.0636801
0.063683
0.0636825
0.0636726
0.0636794
0.063682
0.0636924
0.0637654
0.0640645
0.0646036
0.0493602
0.06333
0.0633302
0.0633176
0.0633271
0.0633301
0.0633417
0.0634196
0.0636968
0.064263
0.0525151
0.0629595
0.0629603
0.0629436
0.0629574
0.0629609
0.0629737
0.0630692
0.0633353
0.0639473
0.0550623
0.062611
0.062612
0.0625895
0.0626099
0.0626138
0.0626277
0.0627295
0.0630348
0.0636516
0.0569683
0.0622812
0.0622823
0.0622509
0.0622814
0.0622855
0.0623004
0.0624077
0.0627321
0.0633713
0.0583492
0.0619677
0.0619686
0.0619686
0.0619699
0.0619737
0.0619894
0.0621012
0.0624188
0.0631034
0.059336
0.0616686
0.0616689
0.0616651
0.061673
0.0616765
0.061693
0.0618082
0.0621541
0.0628461
0.0600272
0.0613827
0.061381
0.0613686
0.0613895
0.0613929
0.0614101
0.0615268
0.0618941
0.0625856
0.0604928
0.0611088
0.0611001
0.061105
0.0611186
0.0611217
0.0611395
0.0612552
0.0616199
0.062306
0.0607849
0.060846
0.0608505
0.0608644
0.0608595
0.0608622
0.0608806
0.0609918
0.0613559
0.0620293
0.0609452
0.0605931
0.0605904
0.0606123
0.0606111
0.0606135
0.0606325
0.0607678
0.0611018
0.0617562
0.0610076
0.0603488
0.060373
0.060372
0.0603723
0.0603747
0.0603941
0.0605362
0.0608565
0.0615054
0.0609986
0.0601404
0.0601415
0.0601407
0.0601419
0.0601444
0.060164
0.0603018
0.0606194
0.061268
0.0609373
0.0599436
0.0599447
0.0599438
0.0599456
0.0599482
0.0599678
0.0601004
0.0603903
0.0610012
0.0608377
0.0597428
0.0597443
0.0597429
0.0597457
0.0597487
0.0597686
0.0599085
0.0601683
0.0607697
0.0607117
)
;

boundaryField
{
    fuel
    {
        type            fixedValue;
        value           uniform 0;
    }
    wall
    {
        type            zeroGradient;
    }
    outlet
    {
        type            zeroGradient;
    }
    frontAndBack
    {
        type            empty;
    }
    procBoundary3to0
    {
        type            processor;
        value           nonuniform List<scalar> 10(0.059564 0.0595656 0.0595638 0.0595671 0.0595704 0.05959 0.0597081 0.0599515 0.0605437 0.0605671);
    }
    procBoundary3to2
    {
        type            processor;
        value           nonuniform List<scalar> 
25
(
0.0599686
0.0672416
0.0676262
0.0669633
0.0662455
0.0655773
0.0650279
0.0645476
0.0641219
0.0636863
0.0633298
0.0633298
0.0629622
0.062616
0.062287
0.0619731
0.061673
0.0613863
0.0611122
0.0608498
0.0605984
0.0603568
0.0601236
0.0599243
0.0597353
)
;
    }
}


// ************************************************************************* //
