/*--------------------------------*- C++ -*----------------------------------*\
| =========                 |                                                 |
| \\      /  F ield         | OpenFOAM: The Open Source CFD Toolbox           |
|  \\    /   O peration     | Version:  dev                                   |
|   \\  /    A nd           | Web:      www.OpenFOAM.org                      |
|    \\/     M anipulation  |                                                 |
\*---------------------------------------------------------------------------*/
FoamFile
{
    version     2.0;
    format      ascii;
    class       volScalarField;
    location    "0.11";
    object      HCO;
}
// * * * * * * * * * * * * * * * * * * * * * * * * * * * * * * * * * * * * * //

dimensions      [0 0 0 0 0 0 0];

internalField   nonuniform List<scalar> 
250
(
1.00871e-05
1.00859e-05
1.00906e-05
1.00791e-05
1.00805e-05
1.00873e-05
1.00863e-05
1.00794e-05
1.01233e-05
1.04389e-05
6.40002e-09
4.72389e-06
4.72361e-06
4.72361e-06
4.72179e-06
4.72286e-06
4.72382e-06
4.7235e-06
4.72329e-06
4.72831e-06
4.83705e-06
5.93494e-09
1.97465e-06
1.97438e-06
1.97475e-06
1.97417e-06
1.97446e-06
1.97492e-06
1.97395e-06
1.97409e-06
1.96637e-06
2.02208e-06
4.24852e-09
8.71074e-07
8.70978e-07
8.71333e-07
8.71043e-07
8.71199e-07
8.71385e-07
8.70596e-07
8.70037e-07
8.60838e-07
9.12661e-07
3.38849e-09
4.49952e-07
4.49951e-07
4.50171e-07
4.5001e-07
4.50114e-07
4.50151e-07
4.49511e-07
4.47779e-07
4.38542e-07
4.90193e-07
3.0481e-09
2.7438e-07
2.74189e-07
2.74266e-07
2.74016e-07
2.7418e-07
2.74234e-07
2.74059e-07
2.74696e-07
2.6882e-07
3.15032e-07
4.17964e-09
2.0059e-07
2.00424e-07
2.00374e-07
2.0016e-07
2.00321e-07
2.00331e-07
2.00187e-07
2.00166e-07
1.94063e-07
2.30906e-07
9.79483e-09
1.64254e-07
1.64226e-07
1.64146e-07
1.63918e-07
1.64105e-07
1.64102e-07
1.64012e-07
1.63838e-07
1.56105e-07
1.83207e-07
4.38605e-08
1.44575e-07
1.44631e-07
1.44543e-07
1.44442e-07
1.44547e-07
1.44508e-07
1.44241e-07
1.42937e-07
1.3385e-07
1.52188e-07
2.87899e-07
1.31663e-07
1.31705e-07
1.31653e-07
1.31529e-07
1.31661e-07
1.3163e-07
1.31392e-07
1.30043e-07
1.2192e-07
1.30314e-07
1.10288e-06
1.24307e-07
1.24286e-07
1.24136e-07
1.24297e-07
1.24274e-07
1.24045e-07
1.22627e-07
1.13336e-07
1.13671e-07
2.08432e-06
1.18432e-07
1.18433e-07
1.18249e-07
1.18451e-07
1.18438e-07
1.18212e-07
1.16901e-07
1.06896e-07
9.96985e-08
2.25499e-06
1.13877e-07
1.13892e-07
1.13654e-07
1.13922e-07
1.13917e-07
1.13692e-07
1.12339e-07
1.02474e-07
8.76684e-08
1.6414e-06
1.10043e-07
1.10066e-07
1.0974e-07
1.10115e-07
1.10116e-07
1.09889e-07
1.08522e-07
9.86361e-08
7.79375e-08
9.84444e-07
1.06602e-07
1.06629e-07
1.06638e-07
1.06705e-07
1.06706e-07
1.06481e-07
1.05123e-07
9.50877e-08
7.05346e-08
5.52586e-07
1.03364e-07
1.0339e-07
1.03352e-07
1.035e-07
1.03504e-07
1.03283e-07
1.01956e-07
9.23011e-08
6.51257e-08
3.13525e-07
1.00216e-07
1.00225e-07
1.0009e-07
1.00388e-07
1.00394e-07
1.00181e-07
9.8903e-08
8.97009e-08
6.11153e-08
1.88823e-07
9.70818e-08
9.70136e-08
9.70802e-08
9.72964e-08
9.7305e-08
9.71021e-08
9.58794e-08
8.70449e-08
5.80621e-08
1.23838e-07
9.39038e-08
9.40045e-08
9.41775e-08
9.41715e-08
9.41803e-08
9.3992e-08
9.28136e-08
8.45077e-08
5.59493e-08
8.85987e-08
9.06307e-08
9.0651e-08
9.09178e-08
9.09617e-08
9.09739e-08
9.08046e-08
9.00453e-08
8.20269e-08
5.44968e-08
6.81387e-08
8.7209e-08
8.76136e-08
8.75531e-08
8.76232e-08
8.76411e-08
8.74929e-08
8.69695e-08
7.95339e-08
5.35477e-08
5.53275e-08
8.40186e-08
8.40761e-08
8.4018e-08
8.41068e-08
8.41328e-08
8.40065e-08
8.35979e-08
7.69702e-08
5.2882e-08
4.68194e-08
8.06989e-08
8.07667e-08
8.07046e-08
8.081e-08
8.08431e-08
8.07358e-08
8.04382e-08
7.42877e-08
5.22538e-08
4.10002e-08
7.69546e-08
7.70382e-08
7.69664e-08
7.7095e-08
7.71428e-08
7.70635e-08
7.71258e-08
7.14259e-08
5.16901e-08
3.70249e-08
)
;

boundaryField
{
    fuel
    {
        type            fixedValue;
        value           uniform 0;
    }
    wall
    {
        type            zeroGradient;
    }
    outlet
    {
        type            zeroGradient;
    }
    frontAndBack
    {
        type            empty;
    }
    procBoundary3to0
    {
        type            processor;
        value           nonuniform List<scalar> 10(7.32629e-08 7.33547e-08 7.32757e-08 7.34199e-08 7.34766e-08 7.34162e-08 7.32993e-08 6.83123e-08 5.10291e-08 3.44284e-08);
    }
    procBoundary3to2
    {
        type            processor;
        value           nonuniform List<scalar> 
25
(
1.00879e-05
4.72429e-06
1.97483e-06
8.71213e-07
4.50071e-07
2.74335e-07
2.0054e-07
1.64256e-07
1.44636e-07
1.31743e-07
1.24298e-07
1.24298e-07
1.18458e-07
1.13927e-07
1.10101e-07
1.06653e-07
1.03404e-07
1.00247e-07
9.71084e-08
9.39338e-08
9.06755e-08
8.7287e-08
8.37159e-08
8.03566e-08
7.68302e-08
)
;
    }
}


// ************************************************************************* //
