/*--------------------------------*- C++ -*----------------------------------*\
| =========                 |                                                 |
| \\      /  F ield         | OpenFOAM: The Open Source CFD Toolbox           |
|  \\    /   O peration     | Version:  dev                                   |
|   \\  /    A nd           | Web:      www.OpenFOAM.org                      |
|    \\/     M anipulation  |                                                 |
\*---------------------------------------------------------------------------*/
FoamFile
{
    version     2.0;
    format      ascii;
    class       volScalarField;
    location    "0.11";
    object      l-C6H6;
}
// * * * * * * * * * * * * * * * * * * * * * * * * * * * * * * * * * * * * * //

dimensions      [0 0 0 0 0 0 0];

internalField   nonuniform List<scalar> 
50
(
6.43989e-22
5.91239e-22
5.39582e-22
4.88305e-22
4.39991e-22
3.93593e-22
3.49884e-22
3.08606e-22
2.69315e-22
2.34391e-22
2.01399e-22
1.71493e-22
1.45469e-22
1.22208e-22
1.01669e-22
8.37349e-23
6.82559e-23
5.50818e-23
4.3634e-23
3.43978e-23
2.67706e-23
2.0567e-23
1.55404e-23
1.1615e-23
8.55618e-24
6.20748e-24
4.43587e-24
3.12504e-24
2.15356e-24
1.45632e-24
9.89751e-25
6.6762e-25
4.49858e-25
3.05685e-25
2.09878e-25
1.50416e-25
1.1296e-25
9.00189e-26
7.67019e-26
6.98774e-26
6.75194e-26
6.82003e-26
7.0775e-26
7.41682e-26
7.72049e-26
7.84174e-26
7.57348e-26
6.62141e-26
4.75982e-26
2.15618e-26
)
;

boundaryField
{
    wall
    {
        type            zeroGradient;
    }
    fuel
    {
        type            fixedValue;
        value           nonuniform 0();
    }
    outlet
    {
        type            inletOutlet;
        inletValue      uniform 0;
        value           uniform 2.15618e-26;
    }
    procBoundary3to2
    {
        type            processor;
        value           uniform 6.98162e-22;
    }
}


// ************************************************************************* //
