/*--------------------------------*- C++ -*----------------------------------*\
| =========                 |                                                 |
| \\      /  F ield         | OpenFOAM: The Open Source CFD Toolbox           |
|  \\    /   O peration     | Version:  dev                                   |
|   \\  /    A nd           | Web:      www.OpenFOAM.org                      |
|    \\/     M anipulation  |                                                 |
\*---------------------------------------------------------------------------*/
FoamFile
{
    version     2.0;
    format      ascii;
    class       volScalarField;
    location    "0.1";
    object      A2C2HB*;
}
// * * * * * * * * * * * * * * * * * * * * * * * * * * * * * * * * * * * * * //

dimensions      [0 0 0 0 0 0 0];

internalField   nonuniform List<scalar> 
12
(
1.66704e-15
1.51201e-15
1.36297e-15
1.21871e-15
1.08389e-15
9.57014e-16
8.38577e-16
7.28913e-16
6.28216e-16
5.35897e-16
4.53134e-16
3.79157e-16
)
;

boundaryField
{
    wall
    {
        type            zeroGradient;
    }
    fuel
    {
        type            fixedValue;
        value           nonuniform 0();
    }
    outlet
    {
        type            inletOutlet;
        inletValue      nonuniform 0();
        value           nonuniform 0();
    }
    procBoundary4to3
    {
        type            processor;
        value           uniform 1.82688e-15;
    }
    procBoundary4to5
    {
        type            processor;
        value           uniform 3.13736e-16;
    }
}


// ************************************************************************* //
