/*--------------------------------*- C++ -*----------------------------------*\
| =========                 |                                                 |
| \\      /  F ield         | OpenFOAM: The Open Source CFD Toolbox           |
|  \\    /   O peration     | Version:  dev                                   |
|   \\  /    A nd           | Web:      www.OpenFOAM.org                      |
|    \\/     M anipulation  |                                                 |
\*---------------------------------------------------------------------------*/
FoamFile
{
    version     2.0;
    format      ascii;
    class       volVectorField;
    location    "0.1";
    object      U;
}
// * * * * * * * * * * * * * * * * * * * * * * * * * * * * * * * * * * * * * //

dimensions      [0 1 -1 0 0 0 0];

internalField   nonuniform List<vector> 
12
(
(2.92209e-13 -2.92209e-13 0.0803646)
(2.85781e-13 -2.85781e-13 0.0813095)
(2.79343e-13 -2.79343e-13 0.0822328)
(2.72896e-13 -2.72896e-13 0.083144)
(2.66443e-13 -2.66443e-13 0.083999)
(2.59985e-13 -2.59985e-13 0.0848512)
(2.53526e-13 -2.53526e-13 0.0857067)
(2.47064e-13 -2.47064e-13 0.0865646)
(2.40598e-13 -2.40598e-13 0.0874143)
(2.34132e-13 -2.34132e-13 0.0882627)
(2.27665e-13 -2.27665e-13 0.0891046)
(2.21201e-13 -2.21201e-13 0.0899346)
)
;

boundaryField
{
    wall
    {
        type            zeroGradient;
    }
    fuel
    {
        type            fixedValue;
        value           nonuniform 0();
    }
    outlet
    {
        type            pressureInletOutletVelocity;
        value           nonuniform 0();
    }
    procBoundary4to3
    {
        type            processor;
        value           uniform (2.98626e-13 -2.98626e-13 0.0794202);
    }
    procBoundary4to5
    {
        type            processor;
        value           uniform (2.14741e-13 -2.14741e-13 0.0907622);
    }
}


// ************************************************************************* //
