/*--------------------------------*- C++ -*----------------------------------*\
| =========                 |                                                 |
| \\      /  F ield         | OpenFOAM: The Open Source CFD Toolbox           |
|  \\    /   O peration     | Version:  dev                                   |
|   \\  /    A nd           | Web:      www.OpenFOAM.org                      |
|    \\/     M anipulation  |                                                 |
\*---------------------------------------------------------------------------*/
FoamFile
{
    version     2.0;
    format      ascii;
    class       volScalarField;
    location    "0.02";
    object      A2;
}
// * * * * * * * * * * * * * * * * * * * * * * * * * * * * * * * * * * * * * //

dimensions      [0 0 0 0 0 0 0];

internalField   nonuniform List<scalar> 
100
(
1.90844e-14
1.98765e-14
2.13085e-14
2.25186e-14
2.20867e-14
2.00272e-14
1.73626e-14
1.49419e-14
1.31967e-14
1.21365e-14
1.16541e-14
1.16544e-14
1.20967e-14
1.30153e-14
1.45358e-14
1.69356e-14
2.07133e-14
2.67187e-14
3.63252e-14
5.16297e-14
7.56257e-14
1.12265e-13
1.66315e-13
2.42967e-13
3.47209e-13
4.83107e-13
6.53166e-13
8.57999e-13
1.09606e-12
1.36424e-12
1.65818e-12
1.97291e-12
2.30333e-12
2.64471e-12
2.99284e-12
3.34422e-12
3.69602e-12
4.046e-12
4.39241e-12
4.73392e-12
5.07183e-12
5.40448e-12
5.72599e-12
6.03965e-12
6.34478e-12
6.64103e-12
6.92805e-12
7.2058e-12
7.47338e-12
7.73067e-12
7.97729e-12
8.21493e-12
8.43878e-12
8.65411e-12
8.85649e-12
9.04546e-12
9.21721e-12
9.37653e-12
9.52245e-12
9.65015e-12
9.76237e-12
9.8588e-12
9.93907e-12
1.00029e-11
1.00507e-11
1.00806e-11
1.00931e-11
1.00879e-11
1.00647e-11
1.00224e-11
9.96236e-12
9.88314e-12
9.78409e-12
9.66441e-12
9.52351e-12
9.36148e-12
9.17553e-12
8.9661e-12
8.73743e-12
8.50137e-12
8.24716e-12
7.97466e-12
7.68365e-12
7.37527e-12
7.04752e-12
6.68809e-12
6.33548e-12
5.96656e-12
5.58243e-12
5.18396e-12
4.77327e-12
4.35215e-12
3.92048e-12
3.47082e-12
3.02034e-12
2.53236e-12
2.04026e-12
1.48719e-12
9.46508e-13
5.30843e-13
)
;

boundaryField
{
    front
    {
        type            wedge;
    }
    back
    {
        type            wedge;
    }
    wall
    {
        type            zeroGradient;
    }
    fuel
    {
        type            fixedValue;
        value           uniform 0;
    }
    outlet
    {
        type            inletOutlet;
        inletValue      uniform 0;
        value           uniform 5.30843e-13;
    }
    axis
    {
        type            empty;
    }
}


// ************************************************************************* //
