/*--------------------------------*- C++ -*----------------------------------*\
| =========                 |                                                 |
| \\      /  F ield         | OpenFOAM: The Open Source CFD Toolbox           |
|  \\    /   O peration     | Version:  dev                                   |
|   \\  /    A nd           | Web:      www.OpenFOAM.org                      |
|    \\/     M anipulation  |                                                 |
\*---------------------------------------------------------------------------*/
FoamFile
{
    version     2.0;
    format      ascii;
    class       volScalarField;
    location    "0.02";
    object      A2-1;
}
// * * * * * * * * * * * * * * * * * * * * * * * * * * * * * * * * * * * * * //

dimensions      [0 0 0 0 0 0 0];

internalField   nonuniform List<scalar> 
100
(
4.37271e-15
4.13952e-15
4.22742e-15
4.35589e-15
4.17135e-15
3.6463e-15
2.97857e-15
2.36617e-15
1.89198e-15
1.54908e-15
1.30832e-15
1.14209e-15
1.02924e-15
9.56578e-16
9.17896e-16
9.12218e-16
9.44954e-16
1.02868e-15
1.18474e-15
1.44468e-15
1.85009e-15
2.4496e-15
3.29182e-15
4.4149e-15
5.83472e-15
7.53542e-15
9.46559e-15
1.15428e-14
1.3662e-14
1.57133e-14
1.75948e-14
1.92239e-14
2.05441e-14
2.15259e-14
2.21643e-14
2.2474e-14
2.2483e-14
2.22277e-14
2.17479e-14
2.10832e-14
2.02666e-14
1.93329e-14
1.83284e-14
1.72701e-14
1.61821e-14
1.50832e-14
1.39892e-14
1.29116e-14
1.18627e-14
1.08493e-14
9.87751e-15
8.94349e-15
8.06663e-15
7.22732e-15
6.44139e-15
5.70918e-15
5.04324e-15
4.42343e-15
3.85046e-15
3.33963e-15
2.87752e-15
2.46222e-15
2.09163e-15
1.76347e-15
1.47007e-15
1.21853e-15
1.00132e-15
8.15548e-16
6.58414e-16
5.24413e-16
4.15587e-16
3.26455e-16
2.54207e-16
1.96236e-16
1.50189e-16
1.14045e-16
8.55088e-17
6.33257e-17
4.66362e-17
3.47551e-17
2.59654e-17
1.95208e-17
1.48252e-17
1.142e-17
8.93053e-18
7.05196e-18
5.76773e-18
4.81623e-18
4.10012e-18
3.54699e-18
3.10525e-18
2.7368e-18
2.41249e-18
2.10775e-18
1.82121e-18
1.52167e-18
1.22455e-18
8.92572e-19
5.68314e-19
3.18875e-19
)
;

boundaryField
{
    front
    {
        type            wedge;
    }
    back
    {
        type            wedge;
    }
    wall
    {
        type            zeroGradient;
    }
    fuel
    {
        type            fixedValue;
        value           uniform 0;
    }
    outlet
    {
        type            inletOutlet;
        inletValue      uniform 0;
        value           uniform 3.18875e-19;
    }
    axis
    {
        type            empty;
    }
}


// ************************************************************************* //
