/*--------------------------------*- C++ -*----------------------------------*\
| =========                 |                                                 |
| \\      /  F ield         | OpenFOAM: The Open Source CFD Toolbox           |
|  \\    /   O peration     | Version:  dev                                   |
|   \\  /    A nd           | Web:      www.OpenFOAM.org                      |
|    \\/     M anipulation  |                                                 |
\*---------------------------------------------------------------------------*/
FoamFile
{
    version     2.0;
    format      ascii;
    class       volScalarField;
    location    "0.02";
    object      A3;
}
// * * * * * * * * * * * * * * * * * * * * * * * * * * * * * * * * * * * * * //

dimensions      [0 0 0 0 0 0 0];

internalField   nonuniform List<scalar> 
100
(
2.04394e-14
1.63873e-14
1.35557e-14
1.20419e-14
1.09604e-14
1.00244e-14
9.20612e-15
8.54548e-15
8.07596e-15
7.81626e-15
7.77183e-15
7.94938e-15
8.3706e-15
9.07802e-15
1.01313e-14
1.16201e-14
1.3647e-14
1.63197e-14
1.97369e-14
2.39763e-14
2.90855e-14
3.50777e-14
4.19316e-14
4.95962e-14
5.79969e-14
6.70434e-14
7.66382e-14
8.66841e-14
9.70776e-14
1.07732e-13
1.18567e-13
1.29512e-13
1.40508e-13
1.51503e-13
1.62454e-13
1.73324e-13
1.84081e-13
1.94696e-13
2.05142e-13
2.15398e-13
2.25513e-13
2.3544e-13
2.45005e-13
2.54305e-13
2.6332e-13
2.72036e-13
2.80441e-13
2.88531e-13
2.96277e-13
3.03673e-13
3.10704e-13
3.17416e-13
3.23671e-13
3.29615e-13
3.35121e-13
3.40174e-13
3.44673e-13
3.48743e-13
3.52354e-13
3.55386e-13
3.57905e-13
3.599e-13
3.61362e-13
3.62278e-13
3.62647e-13
3.62444e-13
3.61666e-13
3.60307e-13
3.58361e-13
3.55769e-13
3.5262e-13
3.48847e-13
3.44428e-13
3.39334e-13
3.33545e-13
3.27069e-13
3.19799e-13
3.11758e-13
3.03115e-13
2.9431e-13
2.84934e-13
2.74981e-13
2.64441e-13
2.53353e-13
2.41647e-13
2.28891e-13
2.16457e-13
2.03532e-13
1.90162e-13
1.76378e-13
1.62245e-13
1.4781e-13
1.33056e-13
1.17721e-13
1.02386e-13
8.58009e-14
6.90993e-14
5.03501e-14
3.20362e-14
1.79644e-14
)
;

boundaryField
{
    front
    {
        type            wedge;
    }
    back
    {
        type            wedge;
    }
    wall
    {
        type            zeroGradient;
    }
    fuel
    {
        type            fixedValue;
        value           uniform 0;
    }
    outlet
    {
        type            inletOutlet;
        inletValue      uniform 0;
        value           uniform 1.79644e-14;
    }
    axis
    {
        type            empty;
    }
}


// ************************************************************************* //
