/*--------------------------------*- C++ -*----------------------------------*\
| =========                 |                                                 |
| \\      /  F ield         | OpenFOAM: The Open Source CFD Toolbox           |
|  \\    /   O peration     | Version:  dev                                   |
|   \\  /    A nd           | Web:      www.OpenFOAM.org                      |
|    \\/     M anipulation  |                                                 |
\*---------------------------------------------------------------------------*/
FoamFile
{
    version     2.0;
    format      ascii;
    class       volScalarField;
    location    "0.02";
    object      A4-;
}
// * * * * * * * * * * * * * * * * * * * * * * * * * * * * * * * * * * * * * //

dimensions      [0 0 0 0 0 0 0];

internalField   nonuniform List<scalar> 
100
(
1.61267e-12
9.90931e-13
5.8423e-13
3.489e-13
2.11722e-13
1.31182e-13
8.34809e-14
5.48793e-14
3.73937e-14
2.64784e-14
1.94732e-14
1.48386e-14
1.16471e-14
9.35881e-15
7.672e-15
6.38964e-15
5.39538e-15
4.61465e-15
3.99697e-15
3.50606e-15
3.1144e-15
2.80027e-15
2.54626e-15
2.33834e-15
2.16529e-15
2.0183e-15
1.89046e-15
1.77648e-15
1.67278e-15
1.57659e-15
1.486e-15
1.39972e-15
1.31694e-15
1.23716e-15
1.16009e-15
1.08563e-15
1.01372e-15
9.44414e-16
8.77776e-16
8.13768e-16
7.52041e-16
6.92915e-16
6.37296e-16
5.84553e-16
5.34731e-16
4.8781e-16
4.43758e-16
4.02478e-16
3.63991e-16
3.2818e-16
2.94966e-16
2.63997e-16
2.3565e-16
2.091e-16
1.84792e-16
1.62585e-16
1.42731e-16
1.24532e-16
1.07931e-16
9.33027e-17
8.02013e-17
6.85274e-17
5.81866e-17
4.90928e-17
4.09853e-17
3.4024e-17
2.80393e-17
2.29305e-17
1.86097e-17
1.49203e-17
1.19172e-17
9.44921e-18
7.44011e-18
5.81956e-18
4.52481e-18
3.50273e-18
2.68689e-18
2.04162e-18
1.55161e-18
1.19879e-18
9.3409e-19
7.36681e-19
5.89827e-19
4.80585e-19
3.98178e-19
3.3349e-19
2.87098e-19
2.50746e-19
2.21459e-19
1.96959e-19
1.75902e-19
1.57061e-19
1.39503e-19
1.22336e-19
1.0582e-19
8.83745e-20
7.10354e-20
5.17018e-20
3.28778e-20
1.84325e-20
)
;

boundaryField
{
    front
    {
        type            wedge;
    }
    back
    {
        type            wedge;
    }
    wall
    {
        type            zeroGradient;
    }
    fuel
    {
        type            fixedValue;
        value           uniform 0;
    }
    outlet
    {
        type            inletOutlet;
        inletValue      uniform 0;
        value           uniform 1.84325e-20;
    }
    axis
    {
        type            empty;
    }
}


// ************************************************************************* //
