/*--------------------------------*- C++ -*----------------------------------*\
| =========                 |                                                 |
| \\      /  F ield         | OpenFOAM: The Open Source CFD Toolbox           |
|  \\    /   O peration     | Version:  dev                                   |
|   \\  /    A nd           | Web:      www.OpenFOAM.org                      |
|    \\/     M anipulation  |                                                 |
\*---------------------------------------------------------------------------*/
FoamFile
{
    version     2.0;
    format      ascii;
    class       volScalarField;
    location    "0.02";
    object      C4H;
}
// * * * * * * * * * * * * * * * * * * * * * * * * * * * * * * * * * * * * * //

dimensions      [0 0 0 0 0 0 0];

internalField   nonuniform List<scalar> 
100
(
1.41257e-08
3.96491e-08
5.01193e-08
4.97486e-08
4.3063e-08
3.39321e-08
2.49864e-08
1.74443e-08
1.17815e-08
7.78853e-09
5.08574e-09
3.30841e-09
2.15509e-09
1.41246e-09
9.3842e-10
6.33848e-10
4.36561e-10
3.07093e-10
2.20634e-10
1.61667e-10
1.20501e-10
9.10693e-11
6.95469e-11
5.34942e-11
4.13282e-11
3.19974e-11
2.47792e-11
1.91607e-11
1.47847e-11
1.13734e-11
8.71656e-12
6.65132e-12
5.05049e-12
3.81403e-12
2.86308e-12
2.13532e-12
1.58151e-12
1.16277e-12
8.48476e-13
6.14208e-13
4.39434e-13
3.11021e-13
2.18872e-13
1.52582e-13
1.05369e-13
7.20633e-14
4.8802e-14
3.27055e-14
2.17049e-14
1.42605e-14
9.27913e-15
5.95812e-15
3.80534e-15
2.38431e-15
1.47901e-15
9.0803e-16
5.57315e-16
3.37819e-16
2.01988e-16
1.20968e-16
7.19718e-17
4.2553e-17
2.50152e-17
1.46422e-17
8.4562e-18
4.87295e-18
2.79382e-18
1.59295e-18
9.03425e-19
5.03433e-19
2.8076e-19
1.55156e-19
8.48015e-20
4.57352e-20
2.42851e-20
1.26958e-20
6.46271e-21
3.16909e-21
1.5201e-21
7.36637e-22
3.51755e-22
1.65659e-22
7.70667e-23
3.55635e-23
1.62498e-23
7.18561e-24
3.33093e-24
1.56816e-24
7.56133e-25
3.71459e-25
1.87341e-25
9.64403e-26
5.01141e-26
2.56223e-26
1.29997e-26
6.13878e-27
2.76807e-27
1.05106e-27
3.46613e-28
1.16497e-28
)
;

boundaryField
{
    front
    {
        type            wedge;
    }
    back
    {
        type            wedge;
    }
    wall
    {
        type            zeroGradient;
    }
    fuel
    {
        type            fixedValue;
        value           uniform 0;
    }
    outlet
    {
        type            inletOutlet;
        inletValue      uniform 0;
        value           uniform 1.16497e-28;
    }
    axis
    {
        type            empty;
    }
}


// ************************************************************************* //
