/*--------------------------------*- C++ -*----------------------------------*\
| =========                 |                                                 |
| \\      /  F ield         | OpenFOAM: The Open Source CFD Toolbox           |
|  \\    /   O peration     | Version:  dev                                   |
|   \\  /    A nd           | Web:      www.OpenFOAM.org                      |
|    \\/     M anipulation  |                                                 |
\*---------------------------------------------------------------------------*/
FoamFile
{
    version     2.0;
    format      ascii;
    class       volScalarField;
    location    "0.02";
    object      C4H612;
}
// * * * * * * * * * * * * * * * * * * * * * * * * * * * * * * * * * * * * * //

dimensions      [0 0 0 0 0 0 0];

internalField   nonuniform List<scalar> 
100
(
1.45094e-11
4.45591e-11
6.72496e-11
7.93663e-11
8.13715e-11
7.55683e-11
6.49909e-11
5.29028e-11
4.18167e-11
3.27069e-11
2.56854e-11
2.04965e-11
1.67623e-11
1.41328e-11
1.23474e-11
1.11841e-11
1.04909e-11
1.01622e-11
1.0126e-11
1.0335e-11
1.07603e-11
1.13863e-11
1.22086e-11
1.32316e-11
1.44689e-11
1.5942e-11
1.76803e-11
1.97245e-11
2.21262e-11
2.49494e-11
2.82715e-11
3.21844e-11
3.67961e-11
4.22303e-11
4.86243e-11
5.61253e-11
6.48805e-11
7.50226e-11
8.66447e-11
9.97609e-11
1.14378e-10
1.30278e-10
1.4685e-10
1.63692e-10
1.80081e-10
1.9525e-10
2.08483e-10
2.19243e-10
2.27214e-10
2.32383e-10
2.34968e-10
2.35357e-10
2.34036e-10
2.31479e-10
2.28271e-10
2.24892e-10
2.21808e-10
2.1924e-10
2.17474e-10
2.16769e-10
2.17242e-10
2.1901e-10
2.2216e-10
2.26751e-10
2.3292e-10
2.40448e-10
2.49413e-10
2.59727e-10
2.71237e-10
2.83994e-10
2.97237e-10
3.10899e-10
3.24634e-10
3.38071e-10
3.50821e-10
3.62468e-10
3.72792e-10
3.81296e-10
3.87412e-10
3.90713e-10
3.91313e-10
3.89113e-10
3.84109e-10
3.7641e-10
3.66073e-10
3.5272e-10
3.37992e-10
3.21204e-10
3.0258e-10
2.82334e-10
2.60748e-10
2.38078e-10
2.14471e-10
1.89657e-10
1.64707e-10
1.37704e-10
1.10589e-10
8.03127e-11
5.09351e-11
2.8492e-11
)
;

boundaryField
{
    front
    {
        type            wedge;
    }
    back
    {
        type            wedge;
    }
    wall
    {
        type            zeroGradient;
    }
    fuel
    {
        type            fixedValue;
        value           uniform 0;
    }
    outlet
    {
        type            inletOutlet;
        inletValue      uniform 0;
        value           uniform 2.8492e-11;
    }
    axis
    {
        type            empty;
    }
}


// ************************************************************************* //
