/*--------------------------------*- C++ -*----------------------------------*\
| =========                 |                                                 |
| \\      /  F ield         | OpenFOAM: The Open Source CFD Toolbox           |
|  \\    /   O peration     | Version:  dev                                   |
|   \\  /    A nd           | Web:      www.OpenFOAM.org                      |
|    \\/     M anipulation  |                                                 |
\*---------------------------------------------------------------------------*/
FoamFile
{
    version     2.0;
    format      ascii;
    class       volScalarField;
    location    "0.02";
    object      C5H4O;
}
// * * * * * * * * * * * * * * * * * * * * * * * * * * * * * * * * * * * * * //

dimensions      [0 0 0 0 0 0 0];

internalField   nonuniform List<scalar> 
100
(
2.20209e-12
4.43734e-12
4.58688e-12
3.93418e-12
3.09451e-12
2.3199e-12
1.71116e-12
1.26616e-12
9.50833e-13
7.29262e-13
5.73106e-13
4.6287e-13
3.84728e-13
3.29697e-13
2.92295e-13
2.68425e-13
2.55488e-13
2.51779e-13
2.56212e-13
2.68144e-13
2.87263e-13
3.13521e-13
3.47089e-13
3.88341e-13
4.37842e-13
4.96347e-13
5.64817e-13
6.44442e-13
7.36558e-13
8.42805e-13
9.65028e-13
1.10522e-12
1.26531e-12
1.44669e-12
1.64933e-12
1.87029e-12
2.1021e-12
2.33167e-12
2.54073e-12
2.70863e-12
2.81736e-12
2.85312e-12
2.81184e-12
2.69862e-12
2.52525e-12
2.30765e-12
2.06309e-12
1.80757e-12
1.55543e-12
1.31696e-12
1.09939e-12
9.05119e-13
7.39204e-13
5.971e-13
4.79833e-13
3.84682e-13
3.09976e-13
2.50274e-13
2.03061e-13
1.67102e-13
1.39254e-13
1.17739e-13
1.01122e-13
8.82753e-14
7.81366e-14
7.03638e-14
6.42576e-14
5.94159e-14
5.55343e-14
5.23143e-14
4.96963e-14
4.74761e-14
4.55422e-14
4.38071e-14
4.22039e-14
4.06858e-14
3.91941e-14
3.77112e-14
3.62487e-14
3.48593e-14
3.34626e-14
3.20487e-14
3.06091e-14
2.91431e-14
2.7637e-14
2.60345e-14
2.45038e-14
2.29401e-14
2.13479e-14
1.97291e-14
1.80886e-14
1.64308e-14
1.47517e-14
1.30206e-14
1.13016e-14
9.45413e-15
7.60305e-15
5.53329e-15
3.5175e-15
1.97137e-15
)
;

boundaryField
{
    front
    {
        type            wedge;
    }
    back
    {
        type            wedge;
    }
    wall
    {
        type            zeroGradient;
    }
    fuel
    {
        type            fixedValue;
        value           uniform 0;
    }
    outlet
    {
        type            inletOutlet;
        inletValue      uniform 0;
        value           uniform 1.97137e-15;
    }
    axis
    {
        type            empty;
    }
}


// ************************************************************************* //
