/*--------------------------------*- C++ -*----------------------------------*\
| =========                 |                                                 |
| \\      /  F ield         | OpenFOAM: The Open Source CFD Toolbox           |
|  \\    /   O peration     | Version:  dev                                   |
|   \\  /    A nd           | Web:      www.OpenFOAM.org                      |
|    \\/     M anipulation  |                                                 |
\*---------------------------------------------------------------------------*/
FoamFile
{
    version     2.0;
    format      ascii;
    class       volScalarField;
    location    "0.02";
    object      CH2O;
}
// * * * * * * * * * * * * * * * * * * * * * * * * * * * * * * * * * * * * * //

dimensions      [0 0 0 0 0 0 0];

internalField   nonuniform List<scalar> 
100
(
7.76534e-06
1.52856e-05
1.79094e-05
1.80534e-05
1.67798e-05
1.47383e-05
1.23698e-05
1.0049e-05
7.99638e-06
6.29753e-06
4.94571e-06
3.89648e-06
3.08851e-06
2.46769e-06
1.99295e-06
1.62665e-06
1.34167e-06
1.11763e-06
9.39374e-07
7.9573e-07
6.78492e-07
5.81643e-07
5.0076e-07
4.32569e-07
3.74628e-07
3.25093e-07
2.82516e-07
2.4576e-07
2.13999e-07
1.86495e-07
1.62645e-07
1.41942e-07
1.23955e-07
1.08315e-07
9.47047e-08
8.28535e-08
7.25271e-08
6.35253e-08
5.56765e-08
4.88187e-08
4.27749e-08
3.74762e-08
3.29009e-08
2.89042e-08
2.54154e-08
2.23704e-08
1.97143e-08
1.73965e-08
1.53804e-08
1.36278e-08
1.21074e-08
1.07803e-08
9.64217e-09
8.6407e-09
7.78227e-09
7.04895e-09
6.43667e-09
5.91254e-09
5.46705e-09
5.10262e-09
4.80066e-09
4.55303e-09
4.35266e-09
4.19329e-09
4.06664e-09
3.97115e-09
3.90068e-09
3.85062e-09
3.81666e-09
3.79437e-09
3.78086e-09
3.77229e-09
3.76555e-09
3.75782e-09
3.74663e-09
3.7299e-09
3.7056e-09
3.67217e-09
3.62839e-09
3.57578e-09
3.5115e-09
3.43493e-09
3.34568e-09
3.24401e-09
3.1292e-09
2.99659e-09
2.86085e-09
2.71415e-09
2.55639e-09
2.38804e-09
2.21107e-09
2.02606e-09
1.83305e-09
1.6289e-09
1.4217e-09
1.19486e-09
9.64262e-10
7.03689e-10
4.48128e-10
2.5138e-10
)
;

boundaryField
{
    front
    {
        type            wedge;
    }
    back
    {
        type            wedge;
    }
    wall
    {
        type            zeroGradient;
    }
    fuel
    {
        type            fixedValue;
        value           uniform 0;
    }
    outlet
    {
        type            inletOutlet;
        inletValue      uniform 0;
        value           uniform 2.5138e-10;
    }
    axis
    {
        type            empty;
    }
}


// ************************************************************************* //
