/*--------------------------------*- C++ -*----------------------------------*\
| =========                 |                                                 |
| \\      /  F ield         | OpenFOAM: The Open Source CFD Toolbox           |
|  \\    /   O peration     | Version:  dev                                   |
|   \\  /    A nd           | Web:      www.OpenFOAM.org                      |
|    \\/     M anipulation  |                                                 |
\*---------------------------------------------------------------------------*/
FoamFile
{
    version     2.0;
    format      ascii;
    class       volScalarField;
    location    "0.02";
    object      H2O2;
}
// * * * * * * * * * * * * * * * * * * * * * * * * * * * * * * * * * * * * * //

dimensions      [0 0 0 0 0 0 0];

internalField   nonuniform List<scalar> 
100
(
1.71236e-09
2.22745e-09
2.4102e-09
2.47108e-09
2.41362e-09
2.24594e-09
1.997e-09
1.71626e-09
1.44063e-09
1.19232e-09
9.79636e-10
8.03355e-10
6.58992e-10
5.41386e-10
4.46613e-10
3.7003e-10
3.08055e-10
2.57736e-10
2.16688e-10
1.83014e-10
1.55218e-10
1.32127e-10
1.12826e-10
9.65995e-11
8.28906e-11
7.12611e-11
6.13592e-11
5.29015e-11
4.56758e-11
3.94927e-11
3.41967e-11
2.96565e-11
2.57611e-11
2.24155e-11
1.9539e-11
1.70627e-11
1.4928e-11
1.30851e-11
1.14921e-11
1.01109e-11
8.90145e-12
7.84668e-12
6.9409e-12
6.15316e-12
5.46828e-12
4.87291e-12
4.35602e-12
3.90792e-12
3.52226e-12
3.19291e-12
2.9158e-12
2.68628e-12
2.50708e-12
2.37312e-12
2.28896e-12
2.2546e-12
2.26863e-12
2.32859e-12
2.43155e-12
2.56872e-12
2.73628e-12
2.92773e-12
3.13647e-12
3.35609e-12
3.58758e-12
3.81823e-12
4.04558e-12
4.26629e-12
4.4773e-12
4.68011e-12
4.86467e-12
5.03325e-12
5.1845e-12
5.31727e-12
5.43044e-12
5.52264e-12
5.59611e-12
5.64919e-12
5.67641e-12
5.67709e-12
5.65193e-12
5.60038e-12
5.52208e-12
5.41735e-12
5.28526e-12
5.11929e-12
4.93776e-12
4.7306e-12
4.49808e-12
4.24109e-12
3.96129e-12
3.65972e-12
3.33672e-12
2.98691e-12
2.62421e-12
2.21918e-12
1.80037e-12
1.3203e-12
8.44079e-13
4.7469e-13
)
;

boundaryField
{
    front
    {
        type            wedge;
    }
    back
    {
        type            wedge;
    }
    wall
    {
        type            zeroGradient;
    }
    fuel
    {
        type            fixedValue;
        value           uniform 0;
    }
    outlet
    {
        type            inletOutlet;
        inletValue      uniform 0;
        value           uniform 4.7469e-13;
    }
    axis
    {
        type            empty;
    }
}


// ************************************************************************* //
