/*--------------------------------*- C++ -*----------------------------------*\
| =========                 |                                                 |
| \\      /  F ield         | OpenFOAM: The Open Source CFD Toolbox           |
|  \\    /   O peration     | Version:  dev                                   |
|   \\  /    A nd           | Web:      www.OpenFOAM.org                      |
|    \\/     M anipulation  |                                                 |
\*---------------------------------------------------------------------------*/
FoamFile
{
    version     2.0;
    format      ascii;
    class       volScalarField;
    location    "0.02";
    object      moment.1.populationBalance;
}
// * * * * * * * * * * * * * * * * * * * * * * * * * * * * * * * * * * * * * //

dimensions      [0 -2 0 0 0 0 0];

internalField   nonuniform List<scalar> 
100
(
0.00224669
0.00171035
0.00142613
0.00120839
0.00100877
0.000829504
0.000669825
0.000534563
0.000421945
0.000331528
0.000260084
0.000204933
0.000162828
0.000131128
0.000107389
8.97458e-05
7.66876e-05
6.70659e-05
6.00434e-05
5.49876e-05
5.14617e-05
4.91406e-05
4.78254e-05
4.73484e-05
4.76384e-05
4.86163e-05
5.02411e-05
5.24985e-05
5.53521e-05
5.88102e-05
6.28559e-05
6.74983e-05
7.27232e-05
7.85344e-05
8.49178e-05
9.18808e-05
9.93965e-05
0.000107481
0.00011609
0.00012525
0.00013494
0.000145137
0.000155869
0.000167078
0.000178788
0.000190973
0.000203652
0.000216773
0.000230318
0.000244248
0.000258575
0.000273165
0.000287982
0.000303056
0.000318319
0.000333843
0.00034954
0.000365345
0.000381206
0.000397124
0.000413097
0.00042904
0.000444926
0.000460724
0.000476374
0.000491764
0.00050686
0.000521556
0.000535828
0.000549635
0.000562981
0.000576002
0.000588633
0.000600693
0.000611611
0.000620943
0.000627964
0.000633162
0.000637449
0.000640673
0.00064262
0.000643158
0.000642057
0.000639101
0.000634266
0.000628396
0.000621863
0.00061395
0.000604075
0.000592599
0.000579376
0.000564576
0.000548904
0.00053192
0.000514262
0.000496227
0.000477168
0.000452836
0.000413494
0.00035738
)
;

boundaryField
{
    front
    {
        type            wedge;
    }
    back
    {
        type            wedge;
    }
    wall
    {
        type            zeroGradient;
    }
    fuel
    {
        type            zeroGradient;
    }
    outlet
    {
        type            zeroGradient;
    }
    axis
    {
        type            empty;
    }
}


// ************************************************************************* //
