/*--------------------------------*- C++ -*----------------------------------*\
| =========                 |                                                 |
| \\      /  F ield         | OpenFOAM: The Open Source CFD Toolbox           |
|  \\    /   O peration     | Version:  dev                                   |
|   \\  /    A nd           | Web:      www.OpenFOAM.org                      |
|    \\/     M anipulation  |                                                 |
\*---------------------------------------------------------------------------*/
FoamFile
{
    version     2.0;
    format      ascii;
    class       surfaceScalarField;
    location    "0.09";
    object      phi;
}
// * * * * * * * * * * * * * * * * * * * * * * * * * * * * * * * * * * * * * //

dimensions      [1 0 -1 0 0 0 0];

internalField   nonuniform List<scalar> 
12
(
3.9912e-05
4.10319e-05
4.21905e-05
4.3392e-05
4.46396e-05
4.59308e-05
4.72728e-05
4.86556e-05
5.00879e-05
5.15751e-05
5.31207e-05
5.47279e-05
)
;

boundaryField
{
    wall
    {
        type            calculated;
        value           nonuniform List<scalar> 
52
(
1.91494e-19
1.88991e-19
1.86393e-19
1.837e-19
1.80908e-19
1.78032e-19
1.75076e-19
1.71991e-19
1.68771e-19
1.65437e-19
1.61986e-19
1.58418e-19
1.54729e-19
-1.91494e-19
-1.88991e-19
-1.86393e-19
-1.837e-19
-1.80908e-19
-1.78032e-19
-1.75076e-19
-1.71991e-19
-1.68771e-19
-1.65437e-19
-1.61986e-19
-1.58418e-19
-1.54729e-19
1.91494e-19
1.88991e-19
1.86393e-19
1.837e-19
1.80908e-19
1.78032e-19
1.75076e-19
1.71991e-19
1.68771e-19
1.65437e-19
1.61986e-19
1.58418e-19
1.54729e-19
-1.91494e-19
-1.88991e-19
-1.86393e-19
-1.837e-19
-1.80908e-19
-1.78032e-19
-1.75076e-19
-1.71991e-19
-1.68771e-19
-1.65437e-19
-1.61986e-19
-1.58418e-19
-1.54729e-19
)
;
    }
    fuel
    {
        type            calculated;
        value           nonuniform 0();
    }
    outlet
    {
        type            calculated;
        value           nonuniform 0();
    }
    procBoundary5to4
    {
        type            processor;
        value           uniform -3.88266e-05;
    }
    procBoundary5to6
    {
        type            processor;
        value           uniform 5.63992e-05;
    }
}


// ************************************************************************* //
