/*--------------------------------*- C++ -*----------------------------------*\
| =========                 |                                                 |
| \\      /  F ield         | OpenFOAM: The Open Source CFD Toolbox           |
|  \\    /   O peration     | Version:  dev                                   |
|   \\  /    A nd           | Web:      www.OpenFOAM.org                      |
|    \\/     M anipulation  |                                                 |
\*---------------------------------------------------------------------------*/
FoamFile
{
    version     2.0;
    format      ascii;
    class       volScalarField;
    location    "0.105";
    object      A1C2H;
}
// * * * * * * * * * * * * * * * * * * * * * * * * * * * * * * * * * * * * * //

dimensions      [0 0 0 0 0 0 0];

internalField   nonuniform List<scalar> 
250
(
1.34838e-06
1.71009e-05
1.67898e-05
1.65153e-05
1.65089e-05
1.64872e-05
1.64936e-05
1.64892e-05
1.64919e-05
5.81988e-06
1.9152e-05
1.80699e-05
1.74046e-05
1.7374e-05
1.73274e-05
1.73405e-05
1.7331e-05
1.73364e-05
7.04011e-06
1.68936e-05
1.55865e-05
1.45702e-05
1.4549e-05
1.44658e-05
1.44917e-05
1.44732e-05
1.44831e-05
4.69963e-06
1.42668e-05
1.28291e-05
1.15272e-05
1.15316e-05
1.14109e-05
1.145e-05
1.14226e-05
1.14373e-05
3.02007e-06
1.199e-05
1.03612e-05
8.86591e-06
8.89981e-06
8.75142e-06
8.79788e-06
8.76673e-06
8.78522e-06
2.05815e-06
1.02153e-05
8.23435e-06
6.72731e-06
6.78687e-06
6.62979e-06
6.67006e-06
6.6474e-06
6.66766e-06
1.5728e-06
8.75451e-06
6.60364e-06
5.10392e-06
5.17973e-06
4.99454e-06
5.052e-06
5.01139e-06
5.03375e-06
1.44304e-06
7.67144e-06
5.37212e-06
3.92939e-06
4.01748e-06
3.84407e-06
3.8705e-06
3.86043e-06
3.88179e-06
1.68338e-06
6.93307e-06
4.25879e-06
3.04908e-06
3.12504e-06
2.95686e-06
3.03704e-06
2.97103e-06
2.99045e-06
2.43851e-06
6.38064e-06
3.5392e-06
2.40504e-06
2.46324e-06
2.3239e-06
2.37435e-06
2.33453e-06
2.34998e-06
3.95588e-06
5.93354e-06
2.94193e-06
1.95045e-06
1.99187e-06
1.87732e-06
1.90764e-06
1.88477e-06
1.89704e-06
1.88968e-06
6.48648e-06
5.54673e-06
2.48683e-06
1.62499e-06
1.65159e-06
1.55715e-06
1.57156e-06
1.56179e-06
1.5716e-06
1.56592e-06
1.01082e-05
5.20407e-06
2.14777e-06
1.38648e-06
1.40086e-06
1.32231e-06
1.356e-06
1.32436e-06
1.33222e-06
1.32793e-06
1.45642e-05
4.90014e-06
1.8886e-06
1.20649e-06
1.2113e-06
1.14488e-06
1.17151e-06
1.14458e-06
1.15103e-06
1.14797e-06
1.92539e-05
4.59963e-06
1.68302e-06
1.06639e-06
1.06397e-06
1.00691e-06
1.02766e-06
1.00416e-06
1.00959e-06
1.00776e-06
2.34242e-05
4.29272e-06
1.51378e-06
9.54198e-07
9.46421e-07
8.96786e-07
9.12748e-07
8.9105e-07
8.95785e-07
8.95409e-07
2.64446e-05
3.97888e-06
1.37027e-06
8.62235e-07
8.50559e-07
8.07033e-07
8.19378e-07
8.09157e-07
8.01564e-07
8.0315e-07
2.79955e-05
3.65926e-06
1.24556e-06
7.85554e-07
7.71087e-07
7.32799e-07
7.42433e-07
7.35688e-07
7.32022e-07
7.25831e-07
2.80944e-05
3.33632e-06
1.13341e-06
7.20903e-07
7.04497e-07
6.70876e-07
6.78461e-07
6.72995e-07
6.7431e-07
6.68083e-07
2.69994e-05
3.0301e-06
1.05554e-06
6.66101e-07
6.48408e-07
6.19106e-07
6.25089e-07
6.20724e-07
6.25548e-07
6.20026e-07
2.50691e-05
2.73754e-06
9.79462e-07
6.23878e-07
6.01126e-07
5.76002e-07
5.80619e-07
5.7723e-07
5.81067e-07
5.80434e-07
2.26459e-05
2.46108e-06
9.06743e-07
5.88442e-07
5.61288e-07
5.40518e-07
5.43804e-07
5.41396e-07
5.44317e-07
5.44185e-07
2.00403e-05
2.21125e-06
8.43157e-07
5.60265e-07
5.33133e-07
5.14979e-07
5.17662e-07
5.15735e-07
5.18105e-07
5.18273e-07
1.75284e-05
1.98925e-06
7.87727e-07
5.3733e-07
5.09946e-07
4.94328e-07
4.96232e-07
4.94883e-07
4.96742e-07
4.97171e-07
1.48584e-05
1.79436e-06
7.39253e-07
5.21604e-07
4.93783e-07
4.80849e-07
4.82058e-07
4.81283e-07
4.8273e-07
4.83393e-07
1.2983e-05
1.62554e-06
7.06164e-07
5.11893e-07
4.83501e-07
4.73207e-07
4.73705e-07
4.7353e-07
4.74621e-07
4.75492e-07
)
;

boundaryField
{
    fuel
    {
        type            fixedValue;
        value           uniform 0;
    }
    wall
    {
        type            zeroGradient;
    }
    outlet
    {
        type            zeroGradient;
    }
    frontAndBack
    {
        type            empty;
    }
    procBoundary2to0
    {
        type            processor;
        value           nonuniform List<scalar> 
12
(
4.81841e-07
1.10355e-05
1.4794e-06
6.80286e-07
5.08095e-07
4.79062e-07
4.71341e-07
4.71125e-07
4.71567e-07
4.72342e-07
4.74176e-07
4.73405e-07
)
;
    }
    procBoundary2to3
    {
        type            processor;
        value           nonuniform List<scalar> 
25
(
1.64909e-05
1.73344e-05
1.44788e-05
1.14302e-05
8.77565e-06
6.65681e-06
5.02059e-06
3.86901e-06
2.97868e-06
2.34058e-06
2.34058e-06
1.89316e-06
1.56854e-06
1.32983e-06
1.14931e-06
1.00873e-06
8.96181e-07
8.03759e-07
7.36321e-07
6.73588e-07
6.2124e-07
5.77696e-07
5.41808e-07
5.16217e-07
4.95368e-07
)
;
    }
}


// ************************************************************************* //
