/*--------------------------------*- C++ -*----------------------------------*\
| =========                 |                                                 |
| \\      /  F ield         | OpenFOAM: The Open Source CFD Toolbox           |
|  \\    /   O peration     | Version:  dev                                   |
|   \\  /    A nd           | Web:      www.OpenFOAM.org                      |
|    \\/     M anipulation  |                                                 |
\*---------------------------------------------------------------------------*/
FoamFile
{
    version     2.0;
    format      ascii;
    class       volScalarField;
    location    "0.105";
    object      CH2CO;
}
// * * * * * * * * * * * * * * * * * * * * * * * * * * * * * * * * * * * * * //

dimensions      [0 0 0 0 0 0 0];

internalField   nonuniform List<scalar> 
250
(
0.000999545
0.00141402
0.00131054
0.0012957
0.00129136
0.00129195
0.00129152
0.00129178
0.00129165
0.00319898
0.000309528
0.000293145
0.000286378
0.000286234
0.000285765
0.000285919
0.000285812
0.000285844
0.000658034
0.000140206
0.000135422
0.000130967
0.00013117
0.000130693
0.000130864
0.000130741
0.000130792
0.000225814
9.32523e-05
9.09531e-05
8.69668e-05
8.72543e-05
8.67399e-05
8.69273e-05
8.67885e-05
8.68555e-05
0.000129767
7.11122e-05
7.00349e-05
6.6101e-05
6.64846e-05
6.59226e-05
6.61191e-05
6.59783e-05
6.60577e-05
9.64862e-05
5.82257e-05
5.75297e-05
5.40388e-05
5.4501e-05
5.39491e-05
5.41003e-05
5.40095e-05
5.40907e-05
7.99028e-05
4.95285e-05
4.99909e-05
4.66626e-05
4.71641e-05
4.65194e-05
4.67304e-05
4.65727e-05
4.66579e-05
7.00179e-05
4.38657e-05
4.52092e-05
4.20262e-05
4.25638e-05
4.19658e-05
4.20491e-05
4.20153e-05
4.2095e-05
6.37108e-05
4.02795e-05
4.13891e-05
3.87672e-05
3.92742e-05
3.86656e-05
3.89433e-05
3.87075e-05
3.87829e-05
5.94898e-05
3.7665e-05
3.90127e-05
3.63215e-05
3.67971e-05
3.62399e-05
3.64183e-05
3.62708e-05
3.63372e-05
5.64132e-05
3.55581e-05
3.69777e-05
3.44035e-05
3.48572e-05
3.43306e-05
3.44475e-05
3.43511e-05
3.44119e-05
3.43698e-05
5.3893e-05
3.37735e-05
3.5259e-05
3.27948e-05
3.32307e-05
3.27221e-05
3.27882e-05
3.27316e-05
3.27881e-05
3.2749e-05
5.1679e-05
3.22506e-05
3.37907e-05
3.13795e-05
3.17992e-05
3.13027e-05
3.15231e-05
3.12985e-05
3.13508e-05
3.13152e-05
4.98061e-05
3.09855e-05
3.24809e-05
3.00941e-05
3.04982e-05
3.00093e-05
3.02144e-05
2.99885e-05
3.00367e-05
3.0006e-05
4.84351e-05
2.98434e-05
3.12662e-05
2.89026e-05
2.92913e-05
2.88085e-05
2.89948e-05
2.87657e-05
2.88087e-05
2.87859e-05
4.7645e-05
2.87883e-05
3.01098e-05
2.77837e-05
2.8157e-05
2.76809e-05
2.78484e-05
2.76072e-05
2.76432e-05
2.7633e-05
4.73333e-05
2.78023e-05
2.8994e-05
2.67239e-05
2.70825e-05
2.66149e-05
2.6767e-05
2.6641e-05
2.65221e-05
2.65325e-05
4.72763e-05
2.68622e-05
2.79063e-05
2.57139e-05
2.60588e-05
2.56023e-05
2.5742e-05
2.56453e-05
2.55785e-05
2.54724e-05
4.72219e-05
2.59448e-05
2.68208e-05
2.47458e-05
2.50792e-05
2.46367e-05
2.47662e-05
2.46734e-05
2.46882e-05
2.45728e-05
4.6931e-05
2.50798e-05
2.60011e-05
2.38119e-05
2.41366e-05
2.37125e-05
2.38328e-05
2.3745e-05
2.38305e-05
2.37196e-05
4.6196e-05
2.42295e-05
2.51212e-05
2.29911e-05
2.32224e-05
2.28236e-05
2.29336e-05
2.28519e-05
2.29255e-05
2.2911e-05
4.4873e-05
2.33805e-05
2.41889e-05
2.21916e-05
2.23226e-05
2.19631e-05
2.20586e-05
2.19861e-05
2.20472e-05
2.20382e-05
4.29582e-05
2.25526e-05
2.32763e-05
2.14344e-05
2.15691e-05
2.12169e-05
2.13132e-05
2.12393e-05
2.12949e-05
2.12876e-05
4.06357e-05
2.17425e-05
2.23677e-05
2.06625e-05
2.07956e-05
2.0444e-05
2.05356e-05
2.0462e-05
2.05126e-05
2.05058e-05
3.75776e-05
2.09474e-05
2.14344e-05
1.99502e-05
2.00788e-05
1.974e-05
1.98287e-05
1.97558e-05
1.98026e-05
1.97968e-05
3.5039e-05
2.01684e-05
2.06751e-05
1.92551e-05
1.93788e-05
1.90528e-05
1.91382e-05
1.90663e-05
1.911e-05
1.91048e-05
)
;

boundaryField
{
    fuel
    {
        type            fixedValue;
        value           uniform 0;
    }
    wall
    {
        type            zeroGradient;
    }
    outlet
    {
        type            zeroGradient;
    }
    frontAndBack
    {
        type            empty;
    }
    procBoundary2to0
    {
        type            processor;
        value           nonuniform List<scalar> 
12
(
1.97531e-05
3.20576e-05
1.93947e-05
1.99273e-05
1.85705e-05
1.86915e-05
1.83763e-05
1.8459e-05
1.83877e-05
1.84292e-05
1.90634e-05
1.8424e-05
)
;
    }
    procBoundary2to3
    {
        type            processor;
        value           nonuniform List<scalar> 
25
(
0.0012918
0.000285857
0.000130775
8.68212e-05
6.6012e-05
5.40418e-05
4.6602e-05
4.20414e-05
3.87312e-05
3.6291e-05
3.6291e-05
3.43934e-05
3.27707e-05
3.13351e-05
3.0025e-05
2.88053e-05
2.76553e-05
2.65597e-05
2.56477e-05
2.46758e-05
2.37464e-05
2.28523e-05
2.19846e-05
2.12389e-05
2.04592e-05
)
;
    }
}


// ************************************************************************* //
