/*--------------------------------*- C++ -*----------------------------------*\
| =========                 |                                                 |
| \\      /  F ield         | OpenFOAM: The Open Source CFD Toolbox           |
|  \\    /   O peration     | Version:  dev                                   |
|   \\  /    A nd           | Web:      www.OpenFOAM.org                      |
|    \\/     M anipulation  |                                                 |
\*---------------------------------------------------------------------------*/
FoamFile
{
    version     2.0;
    format      ascii;
    class       volScalarField;
    location    "0.105";
    object      CH2O;
}
// * * * * * * * * * * * * * * * * * * * * * * * * * * * * * * * * * * * * * //

dimensions      [0 0 0 0 0 0 0];

internalField   nonuniform List<scalar> 
50
(
1.12036e-08
1.11554e-08
1.11062e-08
1.10561e-08
1.10053e-08
1.09544e-08
1.09029e-08
1.08503e-08
1.07973e-08
1.07436e-08
1.06894e-08
1.06351e-08
1.058e-08
1.05245e-08
1.04684e-08
1.04116e-08
1.03543e-08
1.02963e-08
1.02376e-08
1.01782e-08
1.01182e-08
1.00574e-08
9.99588e-09
9.93362e-09
9.87059e-09
9.80675e-09
9.7421e-09
9.67661e-09
9.61024e-09
9.54299e-09
9.47481e-09
9.4057e-09
9.3356e-09
9.26452e-09
9.19242e-09
9.11928e-09
9.04503e-09
8.96975e-09
8.89334e-09
8.81579e-09
8.73707e-09
8.65716e-09
8.57573e-09
8.49337e-09
8.40972e-09
8.32478e-09
8.23841e-09
8.15096e-09
8.06226e-09
7.97236e-09
)
;

boundaryField
{
    wall
    {
        type            zeroGradient;
    }
    fuel
    {
        type            fixedValue;
        value           nonuniform 0();
    }
    outlet
    {
        type            inletOutlet;
        inletValue      nonuniform 0();
        value           nonuniform 0();
    }
    procBoundary2to1
    {
        type            processor;
        value           uniform 1.12523e-08;
    }
    procBoundary2to3
    {
        type            processor;
        value           uniform 7.88087e-09;
    }
}


// ************************************************************************* //
