/*--------------------------------*- C++ -*----------------------------------*\
| =========                 |                                                 |
| \\      /  F ield         | OpenFOAM: The Open Source CFD Toolbox           |
|  \\    /   O peration     | Version:  dev                                   |
|   \\  /    A nd           | Web:      www.OpenFOAM.org                      |
|    \\/     M anipulation  |                                                 |
\*---------------------------------------------------------------------------*/
FoamFile
{
    version     2.0;
    format      ascii;
    class       volScalarField;
    location    "0.105";
    object      H2C4O;
}
// * * * * * * * * * * * * * * * * * * * * * * * * * * * * * * * * * * * * * //

dimensions      [0 0 0 0 0 0 0];

internalField   nonuniform List<scalar> 
250
(
2.06105e-06
1.2822e-05
1.1872e-05
1.1728e-05
1.17103e-05
1.1708e-05
1.1708e-05
1.17078e-05
1.17089e-05
3.41464e-06
1.05186e-05
9.26517e-06
9.07969e-06
9.05539e-06
9.05231e-06
9.05208e-06
9.05009e-06
9.05168e-06
3.76288e-06
8.56979e-06
7.2327e-06
7.02344e-06
6.99339e-06
6.9897e-06
6.98921e-06
6.98475e-06
6.98809e-06
3.85308e-06
7.3922e-06
6.03261e-06
5.80444e-06
5.76877e-06
5.76467e-06
5.76378e-06
5.75568e-06
5.76192e-06
3.83398e-06
6.62985e-06
5.29011e-06
5.04926e-06
5.00844e-06
5.00451e-06
5.00292e-06
4.98689e-06
5.00012e-06
3.74005e-06
6.07082e-06
4.77795e-06
4.50637e-06
4.44864e-06
4.44435e-06
4.44121e-06
4.43348e-06
4.43627e-06
3.61611e-06
5.61834e-06
4.38849e-06
4.11004e-06
4.04425e-06
4.04294e-06
4.03793e-06
4.02022e-06
4.02878e-06
3.47096e-06
5.22873e-06
4.05455e-06
3.78959e-06
3.71406e-06
3.69617e-06
3.68713e-06
3.68322e-06
3.69044e-06
3.2155e-06
4.88128e-06
3.78036e-06
3.50005e-06
3.43487e-06
3.41849e-06
3.40653e-06
3.39618e-06
3.40189e-06
2.67002e-06
4.56481e-06
3.51094e-06
3.22651e-06
3.15669e-06
3.14122e-06
3.14658e-06
3.14638e-06
3.14281e-06
1.91039e-06
4.2738e-06
3.2571e-06
3.01383e-06
2.94074e-06
2.9257e-06
2.93109e-06
2.92739e-06
2.91814e-06
2.90927e-06
1.27639e-06
4.00589e-06
3.05433e-06
2.81142e-06
2.72641e-06
2.70983e-06
2.71393e-06
2.70892e-06
2.70012e-06
2.69926e-06
9.46737e-07
3.75908e-06
2.85608e-06
2.61669e-06
2.52937e-06
2.51253e-06
2.51453e-06
2.50793e-06
2.49203e-06
2.50924e-06
8.69973e-07
3.5133e-06
2.68652e-06
2.43921e-06
2.35054e-06
2.33345e-06
2.33371e-06
2.32468e-06
2.31601e-06
2.32187e-06
9.43259e-07
3.25614e-06
2.50976e-06
2.27683e-06
2.18782e-06
2.17058e-06
2.16963e-06
2.15674e-06
2.16149e-06
2.17097e-06
1.08721e-06
3.05197e-06
2.34509e-06
2.12791e-06
2.03949e-06
2.02222e-06
2.0206e-06
2.00899e-06
2.01717e-06
2.02364e-06
1.24932e-06
2.86216e-06
2.19298e-06
1.9911e-06
1.90411e-06
1.88692e-06
1.88508e-06
1.88567e-06
1.88201e-06
1.88172e-06
1.39903e-06
2.68517e-06
2.05258e-06
1.86523e-06
1.78041e-06
1.76344e-06
1.76153e-06
1.76067e-06
1.76543e-06
1.75296e-06
1.52135e-06
2.52019e-06
1.92309e-06
1.74927e-06
1.6673e-06
1.65066e-06
1.64876e-06
1.64699e-06
1.65466e-06
1.64953e-06
1.61326e-06
2.36705e-06
1.80375e-06
1.64231e-06
1.56379e-06
1.54757e-06
1.54575e-06
1.54329e-06
1.55017e-06
1.54761e-06
1.67171e-06
2.20343e-06
1.69386e-06
1.54343e-06
1.46893e-06
1.45323e-06
1.45151e-06
1.44852e-06
1.45484e-06
1.45195e-06
1.70197e-06
2.0503e-06
1.59287e-06
1.45168e-06
1.38177e-06
1.36667e-06
1.36508e-06
1.36168e-06
1.36747e-06
1.36409e-06
1.70871e-06
1.9266e-06
1.50025e-06
1.37738e-06
1.31086e-06
1.29647e-06
1.29498e-06
1.29128e-06
1.29665e-06
1.29299e-06
1.69595e-06
1.81137e-06
1.41477e-06
1.30817e-06
1.24173e-06
1.22791e-06
1.22654e-06
1.22242e-06
1.22763e-06
1.22365e-06
1.66765e-06
1.7051e-06
1.34455e-06
1.23961e-06
1.18315e-06
1.17023e-06
1.16897e-06
1.16474e-06
1.1696e-06
1.1656e-06
1.62748e-06
1.608e-06
1.27634e-06
1.18336e-06
1.13018e-06
1.11828e-06
1.11713e-06
1.11289e-06
1.11742e-06
1.11348e-06
)
;

boundaryField
{
    fuel
    {
        type            fixedValue;
        value           uniform 0;
    }
    wall
    {
        type            zeroGradient;
    }
    outlet
    {
        type            zeroGradient;
    }
    frontAndBack
    {
        type            empty;
    }
    procBoundary2to0
    {
        type            processor;
        value           nonuniform List<scalar> 
12
(
1.16525e-06
1.57856e-06
1.52032e-06
1.21746e-06
1.13218e-06
1.08245e-06
1.07148e-06
1.07043e-06
1.06626e-06
1.07048e-06
1.11338e-06
1.06666e-06
)
;
    }
    procBoundary2to3
    {
        type            processor;
        value           nonuniform List<scalar> 
25
(
1.1708e-05
9.05087e-06
6.98692e-06
5.76015e-06
4.99762e-06
4.43229e-06
4.02384e-06
3.68559e-06
3.39489e-06
3.13308e-06
3.13308e-06
2.90749e-06
2.68151e-06
2.49966e-06
2.33672e-06
2.16913e-06
2.0146e-06
1.87111e-06
1.75432e-06
1.64885e-06
1.5485e-06
1.45169e-06
1.36342e-06
1.29224e-06
1.22307e-06
)
;
    }
}


// ************************************************************************* //
