/*--------------------------------*- C++ -*----------------------------------*\
| =========                 |                                                 |
| \\      /  F ield         | OpenFOAM: The Open Source CFD Toolbox           |
|  \\    /   O peration     | Version:  dev                                   |
|   \\  /    A nd           | Web:      www.OpenFOAM.org                      |
|    \\/     M anipulation  |                                                 |
\*---------------------------------------------------------------------------*/
FoamFile
{
    version     2.0;
    format      ascii;
    class       volScalarField;
    location    "0.105";
    object      H2O;
}
// * * * * * * * * * * * * * * * * * * * * * * * * * * * * * * * * * * * * * //

dimensions      [0 0 0 0 0 0 0];

internalField   nonuniform List<scalar> 
250
(
0.00974218
0.061049
0.0615282
0.0615562
0.0615775
0.0615699
0.0615734
0.0615712
0.0615724
0.0541037
0.0684637
0.0685224
0.0684459
0.0684492
0.0684388
0.0684416
0.0684394
0.0684408
0.0666883
0.068379
0.0683688
0.0681704
0.0681791
0.0681542
0.0681614
0.0681561
0.068159
0.0675309
0.0675494
0.0675578
0.0672574
0.0672762
0.0672358
0.0672471
0.067239
0.0672439
0.0665717
0.066786
0.0668256
0.0664357
0.0664657
0.0664113
0.0664249
0.0664157
0.0664224
0.0655988
0.0661555
0.0661928
0.0657463
0.0657884
0.065723
0.0657346
0.0657284
0.0657367
0.0649395
0.0655745
0.065678
0.0651623
0.0652169
0.0651293
0.0651479
0.065135
0.0651455
0.0646085
0.0650702
0.0652422
0.0646625
0.0647326
0.064634
0.064641
0.0646404
0.0646526
0.0645293
0.0646598
0.0647721
0.0641963
0.0642737
0.0641559
0.0641996
0.0641626
0.0641765
0.0646066
0.0642892
0.0644055
0.0637561
0.0638377
0.0637149
0.0637474
0.0637206
0.0637348
0.0647572
0.0639337
0.0640316
0.0633515
0.0634354
0.0633089
0.063333
0.0633131
0.0633275
0.063318
0.064918
0.0635881
0.0636716
0.0629765
0.0630607
0.0629315
0.0629465
0.0629336
0.0629478
0.0629387
0.0650453
0.0632601
0.0633364
0.0626262
0.0627091
0.0625782
0.0626338
0.0625771
0.0625909
0.0625824
0.0651095
0.0629643
0.0630202
0.0622965
0.0623769
0.0622449
0.0622982
0.0622396
0.0622527
0.0622454
0.0650925
0.0626792
0.0627161
0.0619844
0.0620614
0.0619291
0.0619783
0.0619178
0.0619299
0.0619246
0.0649868
0.0624021
0.0624194
0.0616874
0.0617607
0.0616287
0.0616734
0.061609
0.0616195
0.0616175
0.0647944
0.0621334
0.062128
0.0614039
0.0614733
0.0613427
0.0613834
0.0613496
0.0613185
0.0613221
0.0645256
0.061871
0.0618404
0.0611326
0.0611983
0.06107
0.0611074
0.0610816
0.0610641
0.0610363
0.0641966
0.0616118
0.0615508
0.0608722
0.0609345
0.0608098
0.0608444
0.0608198
0.0608241
0.0607936
0.0638263
0.0613669
0.0613308
0.0606215
0.0606811
0.0605613
0.0605933
0.0605702
0.0605935
0.0605641
0.0634322
0.0611274
0.0610943
0.0604021
0.0604363
0.0603237
0.0603528
0.0603316
0.0603518
0.060348
0.0630278
0.0608909
0.0608442
0.0601905
0.0601975
0.0600959
0.0601209
0.0601024
0.0601194
0.0601173
0.062628
0.0606633
0.0606003
0.0599927
0.0599996
0.0599009
0.0599258
0.0599073
0.0599227
0.0599214
0.0622515
0.060444
0.0603594
0.0597948
0.0598001
0.059703
0.0597263
0.0597083
0.0597222
0.0597214
0.0618448
0.0602324
0.0601155
0.0596163
0.0596192
0.059527
0.059549
0.0595316
0.0595444
0.0595442
0.0615461
0.0600293
0.0599201
0.059447
0.0594473
0.0593603
0.0593809
0.0593643
0.059376
0.0593763
)
;

boundaryField
{
    fuel
    {
        type            fixedValue;
        value           uniform 0;
    }
    wall
    {
        type            zeroGradient;
    }
    outlet
    {
        type            zeroGradient;
    }
    frontAndBack
    {
        type            empty;
    }
    procBoundary2to0
    {
        type            processor;
        value           nonuniform List<scalar> 
12
(
0.0595318
0.0612192
0.0598326
0.0597321
0.0592861
0.0592841
0.059202
0.0592213
0.0592054
0.0592164
0.0593645
0.0592169
)
;
    }
    procBoundary2to3
    {
        type            processor;
        value           nonuniform List<scalar> 
25
(
0.0615715
0.0684399
0.0681572
0.0672408
0.0664181
0.0657313
0.0651383
0.0646443
0.0641671
0.0637252
0.0637252
0.0633234
0.0629436
0.0625869
0.0622496
0.0619289
0.0616226
0.0613285
0.0610827
0.0608209
0.0605712
0.0603323
0.0601027
0.0599079
0.0597083
)
;
    }
}


// ************************************************************************* //
