/*--------------------------------*- C++ -*----------------------------------*\
| =========                 |                                                 |
| \\      /  F ield         | OpenFOAM: The Open Source CFD Toolbox           |
|  \\    /   O peration     | Version:  dev                                   |
|   \\  /    A nd           | Web:      www.OpenFOAM.org                      |
|    \\/     M anipulation  |                                                 |
\*---------------------------------------------------------------------------*/
FoamFile
{
    version     2.0;
    format      ascii;
    class       volScalarField;
    location    "0.105";
    object      n-C4H5;
}
// * * * * * * * * * * * * * * * * * * * * * * * * * * * * * * * * * * * * * //

dimensions      [0 0 0 0 0 0 0];

internalField   nonuniform List<scalar> 
250
(
2.378e-07
5.00962e-07
4.69916e-07
4.64714e-07
4.63467e-07
4.6355e-07
4.63449e-07
4.63502e-07
4.63475e-07
1.28785e-06
5.89782e-08
5.54423e-08
5.32357e-08
5.32773e-08
5.30872e-08
5.31588e-08
5.31088e-08
5.31269e-08
1.69794e-07
1.12228e-08
1.05982e-08
9.72857e-09
9.7958e-09
9.6945e-09
9.73661e-09
9.70652e-09
9.71873e-09
3.2303e-08
3.20168e-09
3.07366e-09
2.6979e-09
2.73937e-09
2.68779e-09
2.70991e-09
2.69395e-09
2.70112e-09
9.90319e-09
1.24648e-09
1.23774e-09
1.04427e-09
1.07106e-09
1.04209e-09
1.05414e-09
1.04574e-09
1.04999e-09
4.28224e-09
6.20906e-10
6.25668e-10
5.2251e-10
5.41339e-10
5.24107e-10
5.3005e-10
5.26509e-10
5.29127e-10
2.30123e-09
3.58532e-10
3.86338e-10
3.16419e-10
3.30495e-10
3.16245e-10
3.21856e-10
3.17796e-10
3.19711e-10
1.46703e-09
2.39721e-10
2.73095e-10
2.1981e-10
2.31408e-10
2.21062e-10
2.23162e-10
2.22236e-10
2.23637e-10
1.08105e-09
1.81775e-10
2.00272e-10
1.64638e-10
1.73635e-10
1.6497e-10
1.69712e-10
1.65848e-10
1.66928e-10
8.84339e-10
1.47222e-10
1.61863e-10
1.29853e-10
1.36961e-10
1.30322e-10
1.33082e-10
1.30949e-10
1.31741e-10
7.64213e-10
1.23849e-10
1.3332e-10
1.06708e-10
1.12489e-10
1.07168e-10
1.08812e-10
1.07616e-10
1.08229e-10
1.07779e-10
6.67926e-10
1.06943e-10
1.1254e-10
9.02142e-11
9.4976e-11
9.05799e-11
9.14216e-11
9.08856e-11
9.13752e-11
9.10143e-11
5.74867e-10
9.43617e-11
9.72125e-11
7.78475e-11
8.17978e-11
7.80903e-11
8.00086e-11
7.8265e-11
7.86609e-11
7.83731e-11
4.84392e-10
8.4994e-11
8.53906e-11
6.82009e-11
7.14955e-11
6.83058e-11
6.9881e-11
6.83554e-11
6.86841e-11
6.84634e-11
4.04412e-10
7.72749e-11
7.58696e-11
6.04309e-11
6.31929e-11
6.04056e-11
6.16857e-11
6.03169e-11
6.05966e-11
6.04467e-11
3.41386e-10
7.06554e-11
6.79234e-11
5.40057e-11
5.63337e-11
5.38704e-11
5.49011e-11
5.36044e-11
5.38499e-11
5.37866e-11
2.95906e-10
6.48358e-11
6.11181e-11
4.85755e-11
5.05501e-11
4.83568e-11
4.91934e-11
4.85713e-11
4.80662e-11
4.81228e-11
2.63823e-10
5.95703e-11
5.51596e-11
4.39013e-11
4.55897e-11
4.36292e-11
4.43167e-11
4.38859e-11
4.36399e-11
4.32001e-11
2.39486e-10
5.46681e-11
4.97603e-11
3.98125e-11
4.12726e-11
3.95199e-11
4.0093e-11
3.97203e-11
3.98092e-11
3.93655e-11
2.18224e-10
5.02371e-11
4.59663e-11
3.61823e-11
3.74645e-11
3.59052e-11
3.63882e-11
3.60664e-11
3.64031e-11
3.60024e-11
1.9723e-10
4.60699e-11
4.21807e-11
3.32099e-11
3.40573e-11
3.26903e-11
3.30952e-11
3.28185e-11
3.30873e-11
3.30391e-11
1.75366e-10
4.2093e-11
3.84508e-11
3.05017e-11
3.09507e-11
2.97986e-11
3.01236e-11
2.98952e-11
3.01029e-11
3.00735e-11
1.53049e-10
3.83887e-11
3.50386e-11
2.80917e-11
2.85085e-11
2.74448e-11
2.77488e-11
2.75292e-11
2.77052e-11
2.7682e-11
1.31765e-10
3.49346e-11
3.18566e-11
2.57858e-11
2.61596e-11
2.51622e-11
2.54312e-11
2.52253e-11
2.53736e-11
2.53533e-11
1.0905e-10
3.17088e-11
2.87987e-11
2.3777e-11
2.41097e-11
2.3203e-11
2.34469e-11
2.3254e-11
2.33815e-11
2.33649e-11
9.30868e-11
2.87082e-11
2.64412e-11
2.19255e-11
2.22227e-11
2.13996e-11
2.16199e-11
2.14398e-11
2.1551e-11
2.15364e-11
)
;

boundaryField
{
    fuel
    {
        type            fixedValue;
        value           uniform 0;
    }
    wall
    {
        type            zeroGradient;
    }
    outlet
    {
        type            zeroGradient;
    }
    frontAndBack
    {
        type            empty;
    }
    procBoundary2to0
    {
        type            processor;
        value           nonuniform List<scalar> 
12
(
2.32496e-11
7.67649e-11
2.58999e-11
2.42421e-11
2.02036e-11
2.04759e-11
1.97257e-11
1.9926e-11
1.9757e-11
1.98557e-11
2.14349e-11
1.98415e-11
)
;
    }
    procBoundary2to3
    {
        type            processor;
        value           nonuniform List<scalar> 
25
(
4.63512e-07
5.31253e-08
9.71423e-09
2.6976e-09
1.04766e-09
5.27617e-10
3.18488e-10
2.22709e-10
1.66187e-10
1.31174e-10
1.31174e-10
1.08025e-10
9.12144e-11
7.85347e-11
6.85942e-11
6.0555e-11
5.3882e-11
4.82073e-11
4.39115e-11
3.97421e-11
3.60814e-11
3.28278e-11
2.98966e-11
2.75327e-11
2.52213e-11
)
;
    }
}


// ************************************************************************* //
