/*--------------------------------*- C++ -*----------------------------------*\
| =========                 |                                                 |
| \\      /  F ield         | OpenFOAM: The Open Source CFD Toolbox           |
|  \\    /   O peration     | Version:  dev                                   |
|   \\  /    A nd           | Web:      www.OpenFOAM.org                      |
|    \\/     M anipulation  |                                                 |
\*---------------------------------------------------------------------------*/
FoamFile
{
    version     2.0;
    format      ascii;
    class       volScalarField;
    location    "0.105";
    object      naphthyne;
}
// * * * * * * * * * * * * * * * * * * * * * * * * * * * * * * * * * * * * * //

dimensions      [0 0 0 0 0 0 0];

internalField   nonuniform List<scalar> 
50
(
4.17932e-19
3.87785e-19
3.60082e-19
3.34677e-19
3.11396e-19
2.90314e-19
2.71002e-19
2.5314e-19
2.36788e-19
2.21796e-19
2.08028e-19
1.95515e-19
1.83934e-19
1.73327e-19
1.63553e-19
1.54542e-19
1.46231e-19
1.38559e-19
1.31476e-19
1.24931e-19
1.18882e-19
1.1329e-19
1.08119e-19
1.03338e-19
9.89162e-20
9.48286e-20
9.10503e-20
8.75583e-20
8.43312e-20
8.13482e-20
7.85885e-20
7.60317e-20
7.36565e-20
7.14405e-20
6.93602e-20
6.73908e-20
6.5504e-20
6.36744e-20
6.18715e-20
6.00659e-20
5.82289e-20
5.63334e-20
5.43467e-20
5.22639e-20
5.00618e-20
4.77331e-20
4.52733e-20
4.27003e-20
4.00254e-20
3.7271e-20
)
;

boundaryField
{
    wall
    {
        type            zeroGradient;
    }
    fuel
    {
        type            fixedValue;
        value           nonuniform 0();
    }
    outlet
    {
        type            inletOutlet;
        inletValue      nonuniform 0();
        value           nonuniform 0();
    }
    procBoundary2to1
    {
        type            processor;
        value           uniform 4.50601e-19;
    }
    procBoundary2to3
    {
        type            processor;
        value           uniform 3.4427e-20;
    }
}


// ************************************************************************* //
