/*--------------------------------*- C++ -*----------------------------------*\
| =========                 |                                                 |
| \\      /  F ield         | OpenFOAM: The Open Source CFD Toolbox           |
|  \\    /   O peration     | Version:  dev                                   |
|   \\  /    A nd           | Web:      www.OpenFOAM.org                      |
|    \\/     M anipulation  |                                                 |
\*---------------------------------------------------------------------------*/
FoamFile
{
    version     2.0;
    format      ascii;
    class       volScalarField;
    location    "0.105";
    object      p;
}
// * * * * * * * * * * * * * * * * * * * * * * * * * * * * * * * * * * * * * //

dimensions      [1 -1 -2 0 0 0 0];

internalField   nonuniform List<scalar> 
250
(
99992.2
99995.2
99999
99993.9
99997.5
99995.3
99996.7
99996.7
99998
99990
99995
99998.9
99993.7
99997.3
99995.1
99996.5
99996.5
99997.8
99988.1
99994.9
99998.9
99993.6
99997.2
99995.1
99996.5
99996.5
99997.7
99987.8
99994.9
99998.9
99993.7
99997.3
99995.1
99996.5
99996.5
99997.7
99988.6
99994.9
99998.9
99993.7
99997.3
99995.1
99996.5
99996.5
99997.7
99989.8
99994.8
99999
99993.7
99997.3
99995.1
99996.6
99996.5
99997.7
99990.9
99994.7
99999
99993.7
99997.3
99995.1
99996.6
99996.6
99997.7
99991.9
99994.6
99999
99993.7
99997.3
99995.2
99996.6
99996.6
99997.7
99992.8
99994.5
99999.1
99993.7
99997.3
99995.2
99996.6
99996.6
99997.7
99993.7
99994.3
99999.1
99993.7
99997.3
99995.2
99996.6
99996.6
99997.7
99994.6
99994.2
99999.2
99993.7
99997.3
99995.2
99996.6
99996.6
99997.8
99998.5
99995.4
99994.1
99999.3
99993.7
99997.3
99995.2
99996.6
99996.6
99997.8
99998.5
99996.1
99994
99999.3
99993.8
99997.3
99995.3
99996.6
99996.6
99997.8
99998.5
99996.8
99993.9
99999.4
99993.8
99997.3
99995.3
99996.6
99996.6
99997.8
99998.5
99997.4
99993.8
99999.5
99993.8
99997.3
99995.3
99996.6
99996.6
99997.8
99998.5
99998
99993.7
99999.5
99993.9
99997.3
99995.4
99996.6
99996.6
99997.8
99998.6
99998.6
99993.6
99999.6
99993.9
99997.3
99995.4
99996.6
99996.7
99997.8
99998.6
99999.1
99993.5
99999.6
99994
99997.2
99995.4
99996.7
99996.7
99997.8
99998.6
99999.6
99993.5
99999.7
99994.1
99997.2
99995.4
99996.7
99996.7
99997.8
99998.6
100000
99993.5
99999.7
99994.1
99997.2
99995.5
99996.7
99996.7
99997.8
99998.6
100000
99993.4
99999.7
99994.2
99997.2
99995.5
99996.7
99996.7
99997.8
99998.6
100001
99993.4
99999.7
99994.3
99997.2
99995.5
99996.7
99996.7
99997.8
99998.6
100001
99993.5
99999.7
99994.4
99997.2
99995.6
99996.7
99996.7
99997.8
99998.6
100001
99993.5
99999.7
99994.4
99997.1
99995.6
99996.7
99996.7
99997.8
99998.6
100002
99993.5
99999.7
99994.5
99997.1
99995.6
99996.7
99996.7
99997.8
99998.6
100002
99993.6
99999.6
99994.6
99997.1
99995.6
99996.7
99996.8
99997.8
99998.6
)
;

boundaryField
{
    fuel
    {
        type            zeroGradient;
    }
    wall
    {
        type            zeroGradient;
    }
    outlet
    {
        type            totalPressure;
        rho             none;
        psi             none;
        gamma           1;
        p0              uniform 100000;
        value           uniform 100000;
    }
    frontAndBack
    {
        type            empty;
    }
    procBoundary2to0
    {
        type            processor;
        value           nonuniform List<scalar> 
12
(
99999.8
100002
99993.7
99999.6
99994.7
99997.1
99995.7
99996.7
99996.8
99997.8
99999.8
99998.6
)
;
    }
    procBoundary2to3
    {
        type            processor;
        value           nonuniform List<scalar> 
25
(
99998.6
99998.4
99998.4
99998.4
99998.4
99998.4
99998.4
99998.5
99998.5
99998.5
99998.5
99999.7
99999.7
99999.7
99999.7
99999.7
99999.7
99999.7
99999.7
99999.7
99999.7
99999.8
99999.8
99999.8
99999.8
)
;
    }
}


// ************************************************************************* //
