/*--------------------------------*- C++ -*----------------------------------*\
| =========                 |                                                 |
| \\      /  F ield         | OpenFOAM: The Open Source CFD Toolbox           |
|  \\    /   O peration     | Version:  dev                                   |
|   \\  /    A nd           | Web:      www.OpenFOAM.org                      |
|    \\/     M anipulation  |                                                 |
\*---------------------------------------------------------------------------*/
FoamFile
{
    version     2.0;
    format      ascii;
    class       volScalarField;
    location    "0.105";
    object      P2;
}
// * * * * * * * * * * * * * * * * * * * * * * * * * * * * * * * * * * * * * //

dimensions      [0 0 0 0 0 0 0];

internalField   nonuniform List<scalar> 
50
(
1.86104e-21
1.72602e-21
1.60211e-21
1.48859e-21
1.38463e-21
1.29054e-21
1.20439e-21
1.12474e-21
1.05188e-21
9.85163e-22
9.2398e-22
8.68486e-22
8.1727e-22
7.70537e-22
7.2767e-22
6.88375e-22
6.52374e-22
6.19411e-22
5.89246e-22
5.61655e-22
5.36425e-22
5.13355e-22
4.92253e-22
4.72932e-22
4.55211e-22
4.38915e-22
4.2387e-22
4.09908e-22
3.96867e-22
3.84587e-22
3.72916e-22
3.61712e-22
3.50838e-22
3.40173e-22
3.29603e-22
3.19033e-22
3.08372e-22
2.97567e-22
2.86561e-22
2.7532e-22
2.63828e-22
2.52088e-22
2.40065e-22
2.27881e-22
2.15529e-22
2.03069e-22
1.90547e-22
1.78092e-22
1.65764e-22
1.53656e-22
)
;

boundaryField
{
    wall
    {
        type            zeroGradient;
    }
    fuel
    {
        type            fixedValue;
        value           nonuniform 0();
    }
    outlet
    {
        type            inletOutlet;
        inletValue      nonuniform 0();
        value           nonuniform 0();
    }
    procBoundary2to1
    {
        type            processor;
        value           uniform 2.00679e-21;
    }
    procBoundary2to3
    {
        type            processor;
        value           uniform 1.41524e-22;
    }
}


// ************************************************************************* //
