/*--------------------------------*- C++ -*----------------------------------*\
| =========                 |                                                 |
| \\      /  F ield         | OpenFOAM: The Open Source CFD Toolbox           |
|  \\    /   O peration     | Version:  dev                                   |
|   \\  /    A nd           | Web:      www.OpenFOAM.org                      |
|    \\/     M anipulation  |                                                 |
\*---------------------------------------------------------------------------*/
FoamFile
{
    version     2.0;
    format      ascii;
    class       volScalarField;
    location    "0.105";
    object      P2;
}
// * * * * * * * * * * * * * * * * * * * * * * * * * * * * * * * * * * * * * //

dimensions      [0 0 0 0 0 0 0];

internalField   nonuniform List<scalar> 
250
(
5.92446e-09
9.55479e-08
9.11617e-08
8.84232e-08
8.82986e-08
8.81141e-08
8.81672e-08
8.81299e-08
8.81512e-08
1.05383e-08
1.16801e-07
1.05092e-07
9.88389e-08
9.84864e-08
9.8093e-08
9.82095e-08
9.8124e-08
9.81705e-08
1.40019e-08
8.90754e-08
7.73598e-08
6.92714e-08
6.90813e-08
6.84596e-08
6.86743e-08
6.852e-08
6.85963e-08
7.04614e-09
5.95706e-08
4.96379e-08
4.15528e-08
4.15985e-08
4.08788e-08
4.11428e-08
4.09564e-08
4.1048e-08
3.19351e-09
3.93875e-08
3.07425e-08
2.36509e-08
2.38369e-08
2.31647e-08
2.34064e-08
2.32418e-08
2.33292e-08
1.56391e-09
2.72135e-08
1.87816e-08
1.33689e-08
1.35992e-08
1.30668e-08
1.32279e-08
1.31332e-08
1.32046e-08
9.19521e-10
1.94228e-08
1.19168e-08
7.71712e-09
7.93154e-09
7.44924e-09
7.62253e-09
7.49724e-09
7.55652e-09
7.52196e-10
1.48059e-08
7.92072e-09
4.66645e-09
4.85635e-09
4.50457e-09
4.57233e-09
4.54078e-09
4.58461e-09
9.79433e-10
1.2203e-08
5.12026e-09
2.91607e-09
3.04416e-09
2.77455e-09
2.91406e-09
2.79945e-09
2.83069e-09
1.92437e-09
1.05615e-08
3.64856e-09
1.90925e-09
1.98758e-09
1.80603e-09
1.87903e-09
1.82155e-09
1.8416e-09
4.64008e-09
9.43475e-09
2.63116e-09
1.331e-09
1.37633e-09
1.25123e-09
1.28848e-09
1.26068e-09
1.27394e-09
1.2661e-09
1.13919e-08
8.60566e-09
1.97641e-09
9.83305e-10
1.00669e-09
9.17831e-10
9.33149e-10
9.23283e-10
9.32374e-10
9.27161e-10
2.5546e-08
7.9765e-09
1.5542e-09
7.63311e-10
7.72294e-10
7.07044e-10
7.35637e-10
7.09666e-10
7.16097e-10
7.12617e-10
4.99096e-08
7.48893e-09
1.26916e-09
6.16562e-10
6.16235e-10
5.66502e-10
5.8686e-10
5.67047e-10
5.71842e-10
5.69598e-10
8.4001e-08
7.04307e-09
1.06604e-09
5.1358e-10
5.07317e-10
4.68112e-10
4.82667e-10
4.66865e-10
4.70651e-10
4.6942e-10
1.22677e-07
6.58818e-09
9.13374e-10
4.37993e-10
4.28003e-10
3.9624e-10
4.06619e-10
3.93038e-10
3.96274e-10
3.96051e-10
1.57885e-07
6.09591e-09
7.93407e-10
3.80439e-10
3.68165e-10
3.41913e-10
3.49385e-10
3.43319e-10
3.39216e-10
3.40238e-10
1.82326e-07
5.55291e-09
6.95547e-10
3.35389e-10
3.21776e-10
2.99803e-10
3.05247e-10
3.01497e-10
2.99656e-10
2.96414e-10
1.92299e-07
4.96309e-09
6.12054e-10
2.99459e-10
2.85135e-10
2.66635e-10
2.70647e-10
2.67805e-10
2.68586e-10
2.65444e-10
1.88241e-07
4.37422e-09
5.56334e-10
2.7051e-10
2.55886e-10
2.40331e-10
2.43298e-10
2.41169e-10
2.43649e-10
2.40947e-10
1.73394e-07
3.79638e-09
5.03978e-10
2.49262e-10
2.32469e-10
2.19535e-10
2.21677e-10
2.20133e-10
2.22043e-10
2.21758e-10
1.51916e-07
3.24766e-09
4.5585e-10
2.32332e-10
2.13772e-10
2.03351e-10
2.04755e-10
2.03753e-10
2.0516e-10
2.0514e-10
1.27916e-07
2.75758e-09
4.15382e-10
2.19718e-10
2.0137e-10
1.92512e-10
1.93546e-10
1.92836e-10
1.93934e-10
1.94077e-10
1.04906e-07
2.33548e-09
3.81574e-10
2.10425e-10
1.92056e-10
1.84698e-10
1.85297e-10
1.8492e-10
1.8574e-10
1.86029e-10
8.13381e-08
1.97958e-09
3.53445e-10
2.05215e-10
1.86602e-10
1.80749e-10
1.80948e-10
1.80906e-10
1.81502e-10
1.81925e-10
6.56935e-08
1.68771e-09
3.3538e-10
2.03666e-10
1.8459e-10
1.80224e-10
1.80007e-10
1.80327e-10
1.80725e-10
1.81276e-10
)
;

boundaryField
{
    fuel
    {
        type            fixedValue;
        value           uniform 0;
    }
    wall
    {
        type            zeroGradient;
    }
    outlet
    {
        type            zeroGradient;
    }
    frontAndBack
    {
        type            empty;
    }
    procBoundary2to0
    {
        type            processor;
        value           nonuniform List<scalar> 
12
(
1.81256e-10
5.05849e-08
1.44298e-09
3.22587e-10
2.05891e-10
1.86141e-10
1.83272e-10
1.82611e-10
1.83327e-10
1.83541e-10
1.80735e-10
1.84224e-10
)
;
    }
    procBoundary2to3
    {
        type            processor;
        value           nonuniform List<scalar> 
25
(
8.81439e-08
9.81556e-08
6.85666e-08
4.10068e-08
2.32866e-08
1.31683e-08
7.52291e-09
4.55914e-09
2.81215e-09
1.82962e-09
1.82962e-09
1.26958e-09
9.29448e-10
7.14085e-10
5.70505e-10
4.69954e-10
3.96357e-10
3.40322e-10
3.01918e-10
2.68187e-10
2.41496e-10
2.20424e-10
2.04014e-10
1.93128e-10
1.85225e-10
)
;
    }
}


// ************************************************************************* //
