/*--------------------------------*- C++ -*----------------------------------*\
| =========                 |                                                 |
| \\      /  F ield         | OpenFOAM: The Open Source CFD Toolbox           |
|  \\    /   O peration     | Version:  dev                                   |
|   \\  /    A nd           | Web:      www.OpenFOAM.org                      |
|    \\/     M anipulation  |                                                 |
\*---------------------------------------------------------------------------*/
FoamFile
{
    version     2.0;
    format      ascii;
    class       volScalarField;
    location    "0.105";
    object      P2-;
}
// * * * * * * * * * * * * * * * * * * * * * * * * * * * * * * * * * * * * * //

dimensions      [0 0 0 0 0 0 0];

internalField   nonuniform List<scalar> 
50
(
4.11705e-22
3.73187e-22
3.38496e-22
3.07304e-22
2.79267e-22
2.54356e-22
2.31964e-22
2.11644e-22
1.93394e-22
1.76982e-22
1.62202e-22
1.4903e-22
1.37081e-22
1.26359e-22
1.16682e-22
1.07948e-22
1.00064e-22
9.29465e-23
8.65185e-23
8.07108e-23
7.54606e-23
7.07105e-23
6.64079e-23
6.25046e-23
5.89561e-23
5.57215e-23
5.27629e-23
5.00454e-23
4.75367e-23
4.52076e-23
4.30311e-23
4.09829e-23
3.90415e-23
3.71876e-23
3.54049e-23
3.36793e-23
3.1998e-23
3.03541e-23
2.87395e-23
2.71494e-23
2.55811e-23
2.4034e-23
2.25024e-23
2.09999e-23
1.95233e-23
1.80771e-23
1.66637e-23
1.52944e-23
1.39731e-23
1.27085e-23
)
;

boundaryField
{
    wall
    {
        type            zeroGradient;
    }
    fuel
    {
        type            fixedValue;
        value           nonuniform 0();
    }
    outlet
    {
        type            inletOutlet;
        inletValue      nonuniform 0();
        value           nonuniform 0();
    }
    procBoundary2to1
    {
        type            processor;
        value           uniform 4.54355e-22;
    }
    procBoundary2to3
    {
        type            processor;
        value           uniform 1.14842e-23;
    }
}


// ************************************************************************* //
