/*--------------------------------*- C++ -*----------------------------------*\
| =========                 |                                                 |
| \\      /  F ield         | OpenFOAM: The Open Source CFD Toolbox           |
|  \\    /   O peration     | Version:  dev                                   |
|   \\  /    A nd           | Web:      www.OpenFOAM.org                      |
|    \\/     M anipulation  |                                                 |
\*---------------------------------------------------------------------------*/
FoamFile
{
    version     2.0;
    format      ascii;
    class       volScalarField;
    location    "0.105";
    object      PC3H4;
}
// * * * * * * * * * * * * * * * * * * * * * * * * * * * * * * * * * * * * * //

dimensions      [0 0 0 0 0 0 0];

internalField   nonuniform List<scalar> 
250
(
4.4086e-06
2.30598e-06
2.13849e-06
2.1119e-06
2.10482e-06
2.10556e-06
2.1049e-06
2.10527e-06
2.10507e-06
4.44356e-06
5.44436e-07
5.15836e-07
5.0374e-07
5.03137e-07
5.02403e-07
5.02601e-07
5.02457e-07
5.02507e-07
8.64645e-07
3.48952e-07
3.32084e-07
3.22416e-07
3.22003e-07
3.21301e-07
3.21462e-07
3.2134e-07
3.21407e-07
3.12821e-07
3.14102e-07
2.97091e-07
2.86183e-07
2.8575e-07
2.84882e-07
2.85047e-07
2.84921e-07
2.85012e-07
2.05672e-07
3.02457e-07
2.82395e-07
2.69107e-07
2.68786e-07
2.67618e-07
2.67814e-07
2.67675e-07
2.67804e-07
1.76762e-07
2.96202e-07
2.71102e-07
2.55681e-07
2.55559e-07
2.54088e-07
2.54257e-07
2.54169e-07
2.5434e-07
1.69664e-07
2.91433e-07
2.615e-07
2.43829e-07
2.43934e-07
2.41919e-07
2.42246e-07
2.4201e-07
2.42238e-07
1.73462e-07
2.8754e-07
2.52956e-07
2.33351e-07
2.33742e-07
2.31428e-07
2.3152e-07
2.31536e-07
2.31806e-07
1.85245e-07
2.84264e-07
2.43397e-07
2.23401e-07
2.2389e-07
2.21109e-07
2.22002e-07
2.21222e-07
2.21534e-07
2.03984e-07
2.80989e-07
2.35808e-07
2.13912e-07
2.14418e-07
2.11492e-07
2.12149e-07
2.11582e-07
2.11903e-07
2.29363e-07
2.77251e-07
2.28016e-07
2.05146e-07
2.05624e-07
2.02589e-07
2.03066e-07
2.02644e-07
2.0297e-07
2.0277e-07
2.61278e-07
2.72732e-07
2.20546e-07
1.96992e-07
1.974e-07
1.94287e-07
1.94571e-07
1.94292e-07
1.94617e-07
1.94428e-07
2.99203e-07
2.67522e-07
2.13579e-07
1.89363e-07
1.89666e-07
1.86509e-07
1.87691e-07
1.86442e-07
1.86758e-07
1.86586e-07
3.4156e-07
2.61943e-07
2.06962e-07
1.82188e-07
1.82366e-07
1.79187e-07
1.8031e-07
1.79025e-07
1.79327e-07
1.79183e-07
3.85477e-07
2.55697e-07
2.00534e-07
1.7542e-07
1.75461e-07
1.72285e-07
1.7331e-07
1.71995e-07
1.72273e-07
1.72177e-07
4.27158e-07
2.48791e-07
1.94195e-07
1.69029e-07
1.68928e-07
1.65786e-07
1.667e-07
1.65319e-07
1.65558e-07
1.65537e-07
4.62708e-07
2.41324e-07
1.87914e-07
1.63001e-07
1.6276e-07
1.59684e-07
1.60499e-07
1.59787e-07
1.59147e-07
1.59243e-07
4.88982e-07
2.33359e-07
1.81675e-07
1.57328e-07
1.56955e-07
1.53979e-07
1.54709e-07
1.54178e-07
1.53829e-07
1.5328e-07
5.04147e-07
2.24934e-07
1.75383e-07
1.52004e-07
1.51516e-07
1.48673e-07
1.49326e-07
1.48838e-07
1.48932e-07
1.48339e-07
5.07824e-07
2.16547e-07
1.70606e-07
1.47026e-07
1.46439e-07
1.43768e-07
1.44349e-07
1.4391e-07
1.44368e-07
1.43811e-07
5.00804e-07
2.0807e-07
1.65508e-07
1.42819e-07
1.41716e-07
1.39262e-07
1.39765e-07
1.39381e-07
1.39771e-07
1.39706e-07
4.84614e-07
1.99556e-07
1.60188e-07
1.38929e-07
1.37314e-07
1.35149e-07
1.35555e-07
1.35242e-07
1.35559e-07
1.35536e-07
4.61661e-07
1.91344e-07
1.55113e-07
1.35473e-07
1.33848e-07
1.31821e-07
1.32202e-07
1.31909e-07
1.32187e-07
1.32187e-07
4.35273e-07
1.83515e-07
1.50255e-07
1.32227e-07
1.30573e-07
1.28675e-07
1.29005e-07
1.28744e-07
1.28984e-07
1.29001e-07
4.02303e-07
1.76124e-07
1.45531e-07
1.29499e-07
1.27814e-07
1.26092e-07
1.26378e-07
1.26151e-07
1.2636e-07
1.26394e-07
3.75673e-07
1.6923e-07
1.41901e-07
1.27122e-07
1.25411e-07
1.23869e-07
1.24108e-07
1.23917e-07
1.24099e-07
1.24147e-07
)
;

boundaryField
{
    fuel
    {
        type            fixedValue;
        value           uniform 0;
    }
    wall
    {
        type            zeroGradient;
    }
    outlet
    {
        type            zeroGradient;
    }
    frontAndBack
    {
        type            empty;
    }
    procBoundary2to0
    {
        type            processor;
        value           nonuniform List<scalar> 
12
(
1.26185e-07
3.44631e-07
1.62802e-07
1.38584e-07
1.25063e-07
1.23347e-07
1.21974e-07
1.22169e-07
1.22012e-07
1.22172e-07
1.23956e-07
1.22231e-07
)
;
    }
    procBoundary2to3
    {
        type            processor;
        value           nonuniform List<scalar> 
25
(
2.10529e-06
5.02523e-07
3.21387e-07
2.84967e-07
2.67731e-07
2.54238e-07
2.42094e-07
2.31635e-07
2.21338e-07
2.11702e-07
2.11702e-07
2.02884e-07
1.94528e-07
1.86672e-07
1.79261e-07
1.72253e-07
1.65626e-07
1.59357e-07
1.54215e-07
1.48876e-07
1.43944e-07
1.39413e-07
1.35267e-07
1.31943e-07
1.28774e-07
)
;
    }
}


// ************************************************************************* //
