/*--------------------------------*- C++ -*----------------------------------*\
| =========                 |                                                 |
| \\      /  F ield         | OpenFOAM: The Open Source CFD Toolbox           |
|  \\    /   O peration     | Version:  dev                                   |
|   \\  /    A nd           | Web:      www.OpenFOAM.org                      |
|    \\/     M anipulation  |                                                 |
\*---------------------------------------------------------------------------*/
FoamFile
{
    version     2.0;
    format      ascii;
    class       volScalarField;
    location    "0.11";
    object      A2C2HA*;
}
// * * * * * * * * * * * * * * * * * * * * * * * * * * * * * * * * * * * * * //

dimensions      [0 0 0 0 0 0 0];

internalField   nonuniform List<scalar> 
250
(
8.62686e-12
1.15597e-09
1.00827e-09
9.8315e-10
9.79706e-10
9.79015e-10
9.78652e-10
9.78309e-10
9.78788e-10
5.91756e-12
7.94926e-10
6.09942e-10
5.82814e-10
5.78794e-10
5.78105e-10
5.77862e-10
5.77882e-10
5.77976e-10
2.05208e-12
4.39443e-10
3.03455e-10
2.84354e-10
2.81527e-10
2.81032e-10
2.80813e-10
2.80867e-10
2.80915e-10
7.7505e-13
2.5286e-10
1.56701e-10
1.43737e-10
1.41919e-10
1.41469e-10
1.41262e-10
1.41306e-10
1.41343e-10
4.30343e-13
1.61053e-10
8.90948e-11
7.99795e-11
7.88472e-11
7.81985e-11
7.80199e-11
7.80522e-11
7.80814e-11
5.21373e-13
1.13255e-10
5.62673e-11
4.87758e-11
4.7588e-11
4.77618e-11
4.77282e-11
4.77542e-11
4.77752e-11
2.68696e-12
8.55856e-11
3.90652e-11
3.29524e-11
3.19794e-11
3.19635e-11
3.19492e-11
3.19754e-11
3.19909e-11
1.14877e-11
6.75259e-11
2.85386e-11
2.40278e-11
2.31022e-11
2.30031e-11
2.29633e-11
2.30002e-11
2.3014e-11
1.83749e-11
5.46769e-11
2.24735e-11
1.81613e-11
1.75232e-11
1.74588e-11
1.7414e-11
1.74514e-11
1.7463e-11
2.31555e-11
4.52006e-11
1.80312e-11
1.41305e-11
1.39183e-11
1.38392e-11
1.37549e-11
1.38262e-11
1.38384e-11
2.671e-11
3.81197e-11
1.48082e-11
1.16497e-11
1.13181e-11
1.12152e-11
1.10472e-11
1.11949e-11
1.12129e-11
1.11987e-11
2.90548e-11
3.2136e-11
1.23925e-11
9.61837e-12
9.27536e-12
9.17988e-12
9.19592e-12
9.15697e-12
9.17371e-12
9.16352e-12
3.04473e-11
2.74286e-11
1.07638e-11
8.07933e-12
7.73835e-12
7.65225e-12
7.68954e-12
7.62716e-12
7.64234e-12
7.63591e-12
3.12127e-11
2.36116e-11
9.36188e-12
6.87816e-12
6.54843e-12
6.4712e-12
6.49752e-12
6.44379e-12
6.45734e-12
6.45463e-12
3.15602e-11
2.07597e-11
8.16894e-12
5.91896e-12
5.60618e-12
5.53655e-12
5.55664e-12
5.50606e-12
5.51822e-12
5.51938e-12
3.15509e-11
1.83472e-11
7.17695e-12
5.13959e-12
4.84647e-12
4.78305e-12
4.79883e-12
4.74802e-12
4.75963e-12
4.76503e-12
3.11553e-11
1.61589e-11
6.33062e-12
4.49725e-12
4.22479e-12
4.16642e-12
4.17845e-12
4.12417e-12
4.1371e-12
4.1474e-12
3.03196e-11
1.41513e-11
5.69867e-12
3.9611e-12
3.70952e-12
3.65536e-12
3.66409e-12
3.60095e-12
3.61893e-12
3.6352e-12
2.90141e-11
1.25799e-11
5.1047e-12
3.50694e-12
3.27733e-12
3.22687e-12
3.23328e-12
3.20805e-12
3.18109e-12
3.20528e-12
2.72543e-11
1.11038e-11
4.56441e-12
3.11552e-12
2.9105e-12
2.86344e-12
2.86808e-12
2.86959e-12
2.85052e-12
2.83983e-12
2.51195e-11
9.7154e-12
4.08734e-12
2.81202e-12
2.59515e-12
2.55131e-12
2.55434e-12
2.55328e-12
2.5332e-12
2.52402e-12
2.27376e-11
8.46062e-12
3.66118e-12
2.52147e-12
2.31959e-12
2.2792e-12
2.28086e-12
2.27886e-12
2.28666e-12
2.27808e-12
2.02561e-11
7.44453e-12
3.27783e-12
2.28614e-12
2.10341e-12
2.06546e-12
2.06634e-12
2.06391e-12
2.07198e-12
2.06351e-12
1.78021e-11
6.53754e-12
2.92911e-12
2.06399e-12
1.897e-12
1.8617e-12
1.86188e-12
1.85899e-12
1.86655e-12
1.8629e-12
1.5451e-11
5.72937e-12
2.60821e-12
1.87539e-12
1.72576e-12
1.69312e-12
1.69286e-12
1.69002e-12
1.69688e-12
1.69393e-12
1.32017e-11
4.96793e-12
2.34685e-12
1.70588e-12
1.57263e-12
1.54267e-12
1.54209e-12
1.53936e-12
1.54539e-12
1.54332e-12
)
;

boundaryField
{
    fuel
    {
        type            fixedValue;
        value           uniform 0;
    }
    wall
    {
        type            zeroGradient;
    }
    outlet
    {
        type            zeroGradient;
    }
    frontAndBack
    {
        type            empty;
    }
    procBoundary2to0
    {
        type            processor;
        value           nonuniform List<scalar> 
12
(
1.68603e-12
1.12009e-11
4.28206e-12
2.10838e-12
1.55334e-12
1.43548e-12
1.4082e-12
1.40739e-12
1.40481e-12
1.41002e-12
1.53606e-12
1.40882e-12
)
;
    }
    procBoundary2to3
    {
        type            processor;
        value           nonuniform List<scalar> 
25
(
9.78376e-10
5.77872e-10
2.80829e-10
1.41265e-10
7.80188e-11
4.77288e-11
3.19577e-11
2.29896e-11
1.74446e-11
1.38241e-11
1.38241e-11
1.12066e-11
9.16481e-12
7.63133e-12
6.44547e-12
5.50685e-12
4.75011e-12
4.13089e-12
3.61775e-12
3.18732e-12
2.82063e-12
2.54057e-12
2.26997e-12
2.05755e-12
1.85387e-12
)
;
    }
}


// ************************************************************************* //
