/*--------------------------------*- C++ -*----------------------------------*\
| =========                 |                                                 |
| \\      /  F ield         | OpenFOAM: The Open Source CFD Toolbox           |
|  \\    /   O peration     | Version:  dev                                   |
|   \\  /    A nd           | Web:      www.OpenFOAM.org                      |
|    \\/     M anipulation  |                                                 |
\*---------------------------------------------------------------------------*/
FoamFile
{
    version     2.0;
    format      ascii;
    class       volScalarField;
    location    "0.11";
    object      A2C2HB;
}
// * * * * * * * * * * * * * * * * * * * * * * * * * * * * * * * * * * * * * //

dimensions      [0 0 0 0 0 0 0];

internalField   nonuniform List<scalar> 
250
(
2.45807e-09
7.29448e-08
6.00744e-08
5.80788e-08
5.7793e-08
5.77356e-08
5.77407e-08
5.7746e-08
5.77341e-08
5.61995e-09
6.28961e-08
4.55106e-08
4.30571e-08
4.27037e-08
4.26357e-08
4.26268e-08
4.26335e-08
4.263e-08
7.72028e-09
4.66168e-08
3.0157e-08
2.78685e-08
2.75421e-08
2.74776e-08
2.74619e-08
2.74685e-08
2.74684e-08
9.0369e-09
3.57014e-08
2.08973e-08
1.88116e-08
1.85238e-08
1.84543e-08
1.8433e-08
1.84393e-08
1.84408e-08
9.87319e-09
2.86903e-08
1.53139e-08
1.34022e-08
1.31532e-08
1.30553e-08
1.30319e-08
1.30377e-08
1.30399e-08
1.04624e-08
2.3997e-08
1.17233e-08
9.86211e-09
9.58237e-09
9.58392e-09
9.57773e-09
9.58311e-09
9.58536e-09
1.09641e-08
2.07066e-08
9.28047e-09
7.5223e-09
7.25494e-09
7.23364e-09
7.22971e-09
7.23544e-09
7.23767e-09
1.11062e-08
1.83001e-08
7.40355e-09
5.88107e-09
5.60781e-09
5.57326e-09
5.56412e-09
5.57232e-09
5.57486e-09
1.10384e-08
1.6465e-08
6.12087e-09
4.60212e-09
4.38726e-09
4.36196e-09
4.3517e-09
4.36034e-09
4.3628e-09
1.17393e-08
1.50046e-08
5.05215e-09
3.61128e-09
3.5058e-09
3.4778e-09
3.45748e-09
3.47505e-09
3.47793e-09
1.28332e-08
1.38005e-08
4.20486e-09
2.95784e-09
2.82502e-09
2.79122e-09
2.74778e-09
2.78673e-09
2.79134e-09
2.78785e-09
1.40423e-08
1.26467e-08
3.53348e-09
2.40324e-09
2.27116e-09
2.23985e-09
2.24589e-09
2.23487e-09
2.23931e-09
2.23667e-09
1.52428e-08
1.16034e-08
3.06834e-09
1.97901e-09
1.851e-09
1.82289e-09
1.83427e-09
1.81757e-09
1.82171e-09
1.81991e-09
1.63851e-08
1.06306e-08
2.66351e-09
1.65102e-09
1.52945e-09
1.50448e-09
1.5124e-09
1.49885e-09
1.50263e-09
1.50167e-09
1.74375e-08
9.80464e-09
2.31885e-09
1.39493e-09
1.2812e-09
1.25902e-09
1.26487e-09
1.25292e-09
1.25636e-09
1.25625e-09
1.83557e-08
9.01765e-09
2.03418e-09
1.1933e-09
1.08788e-09
1.06805e-09
1.0725e-09
1.06111e-09
1.06441e-09
1.06523e-09
1.90819e-08
8.22014e-09
1.79396e-09
1.03329e-09
9.36094e-10
9.18202e-10
9.21504e-10
9.09743e-10
9.13358e-10
9.15258e-10
1.95544e-08
7.41209e-09
1.61743e-09
9.05341e-10
8.16005e-10
7.99712e-10
8.02041e-10
7.88473e-10
7.93327e-10
7.96587e-10
1.97197e-08
6.72592e-09
1.45477e-09
8.0196e-10
7.20311e-10
7.05372e-10
7.06993e-10
7.01867e-10
6.96838e-10
7.01982e-10
1.95396e-08
6.03597e-09
1.30997e-09
7.1731e-10
6.4355e-10
6.29788e-10
6.30866e-10
6.31382e-10
6.27936e-10
6.25983e-10
1.9006e-08
5.35084e-09
1.18518e-09
6.55368e-10
5.81588e-10
5.68869e-10
5.69489e-10
5.69559e-10
5.65821e-10
5.64287e-10
1.81432e-08
4.70659e-09
1.07694e-09
5.99804e-10
5.31176e-10
5.1947e-10
5.19715e-10
5.19671e-10
5.20985e-10
5.19639e-10
1.70038e-08
4.17247e-09
9.83023e-10
5.58143e-10
4.94919e-10
4.83955e-10
4.83972e-10
4.83929e-10
4.8529e-10
4.84024e-10
1.56538e-08
3.69071e-09
9.01251e-10
5.22341e-10
4.63852e-10
4.53656e-10
4.5348e-10
4.53471e-10
4.54743e-10
4.54277e-10
1.41548e-08
3.26206e-09
8.29908e-10
4.95486e-10
4.41613e-10
4.32142e-10
4.3183e-10
4.31952e-10
4.33083e-10
4.32811e-10
1.25445e-08
2.86262e-09
7.75804e-10
4.75288e-10
4.25665e-10
4.16914e-10
4.16495e-10
4.16787e-10
4.17733e-10
4.17702e-10
)
;

boundaryField
{
    fuel
    {
        type            fixedValue;
        value           uniform 0;
    }
    wall
    {
        type            zeroGradient;
    }
    outlet
    {
        type            zeroGradient;
    }
    frontAndBack
    {
        type            empty;
    }
    procBoundary2to0
    {
        type            processor;
        value           nonuniform List<scalar> 
12
(
4.31918e-10
1.09766e-08
2.51023e-09
7.31066e-10
4.61697e-10
4.16006e-10
4.07979e-10
4.0747e-10
4.0797e-10
4.08716e-10
4.17037e-10
4.08943e-10
)
;
    }
    procBoundary2to3
    {
        type            processor;
        value           nonuniform List<scalar> 
25
(
5.77458e-08
4.26336e-08
2.7467e-08
1.84366e-08
1.30346e-08
9.57999e-09
7.2328e-09
5.57054e-09
4.35909e-09
3.47477e-09
3.47477e-09
2.79051e-09
2.23776e-09
1.81954e-09
1.50016e-09
1.25394e-09
1.06236e-09
9.12039e-10
7.9315e-10
6.9839e-10
6.22047e-10
5.6737e-10
5.1832e-10
4.83161e-10
4.53087e-10
)
;
    }
}


// ************************************************************************* //
