/*--------------------------------*- C++ -*----------------------------------*\
| =========                 |                                                 |
| \\      /  F ield         | OpenFOAM: The Open Source CFD Toolbox           |
|  \\    /   O peration     | Version:  dev                                   |
|   \\  /    A nd           | Web:      www.OpenFOAM.org                      |
|    \\/     M anipulation  |                                                 |
\*---------------------------------------------------------------------------*/
FoamFile
{
    version     2.0;
    format      ascii;
    class       volScalarField;
    location    "0.11";
    object      A2C2HA*;
}
// * * * * * * * * * * * * * * * * * * * * * * * * * * * * * * * * * * * * * //

dimensions      [0 0 0 0 0 0 0];

internalField   nonuniform List<scalar> 
50
(
7.95568e-20
7.19632e-20
6.5101e-20
5.89176e-20
5.33524e-20
4.83399e-20
4.39312e-20
3.98743e-20
3.62105e-20
3.29009e-20
2.99802e-20
2.73031e-20
2.48529e-20
2.26871e-20
2.07247e-20
1.89087e-20
1.72946e-20
1.58222e-20
1.44932e-20
1.32743e-20
1.21543e-20
1.11363e-20
1.02328e-20
9.40873e-21
8.65717e-21
7.97162e-21
7.34601e-21
6.77503e-21
6.25439e-21
5.77371e-21
5.32932e-21
4.9226e-21
4.55952e-21
4.22548e-21
3.91811e-21
3.63519e-21
3.37478e-21
3.13004e-21
2.90854e-21
2.70236e-21
2.50821e-21
2.32875e-21
2.16201e-21
2.01146e-21
1.86785e-21
1.73665e-21
1.61332e-21
1.49855e-21
1.39081e-21
1.289e-21
)
;

boundaryField
{
    wall
    {
        type            zeroGradient;
    }
    fuel
    {
        type            fixedValue;
        value           nonuniform 0();
    }
    outlet
    {
        type            inletOutlet;
        inletValue      nonuniform 0();
        value           nonuniform 0();
    }
    procBoundary2to1
    {
        type            processor;
        value           uniform 8.80472e-20;
    }
    procBoundary2to3
    {
        type            processor;
        value           uniform 1.19396e-21;
    }
}


// ************************************************************************* //
