/*--------------------------------*- C++ -*----------------------------------*\
| =========                 |                                                 |
| \\      /  F ield         | OpenFOAM: The Open Source CFD Toolbox           |
|  \\    /   O peration     | Version:  dev                                   |
|   \\  /    A nd           | Web:      www.OpenFOAM.org                      |
|    \\/     M anipulation  |                                                 |
\*---------------------------------------------------------------------------*/
FoamFile
{
    version     2.0;
    format      ascii;
    class       volScalarField;
    location    "0.11";
    object      A2C2H22;
}
// * * * * * * * * * * * * * * * * * * * * * * * * * * * * * * * * * * * * * //

dimensions      [0 0 0 0 0 0 0];

internalField   nonuniform List<scalar> 
250
(
1.00986e-14
2.80121e-12
2.01114e-12
1.92691e-12
1.91569e-12
1.91412e-12
1.91324e-12
1.91404e-12
1.91637e-12
9.55577e-15
2.9883e-12
1.49376e-12
1.37406e-12
1.36211e-12
1.36069e-12
1.35999e-12
1.35977e-12
1.36039e-12
6.54131e-15
2.53174e-12
1.00169e-12
8.86689e-13
8.75515e-13
8.73924e-13
8.73715e-13
8.73285e-13
8.73383e-13
3.73752e-15
2.10208e-12
7.16143e-13
6.10004e-13
5.99587e-13
5.97942e-13
5.97959e-13
5.97522e-13
5.97325e-13
2.0141e-15
1.7454e-12
5.40209e-13
4.43127e-13
4.33502e-13
4.31934e-13
4.3203e-13
4.31631e-13
4.3143e-13
1.09878e-15
1.45733e-12
4.18037e-13
3.29245e-13
3.18554e-13
3.16538e-13
3.16609e-13
3.16164e-13
3.16463e-13
7.03108e-16
1.22689e-12
3.31732e-13
2.52138e-13
2.4192e-13
2.40009e-13
2.4006e-13
2.39617e-13
2.40095e-13
6.28788e-16
1.01067e-12
2.6732e-13
1.96905e-13
1.86978e-13
1.85165e-13
1.85185e-13
1.8471e-13
1.85173e-13
8.68781e-16
8.46422e-13
2.14071e-13
1.54218e-13
1.46735e-13
1.45298e-13
1.45346e-13
1.45046e-13
1.4527e-13
1.1989e-15
7.06141e-13
1.70378e-13
1.20324e-13
1.1363e-13
1.12335e-13
1.12356e-13
1.12047e-13
1.12395e-13
1.51708e-15
5.83793e-13
1.40235e-13
9.82265e-14
9.21212e-14
9.09374e-14
9.0945e-14
9.06202e-14
9.10552e-14
9.08443e-14
1.85542e-15
4.63316e-13
1.15157e-13
8.00052e-14
7.41227e-14
7.30133e-14
7.30116e-14
7.26779e-14
7.31213e-14
7.29777e-14
2.49228e-15
3.62669e-13
9.4129e-14
6.57644e-14
6.0532e-14
5.95128e-14
5.95101e-14
5.9162e-14
5.95671e-14
5.94994e-14
3.78509e-15
2.92558e-13
7.76106e-14
5.47805e-14
5.01351e-14
4.91928e-14
4.91954e-14
4.88243e-14
4.91906e-14
4.91577e-14
6.12167e-15
2.34821e-13
6.45447e-14
4.61723e-14
4.20496e-14
4.11725e-14
4.11842e-14
4.07797e-14
4.11295e-14
4.10881e-14
9.53614e-15
1.87902e-13
5.40998e-14
3.93127e-14
3.5653e-14
3.48321e-14
3.4854e-14
3.44036e-14
3.47653e-14
3.4695e-14
1.41115e-14
1.50458e-13
4.5544e-14
3.37556e-14
3.05059e-14
2.9735e-14
2.97671e-14
2.92532e-14
2.96568e-14
2.95569e-14
1.95373e-14
1.20098e-13
3.9084e-14
2.91835e-14
2.62969e-14
2.55729e-14
2.56147e-14
2.50078e-14
2.54907e-14
2.53689e-14
2.52906e-14
9.28244e-14
3.37958e-14
2.53664e-14
2.28037e-14
2.21255e-14
2.21782e-14
2.18703e-14
2.2044e-14
2.19078e-14
3.08518e-14
7.51631e-14
2.93261e-14
2.21347e-14
1.98649e-14
1.92328e-14
1.92928e-14
1.89221e-14
1.91527e-14
1.90097e-14
3.57022e-14
6.17898e-14
2.55878e-14
1.9361e-14
1.73612e-14
1.67763e-14
1.68419e-14
1.66907e-14
1.66977e-14
1.65528e-14
3.96146e-14
5.16108e-14
2.24197e-14
1.69438e-14
1.51996e-14
1.46632e-14
1.47297e-14
1.45686e-14
1.45844e-14
1.44421e-14
4.23844e-14
4.3804e-14
1.96908e-14
1.50727e-14
1.35202e-14
1.30285e-14
1.30927e-14
1.29302e-14
1.29468e-14
1.28048e-14
4.41497e-14
3.77542e-14
1.75594e-14
1.33914e-14
1.19855e-14
1.15228e-14
1.15896e-14
1.14195e-14
1.15012e-14
1.13903e-14
4.50293e-14
3.29908e-14
1.55697e-14
1.19562e-14
1.07099e-14
1.02897e-14
1.03515e-14
1.01893e-14
1.02708e-14
1.01652e-14
4.51328e-14
2.88047e-14
1.39185e-14
1.06966e-14
9.59558e-15
9.21719e-15
9.27312e-15
9.12175e-15
9.20045e-15
9.10295e-15
)
;

boundaryField
{
    fuel
    {
        type            fixedValue;
        value           uniform 0;
    }
    wall
    {
        type            zeroGradient;
    }
    outlet
    {
        type            zeroGradient;
    }
    frontAndBack
    {
        type            empty;
    }
    procBoundary2to0
    {
        type            processor;
        value           nonuniform List<scalar> 
12
(
1.02098e-14
4.45461e-14
2.5578e-14
1.24604e-14
9.59198e-15
8.62303e-15
8.28614e-15
8.33549e-15
8.19735e-15
8.27107e-15
9.14505e-15
8.18321e-15
)
;
    }
    procBoundary2to3
    {
        type            processor;
        value           nonuniform List<scalar> 
25
(
1.91591e-12
1.36011e-12
8.7322e-13
5.97171e-13
4.31243e-13
3.16449e-13
2.40051e-13
1.85071e-13
1.45079e-13
1.12178e-13
1.12178e-13
9.08474e-14
7.28592e-14
5.93151e-14
4.8968e-14
4.09319e-14
3.45823e-14
2.94793e-14
2.53118e-14
2.18578e-14
1.89539e-14
1.64762e-14
1.45709e-14
1.29394e-14
1.14357e-14
)
;
    }
}


// ************************************************************************* //
