/*--------------------------------*- C++ -*----------------------------------*\
| =========                 |                                                 |
| \\      /  F ield         | OpenFOAM: The Open Source CFD Toolbox           |
|  \\    /   O peration     | Version:  dev                                   |
|   \\  /    A nd           | Web:      www.OpenFOAM.org                      |
|    \\/     M anipulation  |                                                 |
\*---------------------------------------------------------------------------*/
FoamFile
{
    version     2.0;
    format      ascii;
    class       volScalarField;
    location    "0.11";
    object      C;
}
// * * * * * * * * * * * * * * * * * * * * * * * * * * * * * * * * * * * * * //

dimensions      [0 0 0 0 0 0 0];

internalField   nonuniform List<scalar> 
50
(
7.67915e-14
7.1993e-14
6.7577e-14
6.35233e-14
5.98042e-14
5.63894e-14
5.33304e-14
5.04653e-14
4.78368e-14
4.54306e-14
4.32854e-14
4.13038e-14
3.94825e-14
3.78737e-14
3.64234e-14
3.50949e-14
3.3935e-14
3.29036e-14
3.20049e-14
3.12185e-14
3.05399e-14
2.99738e-14
2.95273e-14
2.91803e-14
2.89291e-14
2.87697e-14
2.86979e-14
2.87093e-14
2.87995e-14
2.89663e-14
2.92088e-14
2.95237e-14
2.98995e-14
3.03422e-14
3.08491e-14
3.14175e-14
3.20441e-14
3.27391e-14
3.34741e-14
3.42641e-14
3.51161e-14
3.60134e-14
3.69583e-14
3.79205e-14
3.89474e-14
3.99933e-14
4.10845e-14
4.22103e-14
4.33834e-14
4.46174e-14
)
;

boundaryField
{
    wall
    {
        type            zeroGradient;
    }
    fuel
    {
        type            fixedValue;
        value           nonuniform 0();
    }
    outlet
    {
        type            inletOutlet;
        inletValue      nonuniform 0();
        value           nonuniform 0();
    }
    procBoundary2to1
    {
        type            processor;
        value           uniform 8.21015e-14;
    }
    procBoundary2to3
    {
        type            processor;
        value           uniform 4.59018e-14;
    }
}


// ************************************************************************* //
