/*--------------------------------*- C++ -*----------------------------------*\
| =========                 |                                                 |
| \\      /  F ield         | OpenFOAM: The Open Source CFD Toolbox           |
|  \\    /   O peration     | Version:  dev                                   |
|   \\  /    A nd           | Web:      www.OpenFOAM.org                      |
|    \\/     M anipulation  |                                                 |
\*---------------------------------------------------------------------------*/
FoamFile
{
    version     2.0;
    format      ascii;
    class       volScalarField;
    location    "0.11";
    object      C6H5O;
}
// * * * * * * * * * * * * * * * * * * * * * * * * * * * * * * * * * * * * * //

dimensions      [0 0 0 0 0 0 0];

internalField   nonuniform List<scalar> 
50
(
5.95214e-21
5.57373e-21
5.22753e-21
4.91169e-21
4.62388e-21
4.36147e-21
4.12796e-21
3.91046e-21
3.71176e-21
3.53039e-21
3.36895e-21
3.21986e-21
3.08271e-21
2.96135e-21
2.85166e-21
2.75085e-21
2.66255e-21
2.58378e-21
2.51503e-21
2.45494e-21
2.40344e-21
2.36115e-21
2.32887e-21
2.30546e-21
2.29098e-21
2.28555e-21
2.28925e-21
2.30219e-21
2.3244e-21
2.35638e-21
2.39855e-21
2.45071e-21
2.51126e-21
2.58163e-21
2.66162e-21
2.75094e-21
2.84911e-21
2.95779e-21
3.07197e-21
3.19377e-21
3.32363e-21
3.45778e-21
3.59519e-21
3.72985e-21
3.86723e-21
3.9989e-21
4.12631e-21
4.24561e-21
4.35558e-21
4.45461e-21
)
;

boundaryField
{
    wall
    {
        type            zeroGradient;
    }
    fuel
    {
        type            fixedValue;
        value           nonuniform 0();
    }
    outlet
    {
        type            inletOutlet;
        inletValue      nonuniform 0();
        value           nonuniform 0();
    }
    procBoundary2to1
    {
        type            processor;
        value           uniform 6.36509e-21;
    }
    procBoundary2to3
    {
        type            processor;
        value           uniform 4.53718e-21;
    }
}


// ************************************************************************* //
