/*--------------------------------*- C++ -*----------------------------------*\
| =========                 |                                                 |
| \\      /  F ield         | OpenFOAM: The Open Source CFD Toolbox           |
|  \\    /   O peration     | Version:  dev                                   |
|   \\  /    A nd           | Web:      www.OpenFOAM.org                      |
|    \\/     M anipulation  |                                                 |
\*---------------------------------------------------------------------------*/
FoamFile
{
    version     2.0;
    format      ascii;
    class       volScalarField;
    location    "0.11";
    object      CH2CO;
}
// * * * * * * * * * * * * * * * * * * * * * * * * * * * * * * * * * * * * * //

dimensions      [0 0 0 0 0 0 0];

internalField   nonuniform List<scalar> 
50
(
2.74399e-13
2.6147e-13
2.499e-13
2.39584e-13
2.30418e-13
2.22296e-13
2.15304e-13
2.09049e-13
2.03613e-13
1.98952e-13
1.95125e-13
1.91951e-13
1.89438e-13
1.87656e-13
1.86543e-13
1.86092e-13
1.86333e-13
1.87276e-13
1.88926e-13
1.91339e-13
1.9457e-13
1.98633e-13
2.03447e-13
2.09164e-13
2.1583e-13
2.23501e-13
2.32232e-13
2.42076e-13
2.53075e-13
2.65442e-13
2.79301e-13
2.94608e-13
3.11003e-13
3.29009e-13
3.48703e-13
3.70168e-13
3.93479e-13
4.19248e-13
4.46561e-13
4.76224e-13
5.08725e-13
5.43575e-13
5.81006e-13
6.19889e-13
6.62418e-13
7.06779e-13
7.54237e-13
8.04362e-13
8.57682e-13
9.14688e-13
)
;

boundaryField
{
    wall
    {
        type            zeroGradient;
    }
    fuel
    {
        type            fixedValue;
        value           nonuniform 0();
    }
    outlet
    {
        type            inletOutlet;
        inletValue      nonuniform 0();
        value           nonuniform 0();
    }
    procBoundary2to1
    {
        type            processor;
        value           uniform 2.88925e-13;
    }
    procBoundary2to3
    {
        type            processor;
        value           uniform 9.7478e-13;
    }
}


// ************************************************************************* //
