/*--------------------------------*- C++ -*----------------------------------*\
| =========                 |                                                 |
| \\      /  F ield         | OpenFOAM: The Open Source CFD Toolbox           |
|  \\    /   O peration     | Version:  dev                                   |
|   \\  /    A nd           | Web:      www.OpenFOAM.org                      |
|    \\/     M anipulation  |                                                 |
\*---------------------------------------------------------------------------*/
FoamFile
{
    version     2.0;
    format      ascii;
    class       volScalarField;
    location    "0.11";
    object      HCCO;
}
// * * * * * * * * * * * * * * * * * * * * * * * * * * * * * * * * * * * * * //

dimensions      [0 0 0 0 0 0 0];

internalField   nonuniform List<scalar> 
50
(
4.7811e-14
4.44233e-14
4.13779e-14
3.86437e-14
3.61884e-14
3.39802e-14
3.204e-14
3.02575e-14
2.86517e-14
2.72069e-14
2.59394e-14
2.47883e-14
2.37486e-14
2.28458e-14
2.20476e-14
2.13332e-14
2.07253e-14
2.02019e-14
1.97641e-14
1.94019e-14
1.91131e-14
1.88988e-14
1.87596e-14
1.86879e-14
1.86825e-14
1.87416e-14
1.88638e-14
1.90475e-14
1.92905e-14
1.95952e-14
1.99621e-14
2.03871e-14
2.08562e-14
2.13813e-14
2.19615e-14
2.25957e-14
2.32825e-14
2.4036e-14
2.48247e-14
2.56684e-14
2.65761e-14
2.75288e-14
2.85283e-14
2.95404e-14
3.06188e-14
3.17117e-14
3.28467e-14
3.40092e-14
3.52088e-14
3.64537e-14
)
;

boundaryField
{
    wall
    {
        type            zeroGradient;
    }
    fuel
    {
        type            fixedValue;
        value           nonuniform 0();
    }
    outlet
    {
        type            inletOutlet;
        inletValue      nonuniform 0();
        value           nonuniform 0();
    }
    procBoundary2to1
    {
        type            processor;
        value           uniform 5.1622e-14;
    }
    procBoundary2to3
    {
        type            processor;
        value           uniform 3.77318e-14;
    }
}


// ************************************************************************* //
