/*--------------------------------*- C++ -*----------------------------------*\
| =========                 |                                                 |
| \\      /  F ield         | OpenFOAM: The Open Source CFD Toolbox           |
|  \\    /   O peration     | Version:  dev                                   |
|   \\  /    A nd           | Web:      www.OpenFOAM.org                      |
|    \\/     M anipulation  |                                                 |
\*---------------------------------------------------------------------------*/
FoamFile
{
    version     2.0;
    format      ascii;
    class       volScalarField;
    location    "0.11";
    object      O;
}
// * * * * * * * * * * * * * * * * * * * * * * * * * * * * * * * * * * * * * //

dimensions      [0 0 0 0 0 0 0];

internalField   nonuniform List<scalar> 
250
(
1.02669e-08
2.70228e-05
2.67984e-05
2.67417e-05
2.67931e-05
2.68055e-05
2.68e-05
2.67846e-05
2.67553e-05
4.38968e-09
1.26644e-05
1.24184e-05
1.24205e-05
1.24348e-05
1.24354e-05
1.24356e-05
1.24309e-05
1.24268e-05
2.28709e-09
5.00706e-06
4.86523e-06
4.89458e-06
4.90122e-06
4.89946e-06
4.90148e-06
4.8989e-06
4.89914e-06
1.28395e-09
2.00357e-06
1.8741e-06
1.90335e-06
1.90727e-06
1.90602e-06
1.90766e-06
1.90618e-06
1.90671e-06
1.05385e-09
8.78168e-07
7.82402e-07
8.07736e-07
8.11614e-07
8.1142e-07
8.12447e-07
8.11693e-07
8.1205e-07
1.8202e-09
4.30537e-07
3.73951e-07
3.93835e-07
3.93778e-07
3.92911e-07
3.93427e-07
3.92898e-07
3.93401e-07
5.36865e-09
2.35332e-07
2.17574e-07
2.36569e-07
2.37313e-07
2.3696e-07
2.37263e-07
2.36942e-07
2.37486e-07
1.57115e-08
1.31844e-07
1.5112e-07
1.69745e-07
1.70635e-07
1.70481e-07
1.70667e-07
1.70407e-07
1.70852e-07
3.32605e-08
8.41874e-08
1.18162e-07
1.37225e-07
1.39421e-07
1.39519e-07
1.39679e-07
1.39558e-07
1.39742e-07
4.40522e-08
5.85135e-08
1.007e-07
1.1975e-07
1.22016e-07
1.22155e-07
1.22279e-07
1.22141e-07
1.22296e-07
3.8893e-08
4.38731e-08
9.20692e-08
1.11101e-07
1.13429e-07
1.13588e-07
1.137e-07
1.13536e-07
1.13694e-07
1.13621e-07
3.04884e-08
3.44265e-08
8.66396e-08
1.05287e-07
1.07567e-07
1.07726e-07
1.07835e-07
1.07636e-07
1.07806e-07
1.07728e-07
2.633e-08
2.92401e-08
8.29542e-08
1.01184e-07
1.03521e-07
1.03678e-07
1.03793e-07
1.03546e-07
1.03735e-07
1.0365e-07
2.43929e-08
2.70421e-08
8.03866e-08
9.79916e-08
1.0034e-07
1.00484e-07
1.00609e-07
1.003e-07
1.0052e-07
1.00419e-07
2.22633e-08
2.63272e-08
7.8395e-08
9.52064e-08
9.75238e-08
9.76427e-08
9.7781e-08
9.73948e-08
9.76604e-08
9.75302e-08
1.94913e-08
2.6659e-08
7.66519e-08
9.25492e-08
9.47949e-08
9.48767e-08
9.50323e-08
9.45469e-08
9.48799e-08
9.471e-08
1.63628e-08
2.77316e-08
7.49199e-08
8.98505e-08
9.1987e-08
9.20194e-08
9.21955e-08
9.15823e-08
9.201e-08
9.17936e-08
1.34984e-08
2.93449e-08
7.32338e-08
8.69962e-08
8.89891e-08
8.89598e-08
8.91606e-08
8.8374e-08
8.8939e-08
8.86709e-08
1.13795e-08
3.15418e-08
7.13847e-08
8.38997e-08
8.57187e-08
8.5616e-08
8.5848e-08
8.52586e-08
8.55849e-08
8.52597e-08
1.02727e-08
3.34537e-08
6.92e-08
8.04865e-08
8.21084e-08
8.19217e-08
8.21867e-08
8.14173e-08
8.18787e-08
8.14935e-08
1.02468e-08
3.5189e-08
6.66349e-08
7.66873e-08
7.80987e-08
7.78191e-08
7.81213e-08
7.76398e-08
7.7763e-08
7.73137e-08
1.11984e-08
3.65681e-08
6.36319e-08
7.24261e-08
7.36293e-08
7.32506e-08
7.35866e-08
7.29966e-08
7.31765e-08
7.26611e-08
1.28085e-08
3.74391e-08
6.01415e-08
6.82524e-08
6.9223e-08
6.87571e-08
6.91198e-08
6.84392e-08
6.86592e-08
6.80704e-08
1.4711e-08
3.76908e-08
5.65733e-08
6.35542e-08
6.41628e-08
6.35432e-08
6.39564e-08
6.31435e-08
6.36507e-08
6.30946e-08
1.65043e-08
3.72461e-08
5.23034e-08
5.86071e-08
5.89725e-08
5.82684e-08
5.87035e-08
5.7816e-08
5.83805e-08
5.7766e-08
1.78629e-08
3.59821e-08
4.78971e-08
5.33206e-08
5.34547e-08
5.26787e-08
5.31317e-08
5.21825e-08
5.27956e-08
5.21353e-08
)
;

boundaryField
{
    fuel
    {
        type            fixedValue;
        value           uniform 0;
    }
    wall
    {
        type            zeroGradient;
    }
    outlet
    {
        type            zeroGradient;
    }
    frontAndBack
    {
        type            empty;
    }
    procBoundary2to0
    {
        type            processor;
        value           nonuniform List<scalar> 
12
(
5.79615e-08
1.85244e-08
3.4098e-08
4.31599e-08
4.77557e-08
4.76746e-08
4.68507e-08
4.73128e-08
4.63228e-08
4.69713e-08
5.23496e-08
4.62798e-08
)
;
    }
    procBoundary2to3
    {
        type            processor;
        value           nonuniform List<scalar> 
25
(
2.6756e-05
1.24264e-05
4.89885e-06
1.9065e-06
8.11922e-07
3.93522e-07
2.37642e-07
1.70917e-07
1.39709e-07
1.22237e-07
1.22237e-07
1.13624e-07
1.07706e-07
1.03612e-07
1.00376e-07
9.74923e-08
9.46808e-08
9.1772e-08
8.86531e-08
8.52401e-08
8.14609e-08
7.72455e-08
7.30736e-08
6.85348e-08
6.32662e-08
)
;
    }
}


// ************************************************************************* //
