/*--------------------------------*- C++ -*----------------------------------*\
| =========                 |                                                 |
| \\      /  F ield         | OpenFOAM: The Open Source CFD Toolbox           |
|  \\    /   O peration     | Version:  dev                                   |
|   \\  /    A nd           | Web:      www.OpenFOAM.org                      |
|    \\/     M anipulation  |                                                 |
\*---------------------------------------------------------------------------*/
FoamFile
{
    version     2.0;
    format      ascii;
    class       volScalarField;
    location    "0.11";
    object      O2;
}
// * * * * * * * * * * * * * * * * * * * * * * * * * * * * * * * * * * * * * //

dimensions      [0 0 0 0 0 0 0];

internalField   nonuniform List<scalar> 
50
(
1.81592e-06
1.73358e-06
1.65385e-06
1.57691e-06
1.50281e-06
1.43146e-06
1.36447e-06
1.29876e-06
1.23559e-06
1.17492e-06
1.11811e-06
1.0629e-06
1.0094e-06
9.59374e-07
9.11476e-07
8.64666e-07
8.20776e-07
7.78575e-07
7.38467e-07
6.99762e-07
6.62362e-07
6.26645e-07
5.9339e-07
5.61598e-07
5.31239e-07
5.02269e-07
4.74642e-07
4.48318e-07
4.2329e-07
3.99218e-07
3.76059e-07
3.54032e-07
3.33635e-07
3.14199e-07
2.95703e-07
2.78122e-07
2.61436e-07
2.45289e-07
2.30275e-07
2.1594e-07
2.02117e-07
1.89064e-07
1.76702e-07
1.65358e-07
1.54379e-07
1.44234e-07
1.3461e-07
1.25595e-07
1.17091e-07
1.09026e-07
)
;

boundaryField
{
    wall
    {
        type            zeroGradient;
    }
    fuel
    {
        type            fixedValue;
        value           nonuniform 0();
    }
    outlet
    {
        type            inletOutlet;
        inletValue      nonuniform 0();
        value           nonuniform 0();
    }
    procBoundary2to1
    {
        type            processor;
        value           uniform 1.90233e-06;
    }
    procBoundary2to3
    {
        type            processor;
        value           uniform 1.01439e-07;
    }
}


// ************************************************************************* //
