/*--------------------------------*- C++ -*----------------------------------*\
| =========                 |                                                 |
| \\      /  F ield         | OpenFOAM: The Open Source CFD Toolbox           |
|  \\    /   O peration     | Version:  dev                                   |
|   \\  /    A nd           | Web:      www.OpenFOAM.org                      |
|    \\/     M anipulation  |                                                 |
\*---------------------------------------------------------------------------*/
FoamFile
{
    version     2.0;
    format      ascii;
    class       volScalarField;
    location    "0.11";
    object      P2-;
}
// * * * * * * * * * * * * * * * * * * * * * * * * * * * * * * * * * * * * * //

dimensions      [0 0 0 0 0 0 0];

internalField   nonuniform List<scalar> 
50
(
3.72232e-22
3.39344e-22
3.09614e-22
2.82774e-22
2.58536e-22
2.36603e-22
2.17195e-22
1.99222e-22
1.82872e-22
1.67984e-22
1.5473e-22
1.42475e-22
1.31157e-22
1.21051e-22
1.11801e-22
1.03155e-22
9.5386e-23
8.82207e-23
8.16799e-23
7.56132e-23
6.9973e-23
6.4781e-23
6.011e-23
5.57914e-23
5.1798e-23
4.81029e-23
4.46808e-23
4.15093e-23
3.85712e-23
3.58133e-23
3.32179e-23
3.07962e-23
2.85887e-23
2.65155e-23
2.45678e-23
2.27371e-23
2.10168e-23
1.93675e-23
1.78444e-23
1.64004e-23
1.50176e-23
1.37188e-23
1.24949e-23
1.13763e-23
1.03009e-23
9.31315e-24
8.38329e-24
7.52028e-24
6.71655e-24
5.96747e-24
)
;

boundaryField
{
    wall
    {
        type            zeroGradient;
    }
    fuel
    {
        type            fixedValue;
        value           nonuniform 0();
    }
    outlet
    {
        type            inletOutlet;
        inletValue      nonuniform 0();
        value           nonuniform 0();
    }
    procBoundary2to1
    {
        type            processor;
        value           uniform 4.08987e-22;
    }
    procBoundary2to3
    {
        type            processor;
        value           uniform 5.28035e-24;
    }
}


// ************************************************************************* //
