/*--------------------------------*- C++ -*----------------------------------*\
| =========                 |                                                 |
| \\      /  F ield         | OpenFOAM: The Open Source CFD Toolbox           |
|  \\    /   O peration     | Version:  dev                                   |
|   \\  /    A nd           | Web:      www.OpenFOAM.org                      |
|    \\/     M anipulation  |                                                 |
\*---------------------------------------------------------------------------*/
FoamFile
{
    version     2.0;
    format      ascii;
    class       volScalarField;
    location    "0.11";
    object      T;
}
// * * * * * * * * * * * * * * * * * * * * * * * * * * * * * * * * * * * * * //

dimensions      [0 0 0 1 0 0 0];

internalField   nonuniform List<scalar> 
250
(
428.862
1698.12
1741.31
1744.97
1745.26
1745.25
1745.33
1745.3
1745.28
527.108
1903.47
1958.39
1963.02
1963.42
1963.42
1963.47
1963.44
1963.44
601.596
1942.33
2016.12
2022.3
2022.85
2022.85
2022.89
2022.87
2022.87
657.444
1940.8
2034.49
2042.47
2043.2
2043.21
2043.25
2043.22
2043.22
703.446
1929.72
2040.36
2050.15
2051.04
2051.06
2051.11
2051.07
2051.07
747.998
1918.71
2041.55
2053.05
2054.12
2054.16
2054.21
2054.17
2054.18
798.271
1910.85
2040.86
2053.81
2055.04
2055.09
2055.14
2055.09
2055.11
860.4
1906.04
2039.49
2053.6
2054.97
2055.04
2055.08
2055.03
2055.05
939.522
1904.11
2037.8
2052.86
2054.39
2054.48
2054.53
2054.46
2054.49
1035.49
1904.41
2036.08
2051.78
2053.44
2053.55
2053.6
2053.52
2053.57
1142.32
1906.81
2034.65
2050.67
2052.42
2052.53
2052.6
2052.49
2052.56
2052.51
1245.43
1911.52
2033.31
2049.37
2051.16
2051.28
2051.35
2051.21
2051.3
2051.24
1342.69
1917.89
2032.05
2047.93
2049.77
2049.89
2049.97
2049.78
2049.9
2049.84
1432.18
1924.54
2030.87
2046.38
2048.25
2048.35
2048.44
2048.21
2048.36
2048.28
1516.34
1931.84
2029.7
2044.7
2046.56
2046.64
2046.75
2046.45
2046.65
2046.54
1589.61
1939.41
2028.48
2042.85
2044.68
2044.73
2044.85
2044.47
2044.73
2044.59
1654.99
1946.92
2027.1
2040.79
2042.56
2042.57
2042.71
2042.23
2042.56
2042.38
1712.3
1954.22
2025.62
2038.47
2040.15
2040.11
2040.28
2039.66
2040.09
2039.86
1761.73
1961.65
2023.86
2035.82
2037.39
2037.29
2037.49
2036.97
2037.25
2036.97
1803.61
1967.37
2021.68
2032.76
2034.2
2034.02
2034.26
2033.6
2033.98
2033.63
1838.38
1972.04
2019
2029.21
2030.51
2030.23
2030.51
2030.03
2030.17
2029.75
1867.05
1975.54
2015.71
2025.06
2026.2
2025.81
2026.14
2025.53
2025.74
2025.23
1889.4
1977.76
2011.7
2020.65
2021.6
2021.09
2021.46
2020.73
2021.01
2020.39
1906.44
1978.64
2007.24
2015.42
2016.05
2015.35
2015.8
2014.88
2015.44
2014.8
1918.7
1978.07
2001.65
2009.48
2009.86
2008.99
2009.5
2008.41
2009.1
2008.34
1926.65
1975.86
1995.31
2002.59
2002.68
2001.63
2002.22
2000.94
2001.76
2000.87
)
;

boundaryField
{
    fuel
    {
        type            fixedValue;
        value           uniform 353;
    }
    wall
    {
        type            fixedValue;
        value           nonuniform 0();
    }
    outlet
    {
        type            inletOutlet;
        inletValue      uniform 353;
        value           nonuniform List<scalar> 
26
(
429.352
353
353
353
353
353
353
353
353
353
1144.04
1247.59
1345.29
1435.22
1518.97
1592.43
1657.87
1715.1
1764.38
1806.07
1840.57
1868.98
1891.04
1907.82
1919.82
1927.53
)
;
    }
    frontAndBack
    {
        type            empty;
    }
    procBoundary2to0
    {
        type            processor;
        value           nonuniform List<scalar> 
12
(
2008.59
1930.64
1972.15
1987.82
1994.58
1994.36
1993.13
1993.8
1992.31
1993.28
2001.16
1992.23
)
;
    }
    procBoundary2to3
    {
        type            processor;
        value           nonuniform List<scalar> 
25
(
1745.28
1963.44
2022.87
2043.22
2051.07
2054.17
2055.09
2055.03
2054.47
2053.53
2053.53
2052.5
2051.23
2049.82
2048.26
2046.52
2044.57
2042.37
2039.85
2036.96
2033.62
2029.74
2025.6
2020.83
2015.01
)
;
    }
}


// ************************************************************************* //
