/*--------------------------------*- C++ -*----------------------------------*\
| =========                 |                                                 |
| \\      /  F ield         | OpenFOAM: The Open Source CFD Toolbox           |
|  \\    /   O peration     | Version:  dev                                   |
|   \\  /    A nd           | Web:      www.OpenFOAM.org                      |
|    \\/     M anipulation  |                                                 |
\*---------------------------------------------------------------------------*/
FoamFile
{
    version     2.0;
    format      ascii;
    class       volVectorField;
    location    "0.11";
    object      U;
}
// * * * * * * * * * * * * * * * * * * * * * * * * * * * * * * * * * * * * * //

dimensions      [0 1 -1 0 0 0 0];

internalField   nonuniform List<vector> 
250
(
(0 0.162163 0.123971)
(0 -0.0966731 0.474169)
(0 0.130077 0.489949)
(0 0.00825136 0.492567)
(0 0.0601375 0.491088)
(0 0.0249335 0.492104)
(0 0.0340569 0.491473)
(0 0.0152774 0.49179)
(0 0.0163586 0.491848)
(0 0.299566 0.153517)
(0 -0.156113 0.654269)
(0 0.225166 0.690116)
(0 0.0255734 0.690735)
(0 0.108405 0.689471)
(0 0.0487533 0.690596)
(0 0.0626762 0.689679)
(0 0.0295563 0.690137)
(0 0.0310973 0.690279)
(0 0.385665 0.17284)
(0 -0.188547 0.666493)
(0 0.305822 0.738966)
(0 0.0501218 0.735744)
(0 0.153526 0.735149)
(0 0.074015 0.736186)
(0 0.0903983 0.735065)
(0 0.0445679 0.734716)
(0 0.0460038 0.735138)
(0 0.456487 0.187452)
(0 -0.198461 0.630937)
(0 0.376489 0.737642)
(0 0.0795184 0.727885)
(0 0.196886 0.728925)
(0 0.100519 0.729262)
(0 0.117816 0.728134)
(0 0.058129 0.727876)
(0 0.0589122 0.728596)
(0 0.522579 0.205759)
(0 -0.193021 0.598117)
(0 0.43951 0.739161)
(0 0.113434 0.720775)
(0 0.238903 0.724258)
(0 0.128199 0.723427)
(0 0.144937 0.722429)
(0 0.0740947 0.722004)
(0 0.0735186 0.723076)
(0 0.589024 0.249932)
(0 -0.174012 0.575213)
(0 0.496532 0.74577)
(0 0.150284 0.717404)
(0 0.27976 0.723711)
(0 0.156627 0.721412)
(0 0.171711 0.720669)
(0 0.0905641 0.720072)
(0 0.0880205 0.721434)
(0 0.658434 0.373799)
(0 -0.141624 0.558393)
(0 0.548752 0.752977)
(0 0.189316 0.713768)
(0 0.31957 0.723068)
(0 0.185558 0.719118)
(0 0.198098 0.718731)
(0 0.107413 0.717823)
(0 0.102297 0.719403)
(0 0.725469 0.600268)
(0 -0.0937909 0.548348)
(0 0.597209 0.75918)
(0 0.229963 0.708824)
(0 0.358418 0.721112)
(0 0.214783 0.715435)
(0 0.224054 0.715448)
(0 0.124505 0.7142)
(0 0.116245 0.715931)
(0 0.778181 0.813085)
(0 -0.0308447 0.544259)
(0 0.642838 0.764206)
(0 0.27177 0.70299)
(0 0.396375 0.718139)
(0 0.24412 0.710704)
(0 0.24954 0.711139)
(0 0.1417 0.709559)
(0 0.129782 0.711386)
(0 0.818454 0.928671)
(0 0.0403291 0.543085)
(0 0.686283 0.767944)
(0 0.314363 0.696612)
(0 0.433499 0.714425)
(0 0.273405 0.70524)
(0 0.27451 0.706116)
(0 0.15886 0.704211)
(0 0.142844 0.706088)
(0 0.852413 0.979626)
(0 0.114692 0.54299)
(0 0.727981 0.770251)
(0 0.357419 0.689796)
(0 0.469832 0.71003)
(0 0.302487 0.69914)
(0 0.29892 0.700461)
(0 0.175853 0.698243)
(0 0.155382 0.700138)
(0 0.0285395 0.697081)
(0 0.884087 1.00015)
(0 0.189736 0.543317)
(0 0.76825 0.771061)
(0 0.400653 0.682571)
(0 0.505366 0.704939)
(0 0.331249 0.692415)
(0 0.322733 0.694169)
(0 0.192559 0.691658)
(0 0.16736 0.693551)
(0 0.0329607 0.69066)
(0 0.915806 1.00753)
(0 0.264338 0.54386)
(0 0.807332 0.770387)
(0 0.443814 0.674949)
(0 0.54008 0.699127)
(0 0.359579 0.68506)
(0 0.345918 0.68725)
(0 0.208873 0.684447)
(0 0.178762 0.686327)
(0 0.0372405 0.683665)
(0 0.948961 1.00844)
(0 0.337956 0.544497)
(0 0.845421 0.768271)
(0 0.486678 0.666926)
(0 0.57395 0.692581)
(0 0.387378 0.677077)
(0 0.368445 0.679713)
(0 0.224714 0.676606)
(0 0.189582 0.678472)
(0 0.0412806 0.67608)
(0 0.984408 1.00524)
(0 0.410279 0.545081)
(0 0.882671 0.764768)
(0 0.529047 0.658496)
(0 0.60695 0.685293)
(0 0.414563 0.668471)
(0 0.390293 0.671552)
(0 0.240024 0.668137)
(0 0.199833 0.669993)
(0 0.0450113 0.667898)
(0 1.02263 0.998965)
(0 0.481125 0.545446)
(0 0.919209 0.759934)
(0 0.570753 0.64965)
(0 0.639056 0.677261)
(0 0.441069 0.659245)
(0 0.41145 0.662766)
(0 0.254771 0.65904)
(0 0.20954 0.660897)
(0 0.0483925 0.659114)
(0 1.06383 0.990219)
(0 0.550396 0.545431)
(0 0.95514 0.753829)
(0 0.611658 0.640369)
(0 0.670253 0.668482)
(0 0.466855 0.649401)
(0 0.431917 0.653352)
(0 0.268944 0.649316)
(0 0.218737 0.651187)
(0 0.0514117 0.64972)
(0 1.10797 0.979409)
(0 0.618049 0.544885)
(0 0.990548 0.746502)
(0 0.651655 0.630626)
(0 0.700531 0.658954)
(0 0.491895 0.63894)
(0 0.451706 0.643308)
(0 0.282547 0.638972)
(0 0.227465 0.640866)
(0 0.0540787 0.639705)
(0 1.15486 0.966783)
(0 0.684073 0.543684)
(0 1.0255 0.737984)
(0 0.690663 0.620395)
(0 0.729888 0.648674)
(0 0.516183 0.62786)
(0 0.470835 0.632628)
(0 0.295602 0.628016)
(0 0.235769 0.629938)
(0 0.0564202 0.629059)
(0 1.20416 0.952478)
(0 0.748474 0.541688)
(0 1.06007 0.728297)
(0 0.728622 0.609651)
(0 0.758327 0.637638)
(0 0.539721 0.616154)
(0 0.489327 0.621306)
(0 0.308134 0.616437)
(0 0.243695 0.618401)
(0 0.0584735 0.617772)
(0 1.25549 0.936572)
(0 0.811259 0.538785)
(0 1.09427 0.717467)
(0 0.765488 0.598364)
(0 0.785855 0.625845)
(0 0.562518 0.603821)
(0 0.507205 0.609337)
(0 0.320175 0.604212)
(0 0.251284 0.606243)
(0 0.060279 0.605852)
(0 1.30841 0.919118)
(0 0.872424 0.53488)
(0 1.12814 0.70551)
(0 0.801229 0.586495)
(0 0.812477 0.613311)
(0 0.584587 0.590874)
(0 0.524493 0.596732)
(0 0.331755 0.591351)
(0 0.25857 0.593473)
(0 0.0618791 0.593306)
(0 1.36244 0.900202)
(0 0.931952 0.529883)
(0 1.16165 0.692426)
(0 0.835818 0.573995)
(0 0.838194 0.600056)
(0 0.605935 0.577317)
(0 0.541206 0.583492)
(0 0.342903 0.577861)
(0 0.265583 0.580067)
(0 0.0633137 0.580107)
(0 1.41714 0.880016)
(0 0.989803 0.523737)
(0 1.1948 0.678216)
(0 0.869224 0.560805)
(0 0.863 0.586092)
(0 0.626568 0.563138)
(0 0.557354 0.569602)
(0 0.353641 0.563731)
(0 0.272347 0.566008)
(0 0.0646161 0.566242)
(0 1.47203 0.858649)
(0 1.04592 0.516437)
(0 1.2275 0.662928)
(0 0.90136 0.546967)
(0 0.886944 0.571343)
(0 0.646488 0.548349)
(0 0.572937 0.555067)
(0 0.363984 0.548972)
(0 0.278875 0.55132)
(0 0.0658143 0.551722)
(0 1.52666 0.83574)
(0 1.1002 0.507946)
(0 1.25956 0.646589)
(0 0.932272 0.532398)
(0 0.910038 0.555882)
(0 0.66569 0.532932)
(0 0.587947 0.539879)
(0 0.373938 0.53357)
(0 0.285176 0.535998)
(0 0.0669298 0.536536)
)
;

boundaryField
{
    fuel
    {
        type            fixedValue;
        value           uniform (0 0 0.1055);
    }
    wall
    {
        type            slip;
    }
    outlet
    {
        type            pressureInletOutletVelocity;
        value           nonuniform List<vector> 
26
(
(0 0.162163 0.123971)
(0 0.299566 0.153517)
(0 0.385665 0.17284)
(0 0.456487 0.187452)
(0 0.522579 0.205759)
(0 0.589024 0.249932)
(0 0.658434 0.373799)
(0 0.725469 0.600268)
(0 0.778181 0.813085)
(0 0.818454 0.928671)
(0 0.852413 0.979626)
(0 0.884087 1.00015)
(0 0.915806 1.00753)
(0 0.948961 1.00844)
(0 0.984408 1.00524)
(0 1.02263 0.998965)
(0 1.06383 0.990219)
(0 1.10797 0.979409)
(0 1.15486 0.966783)
(0 1.20416 0.952478)
(0 1.25549 0.936572)
(0 1.30841 0.919118)
(0 1.36244 0.900202)
(0 1.41714 0.880016)
(0 1.47203 0.858649)
(0 1.52666 0.83574)
)
;
    }
    frontAndBack
    {
        type            empty;
    }
    procBoundary2to0
    {
        type            processor;
        value           nonuniform List<vector> 
12
(
(0 -0.00323717 0.547437)
(0 1.58064 0.811171)
(0 1.1525 0.498217)
(0 1.29079 0.6292)
(0 0.961957 0.517067)
(0 0.932266 0.539682)
(0 0.684155 0.516865)
(0 0.602364 0.52401)
(0 0.383499 0.517503)
(0 0.291248 0.520013)
(0 -0.00614484 0.531812)
(0 0.0679778 0.520656)
)
;
    }
    procBoundary2to3
    {
        type            processor;
        value           nonuniform List<vector> 
25
(
(0 0.000132898 0.491622)
(0 0.000890651 0.689765)
(0 0.00216554 0.734057)
(0 0.00368584 0.726998)
(0 0.00592305 0.720958)
(0 0.00868839 0.718894)
(0 0.01196 0.716546)
(0 0.0156832 0.712871)
(0 0.019768 0.708228)
(0 0.0240975 0.702937)
(0 0.0240975 0.702937)
(0 0.0217497 0.70034)
(0 0.0230325 0.693597)
(0 0.023632 0.686178)
(0 0.0235485 0.678093)
(0 0.0228164 0.669356)
(0 0.021496 0.65998)
(0 0.019666 0.649971)
(0 0.0174147 0.639333)
(0 0.0148326 0.628069)
(0 0.0120074 0.616191)
(0 0.00902085 0.603698)
(0 0.00594682 0.590576)
(0 0.00284663 0.576823)
(0 -0.000228711 0.562438)
)
;
    }
}


// ************************************************************************* //
