/*--------------------------------*- C++ -*----------------------------------*\
| =========                 |                                                 |
| \\      /  F ield         | OpenFOAM: The Open Source CFD Toolbox           |
|  \\    /   O peration     | Version:  dev                                   |
|   \\  /    A nd           | Web:      www.OpenFOAM.org                      |
|    \\/     M anipulation  |                                                 |
\*---------------------------------------------------------------------------*/
FoamFile
{
    version     2.0;
    format      ascii;
    class       volScalarField;
    location    "0.035";
    object      A1C2H-;
}
// * * * * * * * * * * * * * * * * * * * * * * * * * * * * * * * * * * * * * //

dimensions      [0 0 0 0 0 0 0];

internalField   nonuniform List<scalar> 
250
(
4.78558e-09
8.13907e-07
7.5368e-07
7.43227e-07
7.41509e-07
7.42084e-07
7.4154e-07
7.41492e-07
7.41934e-07
3.37846e-09
8.28466e-07
6.3942e-07
6.17005e-07
6.14565e-07
6.14515e-07
6.14275e-07
6.1407e-07
6.1447e-07
1.56135e-09
6.43217e-07
4.29366e-07
4.05758e-07
4.03135e-07
4.02829e-07
4.02829e-07
4.02672e-07
4.02855e-07
7.74983e-10
4.68619e-07
2.72795e-07
2.52226e-07
2.49891e-07
2.49582e-07
2.49658e-07
2.49506e-07
2.49638e-07
4.29411e-10
3.40405e-07
1.75026e-07
1.58408e-07
1.56543e-07
1.56347e-07
1.56431e-07
1.56304e-07
1.56409e-07
2.67101e-10
2.51904e-07
1.16867e-07
1.01755e-07
9.94512e-08
9.92457e-08
9.93304e-08
9.9182e-08
9.92856e-08
1.93812e-10
1.91006e-07
8.20736e-08
6.96355e-08
6.75876e-08
6.76536e-08
6.77174e-08
6.76066e-08
6.76885e-08
2.08497e-10
1.48304e-07
6.06493e-08
5.02622e-08
4.82891e-08
4.77141e-08
4.77583e-08
4.76208e-08
4.77067e-08
2.66352e-10
1.17642e-07
4.63836e-08
3.74772e-08
3.62357e-08
3.58319e-08
3.5862e-08
3.57442e-08
3.58192e-08
3.54873e-10
9.51294e-08
3.60871e-08
2.85015e-08
2.73751e-08
2.70817e-08
2.70978e-08
2.70003e-08
2.70625e-08
5.44491e-10
7.82243e-08
2.905e-08
2.31457e-08
2.2106e-08
2.18698e-08
2.18785e-08
2.17905e-08
2.18477e-08
2.1823e-08
8.58333e-10
6.52991e-08
2.44851e-08
1.90491e-08
1.80001e-08
1.77823e-08
1.77844e-08
1.77057e-08
1.77571e-08
1.77299e-08
1.28977e-09
5.35171e-08
2.05623e-08
1.5981e-08
1.5026e-08
1.48306e-08
1.48284e-08
1.47558e-08
1.48032e-08
1.4775e-08
1.85961e-09
4.41039e-08
1.7512e-08
1.36766e-08
1.28037e-08
1.26228e-08
1.26179e-08
1.25492e-08
1.25939e-08
1.25648e-08
2.54674e-09
3.74546e-08
1.51006e-08
1.18873e-08
1.1086e-08
1.09152e-08
1.09088e-08
1.08424e-08
1.08851e-08
1.08552e-08
3.2789e-09
3.1855e-08
1.3154e-08
1.0455e-08
9.71732e-09
9.55381e-09
9.5469e-09
9.48171e-09
9.52296e-09
9.4924e-09
4.00045e-09
2.71276e-08
1.15539e-08
9.27815e-09
8.598e-09
8.44023e-09
8.4335e-09
8.36895e-09
8.40911e-09
8.37819e-09
4.69079e-09
2.31249e-08
1.02186e-08
8.29036e-09
7.6633e-09
7.51022e-09
7.50445e-09
7.44015e-09
7.47957e-09
7.44863e-09
5.35101e-09
1.98137e-08
9.09119e-09
7.44742e-09
6.87016e-09
6.72092e-09
6.71708e-09
6.65253e-09
6.69185e-09
6.66123e-09
5.9784e-09
1.67725e-08
8.12952e-09
6.71914e-09
6.18919e-09
6.04266e-09
6.04222e-09
5.97635e-09
6.01682e-09
5.98678e-09
6.56019e-09
1.44226e-08
7.3042e-09
6.08416e-09
5.59956e-09
5.45387e-09
5.4591e-09
5.3899e-09
5.43372e-09
5.40377e-09
7.06433e-09
1.24522e-08
6.59161e-09
5.52656e-09
5.08582e-09
4.93759e-09
4.95228e-09
4.87611e-09
4.9269e-09
4.89178e-09
7.45538e-09
1.0821e-08
5.973e-09
5.03317e-09
4.63548e-09
4.53318e-09
4.50919e-09
4.47332e-09
4.48347e-09
4.46415e-09
7.70674e-09
9.48213e-09
5.43249e-09
4.64896e-09
4.28103e-09
4.18085e-09
4.16188e-09
4.12239e-09
4.13606e-09
4.11193e-09
7.80984e-09
8.38866e-09
5.01016e-09
4.28376e-09
3.97164e-09
3.87591e-09
3.86005e-09
3.81908e-09
3.83411e-09
3.8095e-09
7.77856e-09
7.4964e-09
4.62025e-09
3.98586e-09
3.69644e-09
3.61007e-09
3.59268e-09
3.55496e-09
3.56718e-09
3.54604e-09
)
;

boundaryField
{
    fuel
    {
        type            fixedValue;
        value           uniform 0;
    }
    wall
    {
        type            zeroGradient;
    }
    outlet
    {
        type            zeroGradient;
    }
    frontAndBack
    {
        type            empty;
    }
    procBoundary2to0
    {
        type            processor;
        value           nonuniform List<scalar> 
12
(
3.81392e-09
7.62109e-09
6.7032e-09
4.29094e-09
3.72207e-09
3.45675e-09
3.3767e-09
3.36058e-09
3.3232e-09
3.33479e-09
3.55067e-09
3.31394e-09
)
;
    }
    procBoundary2to3
    {
        type            processor;
        value           nonuniform List<scalar> 
25
(
7.42277e-07
6.14181e-07
4.02701e-07
2.49541e-07
1.56344e-07
9.92347e-08
6.76515e-08
4.76704e-08
3.57877e-08
2.70367e-08
2.70367e-08
2.18033e-08
1.77173e-08
1.47668e-08
1.25599e-08
1.08531e-08
9.49259e-09
8.38015e-09
7.45196e-09
6.66557e-09
5.99192e-09
5.41021e-09
4.90477e-09
4.46247e-09
4.11554e-09
)
;
    }
}


// ************************************************************************* //
