/*--------------------------------*- C++ -*----------------------------------*\
| =========                 |                                                 |
| \\      /  F ield         | OpenFOAM: The Open Source CFD Toolbox           |
|  \\    /   O peration     | Version:  dev                                   |
|   \\  /    A nd           | Web:      www.OpenFOAM.org                      |
|    \\/     M anipulation  |                                                 |
\*---------------------------------------------------------------------------*/
FoamFile
{
    version     2.0;
    format      ascii;
    class       volScalarField;
    location    "0.035";
    object      A2C2HA;
}
// * * * * * * * * * * * * * * * * * * * * * * * * * * * * * * * * * * * * * //

dimensions      [0 0 0 0 0 0 0];

internalField   nonuniform List<scalar> 
250
(
9.96137e-10
5.63311e-08
3.41601e-08
3.21203e-08
3.19201e-08
3.19037e-08
3.18821e-08
3.18922e-08
3.18892e-08
1.9005e-09
4.94627e-08
2.22275e-08
2.01517e-08
1.99465e-08
1.99316e-08
1.9918e-08
1.99231e-08
1.99229e-08
2.499e-09
4.15925e-08
1.3823e-08
1.2003e-08
1.18249e-08
1.18096e-08
1.18033e-08
1.18033e-08
1.18053e-08
2.86149e-09
3.75223e-08
9.41308e-09
7.78459e-09
7.62746e-09
7.6128e-09
7.61006e-09
7.60811e-09
7.61055e-09
3.02287e-09
3.53569e-08
6.97174e-09
5.48295e-09
5.34286e-09
5.33051e-09
5.32937e-09
5.32677e-09
5.3293e-09
3.04933e-09
3.37355e-08
5.47526e-09
4.05091e-09
3.90208e-09
3.88917e-09
3.88919e-09
3.88505e-09
3.88809e-09
3.01511e-09
3.19887e-08
4.46959e-09
3.14983e-09
3.00877e-09
3.00349e-09
3.00372e-09
2.99986e-09
3.00273e-09
3.00783e-09
2.98513e-08
3.74638e-09
2.5328e-09
2.39482e-09
2.36765e-09
2.36782e-09
2.36239e-09
2.36577e-09
3.06015e-09
2.73029e-08
3.17697e-09
2.07027e-09
1.96156e-09
1.9394e-09
1.93942e-09
1.9342e-09
1.93747e-09
3.13021e-09
2.44484e-08
2.69228e-09
1.70488e-09
1.6044e-09
1.5859e-09
1.58563e-09
1.58085e-09
1.58382e-09
3.19154e-09
2.14335e-08
2.30817e-09
1.46513e-09
1.37137e-09
1.35504e-09
1.35459e-09
1.35001e-09
1.35291e-09
1.35142e-09
3.26286e-09
1.84266e-08
2.02532e-09
1.2657e-09
1.17405e-09
1.1584e-09
1.15775e-09
1.15345e-09
1.15618e-09
1.15467e-09
3.35127e-09
1.50743e-08
1.754e-09
1.10504e-09
1.02064e-09
1.00608e-09
1.00526e-09
1.00117e-09
1.00378e-09
1.00221e-09
3.45815e-09
1.20292e-08
1.52454e-09
9.76759e-10
8.98961e-10
8.852e-10
8.84282e-10
8.80314e-10
8.82841e-10
8.81201e-10
3.57328e-09
9.72375e-09
1.33196e-09
8.71948e-10
8.00106e-10
7.86954e-10
7.85975e-10
7.82067e-10
7.84539e-10
7.8283e-10
3.67077e-09
7.74135e-09
1.16965e-09
7.84459e-10
7.17976e-10
7.053e-10
7.04299e-10
7.00402e-10
7.02838e-10
7.01067e-10
3.72085e-09
6.09794e-09
1.03249e-09
7.10042e-10
6.48405e-10
6.36104e-10
6.35121e-10
6.31199e-10
6.33614e-10
6.31795e-10
3.69778e-09
4.77332e-09
9.16364e-10
6.45756e-10
5.88533e-10
5.76531e-10
5.75608e-10
5.71637e-10
5.74048e-10
5.722e-10
3.58848e-09
3.75301e-09
8.17928e-10
5.8956e-10
5.36397e-10
5.24616e-10
5.23818e-10
5.19761e-10
5.22205e-10
5.2035e-10
3.39443e-09
2.8995e-09
7.34202e-10
5.40027e-10
4.90637e-10
4.78974e-10
4.78402e-10
4.74182e-10
4.76743e-10
4.749e-10
3.1342e-09
2.30363e-09
6.63111e-10
4.96152e-10
4.50306e-10
4.38596e-10
4.38421e-10
4.33884e-10
4.36719e-10
4.34864e-10
2.83486e-09
1.85378e-09
6.02684e-10
4.5721e-10
4.14743e-10
4.02716e-10
4.03212e-10
3.98091e-10
4.01459e-10
3.99239e-10
2.52678e-09
1.51881e-09
5.51369e-10
4.22661e-10
3.83484e-10
3.74601e-10
3.72304e-10
3.70009e-10
3.70464e-10
3.69363e-10
2.23659e-09
1.27161e-09
5.07932e-10
3.96151e-10
3.59285e-10
3.50482e-10
3.48441e-10
3.45899e-10
3.46525e-10
3.45136e-10
1.98267e-09
1.09026e-09
4.75702e-10
3.71818e-10
3.39031e-10
3.30471e-10
3.2853e-10
3.25908e-10
3.2652e-10
3.25192e-10
1.77404e-09
9.58287e-10
4.48378e-10
3.53491e-10
3.22495e-10
3.14533e-10
3.1234e-10
3.0999e-10
3.10248e-10
3.09302e-10
)
;

boundaryField
{
    fuel
    {
        type            fixedValue;
        value           uniform 0;
    }
    wall
    {
        type            zeroGradient;
    }
    outlet
    {
        type            zeroGradient;
    }
    frontAndBack
    {
        type            empty;
    }
    procBoundary2to0
    {
        type            processor;
        value           nonuniform List<scalar> 
12
(
3.25499e-10
1.61323e-09
8.55848e-10
4.28514e-10
3.39566e-10
3.10432e-10
3.02879e-10
3.00529e-10
2.98331e-10
2.98272e-10
3.09592e-10
2.97596e-10
)
;
    }
    procBoundary2to3
    {
        type            processor;
        value           nonuniform List<scalar> 
25
(
3.18809e-08
1.99169e-08
1.18006e-08
7.60722e-09
5.32687e-09
3.88604e-09
3.00106e-09
2.36408e-09
1.93592e-09
1.58242e-09
1.58242e-09
1.35063e-09
1.15404e-09
1.00175e-09
8.80906e-10
7.8268e-10
7.01045e-10
6.31882e-10
5.72377e-10
5.206e-10
4.75214e-10
4.35279e-10
4.00119e-10
3.6923e-10
3.45383e-10
)
;
    }
}


// ************************************************************************* //
