/*--------------------------------*- C++ -*----------------------------------*\
| =========                 |                                                 |
| \\      /  F ield         | OpenFOAM: The Open Source CFD Toolbox           |
|  \\    /   O peration     | Version:  dev                                   |
|   \\  /    A nd           | Web:      www.OpenFOAM.org                      |
|    \\/     M anipulation  |                                                 |
\*---------------------------------------------------------------------------*/
FoamFile
{
    version     2.0;
    format      ascii;
    class       volScalarField;
    location    "0.035";
    object      A2R5;
}
// * * * * * * * * * * * * * * * * * * * * * * * * * * * * * * * * * * * * * //

dimensions      [0 0 0 0 0 0 0];

internalField   nonuniform List<scalar> 
25
(
1.67058e-09
1.8063e-09
1.94594e-09
2.08695e-09
2.22967e-09
2.37348e-09
2.51772e-09
2.6618e-09
2.80513e-09
2.94716e-09
3.08735e-09
3.22543e-09
3.36026e-09
3.49166e-09
3.61915e-09
3.74224e-09
3.86037e-09
3.97288e-09
4.08007e-09
4.18304e-09
4.27531e-09
4.36087e-09
4.43733e-09
4.50501e-09
4.56338e-09
)
;

boundaryField
{
    wall
    {
        type            zeroGradient;
    }
    fuel
    {
        type            fixedValue;
        value           nonuniform 0();
    }
    outlet
    {
        type            inletOutlet;
        inletValue      nonuniform 0();
        value           nonuniform 0();
    }
    procBoundary2to1
    {
        type            processor;
        value           uniform 1.53838e-09;
    }
    procBoundary2to3
    {
        type            processor;
        value           uniform 4.61189e-09;
    }
}


// ************************************************************************* //
