/*--------------------------------*- C++ -*----------------------------------*\
| =========                 |                                                 |
| \\      /  F ield         | OpenFOAM: The Open Source CFD Toolbox           |
|  \\    /   O peration     | Version:  dev                                   |
|   \\  /    A nd           | Web:      www.OpenFOAM.org                      |
|    \\/     M anipulation  |                                                 |
\*---------------------------------------------------------------------------*/
FoamFile
{
    version     2.0;
    format      ascii;
    class       volScalarField;
    location    "0.035";
    object      c-C6H7;
}
// * * * * * * * * * * * * * * * * * * * * * * * * * * * * * * * * * * * * * //

dimensions      [0 0 0 0 0 0 0];

internalField   nonuniform List<scalar> 
25
(
3.52336e-12
3.93896e-12
4.36381e-12
4.791e-12
5.22356e-12
5.66285e-12
6.11135e-12
6.57269e-12
7.05128e-12
7.55218e-12
8.0808e-12
8.64387e-12
9.24478e-12
9.89011e-12
1.05848e-11
1.1333e-11
1.21375e-11
1.29995e-11
1.39273e-11
1.494e-11
1.59832e-11
1.71013e-11
1.82725e-11
1.95065e-11
2.08022e-11
)
;

boundaryField
{
    wall
    {
        type            zeroGradient;
    }
    fuel
    {
        type            fixedValue;
        value           nonuniform 0();
    }
    outlet
    {
        type            inletOutlet;
        inletValue      nonuniform 0();
        value           nonuniform 0();
    }
    procBoundary2to1
    {
        type            processor;
        value           uniform 3.11625e-12;
    }
    procBoundary2to3
    {
        type            processor;
        value           uniform 2.21561e-11;
    }
}


// ************************************************************************* //
