/*--------------------------------*- C++ -*----------------------------------*\
| =========                 |                                                 |
| \\      /  F ield         | OpenFOAM: The Open Source CFD Toolbox           |
|  \\    /   O peration     | Version:  dev                                   |
|   \\  /    A nd           | Web:      www.OpenFOAM.org                      |
|    \\/     M anipulation  |                                                 |
\*---------------------------------------------------------------------------*/
FoamFile
{
    version     2.0;
    format      ascii;
    class       volScalarField;
    location    "0.035";
    object      C3H3;
}
// * * * * * * * * * * * * * * * * * * * * * * * * * * * * * * * * * * * * * //

dimensions      [0 0 0 0 0 0 0];

internalField   nonuniform List<scalar> 
1997
(
2.45173e-05
2.45509e-05
2.45475e-05
2.45476e-05
2.45333e-05
2.45223e-05
2.45089e-05
2.45001e-05
2.44916e-05
2.44862e-05
2.44811e-05
2.44781e-05
2.4475e-05
2.44734e-05
2.44714e-05
2.44705e-05
2.44691e-05
2.44685e-05
2.41474e-05
2.41785e-05
2.41723e-05
2.41706e-05
2.41552e-05
2.41434e-05
2.41296e-05
2.41205e-05
2.41119e-05
2.41064e-05
2.41012e-05
2.40982e-05
2.40951e-05
2.40934e-05
2.40914e-05
2.40905e-05
2.4089e-05
2.40885e-05
2.40874e-05
2.4087e-05
2.40863e-05
2.40861e-05
2.40857e-05
2.40856e-05
2.40855e-05
2.40855e-05
2.40856e-05
2.40856e-05
2.37751e-05
2.38037e-05
2.37947e-05
2.37913e-05
2.37747e-05
2.37621e-05
2.3748e-05
2.37386e-05
2.37298e-05
2.37242e-05
2.3719e-05
2.37159e-05
2.37128e-05
2.3711e-05
2.3709e-05
2.37081e-05
2.37066e-05
2.3706e-05
2.37049e-05
2.37046e-05
2.37039e-05
2.37037e-05
2.37033e-05
2.37031e-05
2.3703e-05
2.3703e-05
2.37031e-05
2.37031e-05
2.37034e-05
2.37035e-05
2.37042e-05
2.37045e-05
2.37055e-05
2.3706e-05
2.37074e-05
2.37083e-05
2.37103e-05
2.37121e-05
2.37152e-05
2.37182e-05
2.34001e-05
2.34262e-05
2.34144e-05
2.34093e-05
2.33915e-05
2.33781e-05
2.33637e-05
2.3354e-05
2.33451e-05
2.33393e-05
2.33341e-05
2.33309e-05
2.33277e-05
2.3326e-05
2.33239e-05
2.3323e-05
2.33215e-05
2.33209e-05
2.33198e-05
2.33194e-05
2.33187e-05
2.33185e-05
2.33181e-05
2.3318e-05
2.33178e-05
2.33178e-05
2.33179e-05
2.3318e-05
2.33182e-05
2.33184e-05
2.3319e-05
2.33194e-05
2.33204e-05
2.33209e-05
2.33224e-05
2.33233e-05
2.33253e-05
2.33271e-05
2.33302e-05
2.33333e-05
2.33385e-05
2.33442e-05
2.3353e-05
2.33627e-05
2.33772e-05
2.33905e-05
2.34083e-05
2.34134e-05
2.34252e-05
2.33992e-05
2.30221e-05
2.30457e-05
2.30311e-05
2.30243e-05
2.30053e-05
2.29912e-05
2.29764e-05
2.29664e-05
2.29574e-05
2.29515e-05
2.29462e-05
2.2943e-05
2.29398e-05
2.2938e-05
2.29359e-05
2.29349e-05
2.29334e-05
2.29328e-05
2.29317e-05
2.29313e-05
2.29306e-05
2.29304e-05
2.293e-05
2.29299e-05
2.29297e-05
2.29297e-05
2.29298e-05
2.29299e-05
2.29301e-05
2.29303e-05
2.2931e-05
2.29313e-05
2.29323e-05
2.29328e-05
2.29343e-05
2.29352e-05
2.29373e-05
2.29391e-05
2.29423e-05
2.29454e-05
2.29506e-05
2.29565e-05
2.29655e-05
2.29755e-05
2.29902e-05
2.30044e-05
2.30234e-05
2.30302e-05
2.30447e-05
2.30212e-05
2.26409e-05
2.26619e-05
2.26446e-05
2.26361e-05
2.2616e-05
2.2601e-05
2.25859e-05
2.25756e-05
2.25665e-05
2.25605e-05
2.25551e-05
2.25519e-05
2.25486e-05
2.25468e-05
2.25447e-05
2.25437e-05
2.25422e-05
2.25416e-05
2.25404e-05
2.254e-05
2.25393e-05
2.25391e-05
2.25387e-05
2.25385e-05
2.25384e-05
2.25384e-05
2.25385e-05
2.25386e-05
2.25388e-05
2.2539e-05
2.25397e-05
2.254e-05
2.2541e-05
2.25416e-05
2.25431e-05
2.2544e-05
2.25461e-05
2.25479e-05
2.25512e-05
2.25544e-05
2.25597e-05
2.25656e-05
2.25747e-05
2.2585e-05
2.26001e-05
2.2615e-05
2.26352e-05
2.26437e-05
2.2661e-05
2.264e-05
2.22562e-05
2.22747e-05
2.22547e-05
2.22444e-05
2.22232e-05
2.22075e-05
2.2192e-05
2.21814e-05
2.21722e-05
2.21661e-05
2.21606e-05
2.21573e-05
2.2154e-05
2.21521e-05
2.215e-05
2.21491e-05
2.21475e-05
2.21469e-05
2.21458e-05
2.21454e-05
2.21446e-05
2.21444e-05
2.2144e-05
2.21438e-05
2.21437e-05
2.21436e-05
2.21438e-05
2.21438e-05
2.21441e-05
2.21443e-05
2.2145e-05
2.21453e-05
2.21464e-05
2.2147e-05
2.21485e-05
2.21494e-05
2.21515e-05
2.21534e-05
2.21566e-05
2.21599e-05
2.21652e-05
2.21713e-05
2.21805e-05
2.21911e-05
2.22066e-05
2.22223e-05
2.22435e-05
2.22538e-05
2.22738e-05
2.22553e-05
2.18677e-05
2.18838e-05
2.18611e-05
2.18491e-05
2.18268e-05
2.18103e-05
2.17945e-05
2.17836e-05
2.17742e-05
2.1768e-05
2.17625e-05
2.17592e-05
2.17558e-05
2.17539e-05
2.17518e-05
2.17508e-05
2.17492e-05
2.17486e-05
2.17475e-05
2.17471e-05
2.17463e-05
2.17461e-05
2.17456e-05
2.17455e-05
2.17453e-05
2.17453e-05
2.17454e-05
2.17455e-05
2.17458e-05
2.1746e-05
2.17467e-05
2.17471e-05
2.17481e-05
2.17487e-05
2.17502e-05
2.17512e-05
2.17533e-05
2.17552e-05
2.17585e-05
2.17618e-05
2.17672e-05
2.17734e-05
2.17827e-05
2.17936e-05
2.18094e-05
2.18259e-05
2.18482e-05
2.18602e-05
2.18829e-05
2.18669e-05
2.14723e-05
2.14879e-05
2.14628e-05
2.14495e-05
2.14256e-05
2.14079e-05
2.13914e-05
2.138e-05
2.13703e-05
2.1364e-05
2.13584e-05
2.1355e-05
2.13517e-05
2.13498e-05
2.13477e-05
2.13467e-05
2.13452e-05
2.13446e-05
2.13435e-05
2.13431e-05
2.13424e-05
2.13422e-05
2.13418e-05
2.13416e-05
2.13415e-05
2.13414e-05
2.13416e-05
2.13416e-05
2.13419e-05
2.13421e-05
2.13428e-05
2.13431e-05
2.13441e-05
2.13447e-05
2.13462e-05
2.13471e-05
2.13492e-05
2.1351e-05
2.13544e-05
2.13577e-05
2.13632e-05
2.13695e-05
2.13792e-05
2.13906e-05
2.14071e-05
2.14247e-05
2.14487e-05
2.1462e-05
2.14871e-05
2.14715e-05
2.10758e-05
2.10891e-05
2.10614e-05
2.10464e-05
2.10214e-05
2.10029e-05
2.09861e-05
2.09744e-05
2.09646e-05
2.09581e-05
2.09525e-05
2.09491e-05
2.09457e-05
2.09438e-05
2.09417e-05
2.09407e-05
2.09392e-05
2.09386e-05
2.09374e-05
2.09371e-05
2.09364e-05
2.09361e-05
2.09357e-05
2.09356e-05
2.09354e-05
2.09354e-05
2.09355e-05
2.09356e-05
2.09359e-05
2.0936e-05
2.09367e-05
2.0937e-05
2.09381e-05
2.09386e-05
2.09402e-05
2.09411e-05
2.09432e-05
2.09451e-05
2.09484e-05
2.09518e-05
2.09574e-05
2.09638e-05
2.09736e-05
2.09853e-05
2.10021e-05
2.10206e-05
2.10456e-05
2.10606e-05
2.10883e-05
2.1075e-05
2.0663e-05
2.06745e-05
2.06444e-05
2.0628e-05
2.06018e-05
2.05825e-05
2.05652e-05
2.05531e-05
2.05432e-05
2.05367e-05
2.0531e-05
2.05275e-05
2.05241e-05
2.05223e-05
2.05201e-05
2.05192e-05
2.05176e-05
2.05171e-05
2.0516e-05
2.05156e-05
2.05149e-05
2.05147e-05
2.05142e-05
2.05141e-05
2.05139e-05
2.05139e-05
2.0514e-05
2.05141e-05
2.05144e-05
2.05146e-05
2.05153e-05
2.05156e-05
2.05166e-05
2.05171e-05
2.05187e-05
2.05196e-05
2.05217e-05
2.05235e-05
2.05269e-05
2.05303e-05
2.0536e-05
2.05425e-05
2.05524e-05
2.05644e-05
2.05817e-05
2.06011e-05
2.06272e-05
2.06437e-05
2.06738e-05
2.06623e-05
2.02446e-05
2.02534e-05
2.02211e-05
2.0203e-05
2.01759e-05
2.01558e-05
2.01383e-05
2.01259e-05
2.0116e-05
2.01093e-05
2.01035e-05
2.01001e-05
2.00966e-05
2.00948e-05
2.00926e-05
2.00917e-05
2.00901e-05
2.00895e-05
2.00884e-05
2.00881e-05
2.00873e-05
2.00871e-05
2.00867e-05
2.00865e-05
2.00864e-05
2.00863e-05
2.00865e-05
2.00865e-05
2.00869e-05
2.0087e-05
2.00877e-05
2.0088e-05
2.00891e-05
2.00896e-05
2.00912e-05
2.00921e-05
2.00942e-05
2.00961e-05
2.00995e-05
2.01029e-05
2.01086e-05
2.01152e-05
2.01252e-05
2.01375e-05
2.0155e-05
2.01752e-05
2.02023e-05
2.02204e-05
2.02527e-05
2.02439e-05
1.98336e-05
1.98402e-05
1.98055e-05
1.97859e-05
1.97579e-05
1.9737e-05
1.97192e-05
1.97066e-05
1.96965e-05
1.96897e-05
1.9684e-05
1.96805e-05
1.9677e-05
1.96752e-05
1.9673e-05
1.9672e-05
1.96704e-05
1.96699e-05
1.96687e-05
1.96684e-05
1.96676e-05
1.96674e-05
1.96669e-05
1.96668e-05
1.96666e-05
1.96666e-05
1.96667e-05
1.96668e-05
1.96672e-05
1.96673e-05
1.9668e-05
1.96683e-05
1.96694e-05
1.967e-05
1.96715e-05
1.96724e-05
1.96746e-05
1.96764e-05
1.96799e-05
1.96834e-05
1.96891e-05
1.96958e-05
1.97059e-05
1.97185e-05
1.97363e-05
1.97572e-05
1.97852e-05
1.98048e-05
1.98396e-05
1.9833e-05
1.94111e-05
1.9416e-05
1.93785e-05
1.93576e-05
1.93285e-05
1.93067e-05
1.92885e-05
1.92756e-05
1.92655e-05
1.92587e-05
1.92529e-05
1.92495e-05
1.92461e-05
1.92443e-05
1.92421e-05
1.92413e-05
1.92397e-05
1.92392e-05
1.92381e-05
1.92378e-05
1.92371e-05
1.92369e-05
1.92365e-05
1.92364e-05
1.92362e-05
1.92362e-05
1.92363e-05
1.92364e-05
1.92367e-05
1.92368e-05
1.92375e-05
1.92378e-05
1.92388e-05
1.92393e-05
1.92408e-05
1.92416e-05
1.92438e-05
1.92455e-05
1.92489e-05
1.92524e-05
1.92581e-05
1.92649e-05
1.9275e-05
1.92879e-05
1.93061e-05
1.93278e-05
1.93569e-05
1.93779e-05
1.94154e-05
1.94104e-05
1.89909e-05
1.89938e-05
1.89539e-05
1.89316e-05
1.89016e-05
1.88792e-05
1.88608e-05
1.88476e-05
1.88374e-05
1.88305e-05
1.88247e-05
1.88212e-05
1.88178e-05
1.8816e-05
1.88139e-05
1.8813e-05
1.88115e-05
1.88109e-05
1.88099e-05
1.88095e-05
1.88088e-05
1.88086e-05
1.88082e-05
1.88081e-05
1.88079e-05
1.88079e-05
1.8808e-05
1.88081e-05
1.88084e-05
1.88085e-05
1.88092e-05
1.88095e-05
1.88105e-05
1.8811e-05
1.88125e-05
1.88134e-05
1.88155e-05
1.88173e-05
1.88207e-05
1.88242e-05
1.88299e-05
1.88368e-05
1.88469e-05
1.88601e-05
1.88785e-05
1.8901e-05
1.8931e-05
1.89533e-05
1.89931e-05
1.89903e-05
1.85569e-05
1.85577e-05
1.85151e-05
1.84912e-05
1.84601e-05
1.84366e-05
1.84178e-05
1.84042e-05
1.8394e-05
1.83869e-05
1.83812e-05
1.83776e-05
1.83742e-05
1.83725e-05
1.83703e-05
1.83695e-05
1.83679e-05
1.83675e-05
1.83664e-05
1.83661e-05
1.83654e-05
1.83652e-05
1.83648e-05
1.83646e-05
1.83645e-05
1.83644e-05
1.83646e-05
1.83646e-05
1.8365e-05
1.83651e-05
1.83658e-05
1.8366e-05
1.8367e-05
1.83675e-05
1.8369e-05
1.83698e-05
1.8372e-05
1.83737e-05
1.83771e-05
1.83806e-05
1.83864e-05
1.83933e-05
1.84036e-05
1.84171e-05
1.84359e-05
1.84594e-05
1.84906e-05
1.85146e-05
1.85572e-05
1.85563e-05
1.81148e-05
1.81133e-05
1.80688e-05
1.80435e-05
1.80117e-05
1.79875e-05
1.79686e-05
1.79549e-05
1.79446e-05
1.79375e-05
1.79317e-05
1.79282e-05
1.79248e-05
1.7923e-05
1.79208e-05
1.792e-05
1.79185e-05
1.7918e-05
1.79169e-05
1.79166e-05
1.79159e-05
1.79157e-05
1.79153e-05
1.79152e-05
1.7915e-05
1.7915e-05
1.79151e-05
1.79151e-05
1.79155e-05
1.79156e-05
1.79163e-05
1.79166e-05
1.79176e-05
1.7918e-05
1.79195e-05
1.79204e-05
1.79225e-05
1.79243e-05
1.79276e-05
1.79312e-05
1.79369e-05
1.7944e-05
1.79543e-05
1.7968e-05
1.79869e-05
1.80111e-05
1.80429e-05
1.80682e-05
1.81128e-05
1.81142e-05
1.76679e-05
1.76642e-05
1.76178e-05
1.75912e-05
1.75589e-05
1.75341e-05
1.7515e-05
1.75011e-05
1.74908e-05
1.74837e-05
1.7478e-05
1.74744e-05
1.7471e-05
1.74693e-05
1.74671e-05
1.74663e-05
1.74647e-05
1.74643e-05
1.74632e-05
1.74629e-05
1.74622e-05
1.7462e-05
1.74615e-05
1.74614e-05
1.74613e-05
1.74612e-05
1.74614e-05
1.74614e-05
1.74618e-05
1.74619e-05
1.74626e-05
1.74628e-05
1.74639e-05
1.74643e-05
1.74658e-05
1.74666e-05
1.74688e-05
1.74705e-05
1.74739e-05
1.74774e-05
1.74832e-05
1.74903e-05
1.75006e-05
1.75144e-05
1.75335e-05
1.75583e-05
1.75907e-05
1.76173e-05
1.76637e-05
1.76673e-05
1.72165e-05
1.72107e-05
1.71624e-05
1.71347e-05
1.71019e-05
1.70765e-05
1.70574e-05
1.70434e-05
1.70331e-05
1.7026e-05
1.70202e-05
1.70167e-05
1.70133e-05
1.70116e-05
1.70094e-05
1.70086e-05
1.7007e-05
1.70065e-05
1.70055e-05
1.70052e-05
1.70045e-05
1.70043e-05
1.70038e-05
1.70037e-05
1.70035e-05
1.70035e-05
1.70036e-05
1.70037e-05
1.7004e-05
1.70042e-05
1.70049e-05
1.70051e-05
1.70062e-05
1.70066e-05
1.70081e-05
1.70089e-05
1.70111e-05
1.70128e-05
1.70162e-05
1.70197e-05
1.70254e-05
1.70326e-05
1.70428e-05
1.70568e-05
1.70759e-05
1.71013e-05
1.71342e-05
1.7162e-05
1.72101e-05
1.7216e-05
1.67608e-05
1.67529e-05
1.67032e-05
1.66743e-05
1.66411e-05
1.66151e-05
1.6596e-05
1.65819e-05
1.65717e-05
1.65645e-05
1.65588e-05
1.65553e-05
1.65519e-05
1.65502e-05
1.6548e-05
1.65472e-05
1.65457e-05
1.65452e-05
1.65441e-05
1.65438e-05
1.65431e-05
1.65429e-05
1.65425e-05
1.65423e-05
1.65422e-05
1.65421e-05
1.65423e-05
1.65423e-05
1.65427e-05
1.65428e-05
1.65435e-05
1.65438e-05
1.65448e-05
1.65453e-05
1.65468e-05
1.65476e-05
1.65497e-05
1.65514e-05
1.65548e-05
1.65583e-05
1.6564e-05
1.65711e-05
1.65814e-05
1.65955e-05
1.66145e-05
1.66405e-05
1.66738e-05
1.67027e-05
1.67523e-05
1.67603e-05
1.63145e-05
1.63048e-05
1.62535e-05
1.62236e-05
1.619e-05
1.61634e-05
1.61443e-05
1.61301e-05
1.61199e-05
1.61127e-05
1.61071e-05
1.61035e-05
1.61002e-05
1.60985e-05
1.60963e-05
1.60955e-05
1.6094e-05
1.60935e-05
1.60924e-05
1.60921e-05
1.60914e-05
1.60912e-05
1.60908e-05
1.60906e-05
1.60905e-05
1.60904e-05
1.60906e-05
1.60906e-05
1.6091e-05
1.60911e-05
1.60918e-05
1.60921e-05
1.60931e-05
1.60936e-05
1.60951e-05
1.60959e-05
1.60981e-05
1.60997e-05
1.6103e-05
1.61066e-05
1.61122e-05
1.61194e-05
1.61296e-05
1.61438e-05
1.61629e-05
1.61894e-05
1.62231e-05
1.62531e-05
1.63043e-05
1.6314e-05
1.58656e-05
1.58543e-05
1.58015e-05
1.57706e-05
1.57367e-05
1.57096e-05
1.56905e-05
1.56763e-05
1.56662e-05
1.56589e-05
1.56534e-05
1.56498e-05
1.56465e-05
1.56448e-05
1.56426e-05
1.56418e-05
1.56403e-05
1.56398e-05
1.56387e-05
1.56384e-05
1.56377e-05
1.56375e-05
1.56371e-05
1.5637e-05
1.56368e-05
1.56367e-05
1.56369e-05
1.56369e-05
1.56373e-05
1.56375e-05
1.56382e-05
1.56384e-05
1.56395e-05
1.56399e-05
1.56414e-05
1.56422e-05
1.56444e-05
1.5646e-05
1.56493e-05
1.56529e-05
1.56584e-05
1.56657e-05
1.56757e-05
1.569e-05
1.5709e-05
1.57361e-05
1.57701e-05
1.5801e-05
1.58538e-05
1.58651e-05
1.54143e-05
1.53993e-05
1.53423e-05
1.5309e-05
1.52738e-05
1.52455e-05
1.52262e-05
1.52116e-05
1.52014e-05
1.5194e-05
1.51884e-05
1.51848e-05
1.51814e-05
1.51798e-05
1.51776e-05
1.51767e-05
1.51752e-05
1.51747e-05
1.51736e-05
1.51733e-05
1.51726e-05
1.51724e-05
1.51719e-05
1.51718e-05
1.51716e-05
1.51716e-05
1.51717e-05
1.51718e-05
1.51722e-05
1.51723e-05
1.5173e-05
1.51733e-05
1.51744e-05
1.51748e-05
1.51763e-05
1.51772e-05
1.51793e-05
1.5181e-05
1.51843e-05
1.51879e-05
1.51935e-05
1.52009e-05
1.52111e-05
1.52256e-05
1.5245e-05
1.52733e-05
1.53085e-05
1.53418e-05
1.53988e-05
1.54138e-05
1.4962e-05
1.49455e-05
1.48871e-05
1.4853e-05
1.48176e-05
1.47888e-05
1.47695e-05
1.47549e-05
1.47449e-05
1.47375e-05
1.4732e-05
1.47283e-05
1.47251e-05
1.47234e-05
1.47212e-05
1.47204e-05
1.47188e-05
1.47184e-05
1.47173e-05
1.4717e-05
1.47162e-05
1.4716e-05
1.47155e-05
1.47154e-05
1.47152e-05
1.47152e-05
1.47153e-05
1.47154e-05
1.47158e-05
1.4716e-05
1.47167e-05
1.4717e-05
1.4718e-05
1.47185e-05
1.472e-05
1.47208e-05
1.4723e-05
1.47246e-05
1.47279e-05
1.47315e-05
1.4737e-05
1.47444e-05
1.47544e-05
1.4769e-05
1.47882e-05
1.48171e-05
1.48525e-05
1.48867e-05
1.4945e-05
1.49615e-05
1.45091e-05
1.44913e-05
1.44315e-05
1.43967e-05
1.43612e-05
1.43318e-05
1.43128e-05
1.42982e-05
1.42883e-05
1.4281e-05
1.42755e-05
1.42719e-05
1.42686e-05
1.4267e-05
1.42648e-05
1.4264e-05
1.42625e-05
1.4262e-05
1.42609e-05
1.42606e-05
1.42598e-05
1.42596e-05
1.42591e-05
1.4259e-05
1.42588e-05
1.42588e-05
1.42589e-05
1.4259e-05
1.42594e-05
1.42596e-05
1.42603e-05
1.42606e-05
1.42616e-05
1.42621e-05
1.42636e-05
1.42644e-05
1.42666e-05
1.42682e-05
1.42714e-05
1.42751e-05
1.42805e-05
1.42878e-05
1.42977e-05
1.43123e-05
1.43313e-05
1.43607e-05
1.43962e-05
1.44311e-05
1.44908e-05
1.45086e-05
1.40563e-05
1.40374e-05
1.39765e-05
1.39409e-05
1.39056e-05
1.38749e-05
1.38556e-05
1.38408e-05
1.38309e-05
1.38235e-05
1.38181e-05
1.38146e-05
1.38114e-05
1.38099e-05
1.38078e-05
1.38071e-05
1.38057e-05
1.38053e-05
1.38043e-05
1.3804e-05
1.38033e-05
1.38032e-05
1.38028e-05
1.38027e-05
1.38025e-05
1.38025e-05
1.38026e-05
1.38026e-05
1.3803e-05
1.38031e-05
1.38037e-05
1.38039e-05
1.38049e-05
1.38053e-05
1.38067e-05
1.38074e-05
1.38095e-05
1.3811e-05
1.38141e-05
1.38176e-05
1.3823e-05
1.38304e-05
1.38403e-05
1.38551e-05
1.38744e-05
1.39051e-05
1.39404e-05
1.3976e-05
1.40369e-05
1.40559e-05
1.35952e-05
1.35745e-05
1.35121e-05
1.34754e-05
1.34401e-05
1.34085e-05
1.33894e-05
1.33747e-05
1.33649e-05
1.33575e-05
1.33523e-05
1.33488e-05
1.33457e-05
1.33443e-05
1.33422e-05
1.33416e-05
1.33401e-05
1.33398e-05
1.33388e-05
1.33386e-05
1.33379e-05
1.33378e-05
1.33374e-05
1.33373e-05
1.33371e-05
1.33371e-05
1.33372e-05
1.33372e-05
1.33376e-05
1.33377e-05
1.33383e-05
1.33385e-05
1.33394e-05
1.33398e-05
1.33411e-05
1.33418e-05
1.33438e-05
1.33453e-05
1.33483e-05
1.33518e-05
1.3357e-05
1.33644e-05
1.33742e-05
1.33889e-05
1.3408e-05
1.34396e-05
1.34749e-05
1.35117e-05
1.35741e-05
1.35948e-05
1.31448e-05
1.31232e-05
1.30601e-05
1.30227e-05
1.29879e-05
1.29555e-05
1.29368e-05
1.29222e-05
1.29126e-05
1.29053e-05
1.29002e-05
1.28967e-05
1.28937e-05
1.28923e-05
1.28903e-05
1.28896e-05
1.28882e-05
1.28879e-05
1.28869e-05
1.28867e-05
1.2886e-05
1.28859e-05
1.28855e-05
1.28854e-05
1.28852e-05
1.28852e-05
1.28853e-05
1.28853e-05
1.28857e-05
1.28858e-05
1.28864e-05
1.28866e-05
1.28875e-05
1.28878e-05
1.28892e-05
1.28899e-05
1.28919e-05
1.28933e-05
1.28963e-05
1.28997e-05
1.29048e-05
1.29121e-05
1.29217e-05
1.29363e-05
1.29551e-05
1.29874e-05
1.30222e-05
1.30597e-05
1.31228e-05
1.31444e-05
1.26919e-05
1.26683e-05
1.2603e-05
1.25645e-05
1.25296e-05
1.25059e-05
1.24876e-05
1.24732e-05
1.24638e-05
1.24566e-05
1.24515e-05
1.24481e-05
1.24452e-05
1.24438e-05
1.24418e-05
1.24412e-05
1.24398e-05
1.24395e-05
1.24385e-05
1.24383e-05
1.24376e-05
1.24375e-05
1.24371e-05
1.2437e-05
1.24368e-05
1.24368e-05
1.24369e-05
1.24369e-05
1.24373e-05
1.24374e-05
1.2438e-05
1.24382e-05
1.24391e-05
1.24394e-05
1.24408e-05
1.24414e-05
1.24434e-05
1.24448e-05
1.24477e-05
1.2451e-05
1.24561e-05
1.24634e-05
1.24727e-05
1.24872e-05
1.25055e-05
1.25292e-05
1.2564e-05
1.26026e-05
1.2668e-05
1.26914e-05
1.22477e-05
1.22233e-05
1.21579e-05
1.21187e-05
1.20845e-05
1.20607e-05
1.20428e-05
1.20286e-05
1.20194e-05
1.20122e-05
1.20073e-05
1.2004e-05
1.20011e-05
1.19998e-05
1.19978e-05
1.19972e-05
1.19958e-05
1.19955e-05
1.19946e-05
1.19944e-05
1.19937e-05
1.19936e-05
1.19932e-05
1.19931e-05
1.19929e-05
1.19929e-05
1.1993e-05
1.1993e-05
1.19934e-05
1.19935e-05
1.19941e-05
1.19943e-05
1.19952e-05
1.19955e-05
1.19968e-05
1.19974e-05
1.19994e-05
1.20007e-05
1.20036e-05
1.20068e-05
1.20117e-05
1.2019e-05
1.20281e-05
1.20423e-05
1.20602e-05
1.20841e-05
1.21183e-05
1.21575e-05
1.22229e-05
1.22473e-05
1.18082e-05
1.17832e-05
1.17176e-05
1.16781e-05
1.16446e-05
1.16206e-05
1.16033e-05
1.15893e-05
1.15804e-05
1.15732e-05
1.15684e-05
1.15652e-05
1.15624e-05
1.15611e-05
1.15592e-05
1.15586e-05
1.15572e-05
1.15569e-05
1.1556e-05
1.15558e-05
1.15551e-05
1.1555e-05
1.15546e-05
1.15545e-05
1.15544e-05
1.15543e-05
1.15544e-05
1.15545e-05
1.15548e-05
1.15549e-05
1.15555e-05
1.15557e-05
1.15566e-05
1.15569e-05
1.15582e-05
1.15588e-05
1.15607e-05
1.1562e-05
1.15648e-05
1.1568e-05
1.15728e-05
1.15799e-05
1.15888e-05
1.16028e-05
1.16202e-05
1.16441e-05
1.16776e-05
1.17172e-05
1.17828e-05
1.18077e-05
1.13686e-05
1.13422e-05
1.12763e-05
1.12355e-05
1.12023e-05
1.11782e-05
1.11613e-05
1.11475e-05
1.11388e-05
1.11317e-05
1.11271e-05
1.11239e-05
1.11212e-05
1.112e-05
1.11181e-05
1.11176e-05
1.11163e-05
1.1116e-05
1.11151e-05
1.1115e-05
1.11143e-05
1.11142e-05
1.11138e-05
1.11138e-05
1.11136e-05
1.11136e-05
1.11137e-05
1.11137e-05
1.1114e-05
1.11141e-05
1.11147e-05
1.11148e-05
1.11157e-05
1.1116e-05
1.11172e-05
1.11178e-05
1.11196e-05
1.11208e-05
1.11235e-05
1.11266e-05
1.11312e-05
1.11384e-05
1.1147e-05
1.11609e-05
1.11777e-05
1.12019e-05
1.12351e-05
1.12759e-05
1.13419e-05
1.13682e-05
1.09294e-05
1.09021e-05
1.0838e-05
1.08073e-05
1.07749e-05
1.07509e-05
1.07347e-05
1.07212e-05
1.07128e-05
1.07057e-05
1.07012e-05
1.06982e-05
1.06955e-05
1.06943e-05
1.06925e-05
1.0692e-05
1.06907e-05
1.06905e-05
1.06896e-05
1.06894e-05
1.06888e-05
1.06887e-05
1.06883e-05
1.06883e-05
1.06881e-05
1.06881e-05
1.06882e-05
1.06882e-05
1.06885e-05
1.06886e-05
1.06892e-05
1.06893e-05
1.06902e-05
1.06904e-05
1.06916e-05
1.06922e-05
1.0694e-05
1.06951e-05
1.06977e-05
1.07007e-05
1.07052e-05
1.07124e-05
1.07207e-05
1.07343e-05
1.07505e-05
1.07745e-05
1.08069e-05
1.08376e-05
1.09017e-05
1.0929e-05
1.05086e-05
1.04807e-05
1.0418e-05
1.0387e-05
1.03554e-05
1.03316e-05
1.03161e-05
1.03028e-05
1.02948e-05
1.02877e-05
1.02834e-05
1.02804e-05
1.02778e-05
1.02767e-05
1.0275e-05
1.02745e-05
1.02732e-05
1.0273e-05
1.02721e-05
1.0272e-05
1.02714e-05
1.02713e-05
1.02709e-05
1.02708e-05
1.02707e-05
1.02707e-05
1.02708e-05
1.02708e-05
1.02711e-05
1.02712e-05
1.02717e-05
1.02719e-05
1.02727e-05
1.02729e-05
1.02741e-05
1.02746e-05
1.02764e-05
1.02775e-05
1.028e-05
1.02829e-05
1.02872e-05
1.02944e-05
1.03024e-05
1.03157e-05
1.03312e-05
1.03549e-05
1.03865e-05
1.04176e-05
1.04803e-05
1.05082e-05
1.0096e-05
1.00677e-05
1.00064e-05
9.9753e-06
9.94448e-06
9.92115e-06
9.90628e-06
9.89335e-06
9.88562e-06
9.87858e-06
9.87438e-06
9.87155e-06
9.86906e-06
9.86796e-06
9.86627e-06
9.8658e-06
9.86462e-06
9.86438e-06
9.86354e-06
9.8634e-06
9.86282e-06
9.86272e-06
9.86235e-06
9.86228e-06
9.86214e-06
9.86211e-06
9.8622e-06
9.86222e-06
9.86254e-06
9.8626e-06
9.86316e-06
9.86328e-06
9.86409e-06
9.86431e-06
9.86548e-06
9.86595e-06
9.86763e-06
9.8687e-06
9.87116e-06
9.87394e-06
9.87811e-06
9.88522e-06
9.89288e-06
9.90583e-06
9.92071e-06
9.94404e-06
9.97484e-06
1.0006e-05
1.00673e-05
1.00956e-05
9.6926e-06
9.66402e-06
9.60414e-06
9.57306e-06
9.54306e-06
9.52022e-06
9.50604e-06
9.49348e-06
9.48613e-06
9.47907e-06
9.47504e-06
9.47231e-06
9.4699e-06
9.46886e-06
9.46722e-06
9.46677e-06
9.46563e-06
9.46541e-06
9.46459e-06
9.46446e-06
9.46389e-06
9.4638e-06
9.46344e-06
9.46337e-06
9.46323e-06
9.4632e-06
9.4633e-06
9.46331e-06
9.46362e-06
9.46368e-06
9.46423e-06
9.46434e-06
9.46513e-06
9.46533e-06
9.46646e-06
9.46691e-06
9.46854e-06
9.46956e-06
9.47193e-06
9.4746e-06
9.4786e-06
9.48572e-06
9.49301e-06
9.50559e-06
9.51978e-06
9.54261e-06
9.57261e-06
9.6037e-06
9.66358e-06
9.69214e-06
9.29898e-06
9.27035e-06
9.21183e-06
9.181e-06
9.15178e-06
9.12955e-06
9.11607e-06
9.10391e-06
9.09697e-06
9.08987e-06
9.08602e-06
9.08338e-06
9.08107e-06
9.08008e-06
9.0785e-06
9.07808e-06
9.07697e-06
9.07677e-06
9.07597e-06
9.07585e-06
9.0753e-06
9.07521e-06
9.07486e-06
9.07479e-06
9.07466e-06
9.07463e-06
9.07472e-06
9.07473e-06
9.07504e-06
9.07509e-06
9.07562e-06
9.07573e-06
9.0765e-06
9.07668e-06
9.07778e-06
9.0782e-06
9.07977e-06
9.08074e-06
9.08302e-06
9.08558e-06
9.08939e-06
9.09655e-06
9.10345e-06
9.11562e-06
9.1291e-06
9.15133e-06
9.18053e-06
9.21138e-06
9.26989e-06
9.2985e-06
8.91588e-06
8.88737e-06
8.83015e-06
8.79963e-06
8.77139e-06
8.74845e-06
8.73499e-06
8.72271e-06
8.7159e-06
8.71159e-06
8.70794e-06
8.70539e-06
8.70317e-06
8.70223e-06
8.70071e-06
8.70031e-06
8.69924e-06
8.69905e-06
8.69829e-06
8.69817e-06
8.69764e-06
8.69755e-06
8.69721e-06
8.69715e-06
8.69702e-06
8.69699e-06
8.69708e-06
8.69709e-06
8.69739e-06
8.69744e-06
8.69796e-06
8.69805e-06
8.6988e-06
8.69897e-06
8.70003e-06
8.70042e-06
8.70193e-06
8.70285e-06
8.70504e-06
8.70748e-06
8.71111e-06
8.71542e-06
8.7222e-06
8.73448e-06
8.74794e-06
8.77088e-06
8.79915e-06
8.82968e-06
8.88688e-06
8.91537e-06
8.54385e-06
8.51563e-06
8.45965e-06
8.42961e-06
8.40236e-06
8.38003e-06
8.36726e-06
8.3554e-06
8.34899e-06
8.34476e-06
8.3413e-06
8.33884e-06
8.33672e-06
8.33583e-06
8.33436e-06
8.33399e-06
8.33296e-06
8.33279e-06
8.33205e-06
8.33194e-06
8.33142e-06
8.33134e-06
8.33102e-06
8.33096e-06
8.33083e-06
8.33081e-06
8.33089e-06
8.3309e-06
8.33119e-06
8.33124e-06
8.33173e-06
8.33182e-06
8.33254e-06
8.3327e-06
8.33372e-06
8.33409e-06
8.33554e-06
8.33641e-06
8.33851e-06
8.34083e-06
8.34427e-06
8.34849e-06
8.35487e-06
8.36674e-06
8.37951e-06
8.40183e-06
8.42911e-06
8.45917e-06
8.51511e-06
8.54331e-06
8.18179e-06
8.15304e-06
8.10079e-06
8.07137e-06
8.04511e-06
8.02346e-06
8.01138e-06
7.99996e-06
7.99393e-06
7.9898e-06
7.98651e-06
7.98415e-06
7.98212e-06
7.98128e-06
7.97988e-06
7.97953e-06
7.97854e-06
7.97838e-06
7.97767e-06
7.97757e-06
7.97707e-06
7.97699e-06
7.97668e-06
7.97662e-06
7.9765e-06
7.97647e-06
7.97656e-06
7.97657e-06
7.97685e-06
7.97689e-06
7.97737e-06
7.97745e-06
7.97814e-06
7.97829e-06
7.97927e-06
7.97961e-06
7.981e-06
7.98182e-06
7.98383e-06
7.98604e-06
7.98929e-06
7.99341e-06
7.99941e-06
8.01084e-06
8.02292e-06
8.04457e-06
8.07086e-06
8.10029e-06
8.15247e-06
8.18119e-06
7.83319e-06
7.80495e-06
7.75392e-06
7.72525e-06
7.69997e-06
7.67905e-06
7.66765e-06
7.65667e-06
7.65103e-06
7.64699e-06
7.6439e-06
7.64161e-06
7.63968e-06
7.63889e-06
7.63754e-06
7.63723e-06
7.63627e-06
7.63613e-06
7.63544e-06
7.63535e-06
7.63487e-06
7.6348e-06
7.63449e-06
7.63444e-06
7.63432e-06
7.6343e-06
7.63438e-06
7.63439e-06
7.63466e-06
7.6347e-06
7.63516e-06
7.63523e-06
7.6359e-06
7.63603e-06
7.63697e-06
7.63729e-06
7.63862e-06
7.63939e-06
7.6413e-06
7.6434e-06
7.64647e-06
7.65049e-06
7.6561e-06
7.66709e-06
7.67849e-06
7.69941e-06
7.72472e-06
7.75339e-06
7.80433e-06
7.83254e-06
7.49319e-06
7.46521e-06
7.41926e-06
7.39147e-06
7.36714e-06
7.347e-06
7.33628e-06
7.32573e-06
7.32046e-06
7.31654e-06
7.31362e-06
)
;

boundaryField
{
    fuel
    {
        type            fixedValue;
        value           nonuniform 0();
    }
    wall
    {
        type            zeroGradient;
    }
    outlet
    {
        type            zeroGradient;
    }
    frontAndBack
    {
        type            empty;
    }
    procBoundary2to0
    {
        type            processor;
        value           nonuniform List<scalar> 
53
(
2.48851e-05
2.49212e-05
2.49207e-05
2.49225e-05
2.49094e-05
2.48991e-05
2.48861e-05
2.48776e-05
2.48692e-05
2.48639e-05
2.48589e-05
2.4856e-05
2.48529e-05
2.48513e-05
2.48493e-05
2.48485e-05
2.4847e-05
2.48465e-05
2.44675e-05
2.44675e-05
2.44671e-05
2.44665e-05
2.44662e-05
2.44659e-05
2.44657e-05
2.44656e-05
2.44656e-05
2.44657e-05
2.44658e-05
2.40859e-05
2.40859e-05
2.40861e-05
2.40867e-05
2.4087e-05
2.4088e-05
2.40885e-05
2.40899e-05
2.40908e-05
2.40928e-05
2.40945e-05
2.40976e-05
2.41006e-05
2.37234e-05
2.37234e-05
2.3729e-05
2.37377e-05
2.37471e-05
2.37612e-05
2.37738e-05
2.37905e-05
2.37938e-05
2.38029e-05
2.37743e-05
)
;
    }
    procBoundary2to3
    {
        type            processor;
        value           nonuniform List<scalar> 
51
(
7.3116e-06
7.30976e-06
7.30902e-06
7.30774e-06
7.30744e-06
7.30653e-06
7.30639e-06
7.30573e-06
7.30565e-06
7.30519e-06
7.30512e-06
7.30483e-06
7.30478e-06
7.30467e-06
7.30464e-06
7.30472e-06
7.30473e-06
7.30499e-06
7.30502e-06
7.30547e-06
7.30554e-06
7.30618e-06
7.3063e-06
7.3072e-06
7.30749e-06
7.30877e-06
7.30949e-06
7.31131e-06
7.3133e-06
7.3162e-06
7.3201e-06
7.32535e-06
7.33591e-06
7.34665e-06
7.36678e-06
7.39115e-06
7.41894e-06
7.46493e-06
7.49288e-06
7.16914e-06
7.14167e-06
7.09724e-06
7.07035e-06
7.04692e-06
7.02761e-06
7.01754e-06
7.00742e-06
7.0025e-06
6.9987e-06
7.3116e-06
6.99596e-06
)
;
    }
}


// ************************************************************************* //
