/*--------------------------------*- C++ -*----------------------------------*\
| =========                 |                                                 |
| \\      /  F ield         | OpenFOAM: The Open Source CFD Toolbox           |
|  \\    /   O peration     | Version:  dev                                   |
|   \\  /    A nd           | Web:      www.OpenFOAM.org                      |
|    \\/     M anipulation  |                                                 |
\*---------------------------------------------------------------------------*/
FoamFile
{
    version     2.0;
    format      ascii;
    class       volScalarField;
    location    "0.035";
    object      C5H4OH;
}
// * * * * * * * * * * * * * * * * * * * * * * * * * * * * * * * * * * * * * //

dimensions      [0 0 0 0 0 0 0];

internalField   nonuniform List<scalar> 
25
(
1.76884e-12
1.92185e-12
2.08415e-12
2.25677e-12
2.44501e-12
2.65455e-12
2.89301e-12
3.17058e-12
3.50085e-12
3.90163e-12
4.39564e-12
5.01158e-12
5.7774e-12
6.72359e-12
7.87221e-12
9.23092e-12
1.0787e-11
1.25041e-11
1.43425e-11
1.62683e-11
1.81028e-11
1.98554e-11
2.14281e-11
2.2783e-11
2.38785e-11
)
;

boundaryField
{
    wall
    {
        type            zeroGradient;
    }
    fuel
    {
        type            fixedValue;
        value           nonuniform 0();
    }
    outlet
    {
        type            inletOutlet;
        inletValue      nonuniform 0();
        value           nonuniform 0();
    }
    procBoundary2to1
    {
        type            processor;
        value           uniform 1.6218e-12;
    }
    procBoundary2to3
    {
        type            processor;
        value           uniform 2.46839e-11;
    }
}


// ************************************************************************* //
