/*--------------------------------*- C++ -*----------------------------------*\
| =========                 |                                                 |
| \\      /  F ield         | OpenFOAM: The Open Source CFD Toolbox           |
|  \\    /   O peration     | Version:  dev                                   |
|   \\  /    A nd           | Web:      www.OpenFOAM.org                      |
|    \\/     M anipulation  |                                                 |
\*---------------------------------------------------------------------------*/
FoamFile
{
    version     2.0;
    format      ascii;
    class       volScalarField;
    location    "0.035";
    object      CH;
}
// * * * * * * * * * * * * * * * * * * * * * * * * * * * * * * * * * * * * * //

dimensions      [0 0 0 0 0 0 0];

internalField   nonuniform List<scalar> 
250
(
1.28261e-09
2.97275e-06
3.5616e-06
3.61917e-06
3.62919e-06
3.62585e-06
3.63023e-06
3.62864e-06
3.62582e-06
6.88318e-10
1.66295e-06
1.95693e-06
1.9913e-06
1.99681e-06
1.99433e-06
1.99727e-06
1.99549e-06
1.99463e-06
2.49615e-10
6.61078e-07
8.00938e-07
8.20921e-07
8.2341e-07
8.22645e-07
8.23678e-07
8.22987e-07
8.23015e-07
1.05469e-10
2.45569e-07
3.09295e-07
3.21328e-07
3.22592e-07
3.22338e-07
3.22781e-07
3.22454e-07
3.22595e-07
4.60137e-11
9.58837e-08
1.28315e-07
1.36499e-07
1.3745e-07
1.37431e-07
1.37643e-07
1.3749e-07
1.37588e-07
2.1861e-11
4.15527e-08
6.20103e-08
6.66209e-08
6.67131e-08
6.66719e-08
6.6794e-08
6.6679e-08
6.67525e-08
1.18519e-11
2.04576e-08
3.61122e-08
4.01093e-08
4.02654e-08
4.04067e-08
4.04796e-08
4.04187e-08
4.04621e-08
9.53124e-12
1.15025e-08
2.49429e-08
2.86431e-08
2.87698e-08
2.85939e-08
2.86421e-08
2.8581e-08
2.86186e-08
1.03292e-11
7.32677e-09
1.93803e-08
2.28599e-08
2.32274e-08
2.31505e-08
2.31871e-08
2.31403e-08
2.31702e-08
1.59416e-11
5.20516e-09
1.61879e-08
1.95403e-08
1.98895e-08
1.98615e-08
1.98909e-08
1.98525e-08
1.98774e-08
3.00053e-11
4.05828e-09
1.433e-08
1.77703e-08
1.81099e-08
1.8102e-08
1.81287e-08
1.80921e-08
1.81166e-08
1.81035e-08
4.4101e-11
3.42497e-09
1.32467e-08
1.64788e-08
1.67788e-08
1.67744e-08
1.67996e-08
1.67629e-08
1.67881e-08
1.67727e-08
5.5723e-11
3.0333e-09
1.23758e-08
1.54877e-08
1.57777e-08
1.57759e-08
1.58011e-08
1.57622e-08
1.57895e-08
1.57712e-08
7.07156e-11
2.84927e-09
1.17089e-08
1.46763e-08
1.49492e-08
1.49462e-08
1.49721e-08
1.49295e-08
1.496e-08
1.49382e-08
9.11875e-11
2.81088e-09
1.1164e-08
1.39588e-08
1.42079e-08
1.4201e-08
1.42285e-08
1.41809e-08
1.42154e-08
1.41897e-08
1.16962e-10
2.85901e-09
1.0689e-08
1.32876e-08
1.3507e-08
1.34942e-08
1.35238e-08
1.34702e-08
1.35096e-08
1.34795e-08
1.49348e-10
2.97241e-09
1.02492e-08
1.26344e-08
1.28193e-08
1.27987e-08
1.28313e-08
1.27706e-08
1.28157e-08
1.27807e-08
1.92229e-10
3.1332e-09
9.81994e-09
1.19812e-08
1.21279e-08
1.20976e-08
1.21341e-08
1.20652e-08
1.21172e-08
1.20769e-08
2.51846e-10
3.3199e-09
9.38268e-09
1.13154e-08
1.14213e-08
1.13791e-08
1.14212e-08
1.13422e-08
1.1403e-08
1.13571e-08
3.36136e-10
3.53651e-09
8.92305e-09
1.06276e-08
1.06915e-08
1.06346e-08
1.06847e-08
1.05929e-08
1.06655e-08
1.06133e-08
4.52534e-10
3.72735e-09
8.42977e-09
9.91038e-09
9.93246e-09
9.85668e-09
9.91916e-09
9.8101e-09
9.89898e-09
9.83879e-09
6.061e-10
3.88873e-09
7.89453e-09
9.15791e-09
9.14005e-09
9.03844e-09
9.12059e-09
8.98709e-09
9.09946e-09
9.02046e-09
7.95983e-10
3.99921e-09
7.31178e-09
8.36433e-09
8.31067e-09
8.27472e-09
8.2858e-09
8.21846e-09
8.2632e-09
8.20494e-09
1.01218e-09
4.04124e-09
6.67925e-09
7.63279e-09
7.53746e-09
7.48608e-09
7.50971e-09
7.4252e-09
7.48643e-09
7.41057e-09
1.23433e-09
4.00354e-09
6.07599e-09
6.81239e-09
6.74487e-09
6.6839e-09
6.71607e-09
6.62022e-09
6.69248e-09
6.60764e-09
1.43596e-09
3.88087e-09
5.40624e-09
6.03464e-09
5.92955e-09
5.87352e-09
5.90027e-09
5.80896e-09
5.87881e-09
5.79774e-09
)
;

boundaryField
{
    fuel
    {
        type            fixedValue;
        value           uniform 0;
    }
    wall
    {
        type            zeroGradient;
    }
    outlet
    {
        type            zeroGradient;
    }
    frontAndBack
    {
        type            empty;
    }
    procBoundary2to0
    {
        type            processor;
        value           nonuniform List<scalar> 
12
(
6.61718e-09
1.58036e-09
3.65111e-09
4.74484e-09
5.25031e-09
5.12482e-09
5.06687e-09
5.09734e-09
5.00321e-09
5.07648e-09
5.80802e-09
4.99117e-09
)
;
    }
    procBoundary2to3
    {
        type            processor;
        value           nonuniform List<scalar> 
25
(
3.62998e-06
1.99589e-06
8.23194e-07
3.22573e-07
1.37555e-07
6.67253e-08
4.04457e-08
2.86037e-08
2.31573e-08
1.98653e-08
1.98653e-08
1.80973e-08
1.67684e-08
1.57685e-08
1.49369e-08
1.41897e-08
1.34808e-08
1.27833e-08
1.20808e-08
1.13621e-08
1.06197e-08
9.84804e-09
9.04289e-09
8.20046e-09
7.41751e-09
)
;
    }
}


// ************************************************************************* //
