/*--------------------------------*- C++ -*----------------------------------*\
| =========                 |                                                 |
| \\      /  F ield         | OpenFOAM: The Open Source CFD Toolbox           |
|  \\    /   O peration     | Version:  dev                                   |
|   \\  /    A nd           | Web:      www.OpenFOAM.org                      |
|    \\/     M anipulation  |                                                 |
\*---------------------------------------------------------------------------*/
FoamFile
{
    version     2.0;
    format      ascii;
    class       volScalarField;
    location    "0.035";
    object      CO2;
}
// * * * * * * * * * * * * * * * * * * * * * * * * * * * * * * * * * * * * * //

dimensions      [0 0 0 0 0 0 0];

internalField   nonuniform List<scalar> 
250
(
0.00254015
0.039341
0.0394728
0.0394661
0.0394651
0.0394644
0.0394644
0.0394644
0.0394643
0.0068273
0.046969
0.0467538
0.0467065
0.0466916
0.0466918
0.0466913
0.0466914
0.0466916
0.0124115
0.0491847
0.0487616
0.0486476
0.0486237
0.0486212
0.0486203
0.0486204
0.0486205
0.0272523
0.049998
0.0494246
0.0492352
0.0492042
0.0491972
0.0491963
0.0491961
0.0491962
0.0377335
0.0503476
0.0496366
0.0493711
0.0493342
0.0493213
0.049321
0.0493202
0.0493202
0.0426215
0.0505051
0.04966
0.0493205
0.0492788
0.0492593
0.0492597
0.0492582
0.0492583
0.0449698
0.0505644
0.0495982
0.0491667
0.0491181
0.049091
0.0490921
0.0490898
0.0490899
0.0462456
0.0505636
0.0494743
0.0489837
0.0489329
0.0488982
0.0489002
0.0488969
0.0488972
0.0470317
0.0505268
0.0493159
0.0487685
0.0487091
0.0486646
0.0486676
0.0486632
0.0486637
0.047558
0.0504634
0.0491383
0.0485274
0.0484615
0.0484108
0.048414
0.0484088
0.0484095
0.047923
0.0503745
0.0489396
0.0482802
0.0482065
0.0481506
0.0481539
0.0481481
0.048149
0.0481478
0.0481809
0.0502674
0.0487518
0.0480334
0.0479508
0.0478904
0.0478936
0.0478872
0.0478884
0.0478873
0.0483698
0.0501443
0.0485718
0.0477911
0.0476988
0.0476345
0.0476375
0.0476306
0.0476321
0.047631
0.0485187
0.0500062
0.0483825
0.0475557
0.0474535
0.0473861
0.0473887
0.0473814
0.0473832
0.0473821
0.0486489
0.0498539
0.0481904
0.0473293
0.0472171
0.0471474
0.0471497
0.047142
0.047144
0.0471428
0.0487741
0.0496993
0.0479987
0.0471132
0.0469916
0.0469205
0.0469222
0.0469143
0.0469165
0.0469153
0.0489008
0.0495316
0.0478086
0.0469088
0.0467785
0.0467069
0.0467079
0.0467
0.0467024
0.0467011
0.0490287
0.0493474
0.0476217
0.0467175
0.0465794
0.0465082
0.0465085
0.0465007
0.0465031
0.0465018
0.0491514
0.0491561
0.0474397
0.0465405
0.0463957
0.0463259
0.0463255
0.0463179
0.0463202
0.046319
0.0492896
0.0489598
0.0472648
0.0463793
0.0462289
0.0461615
0.0461602
0.046153
0.0461552
0.0461542
0.0493911
0.0487614
0.0470988
0.0462354
0.0460803
0.0460166
0.0460142
0.0460077
0.0460096
0.0460088
0.049467
0.0485768
0.0469441
0.0461103
0.0459511
0.0458926
0.0458888
0.0458834
0.0458847
0.0458843
0.0495185
0.0483906
0.046803
0.0460168
0.0458584
0.045803
0.0457986
0.0457938
0.0457947
0.0457947
0.0495322
0.0482075
0.0466769
0.0459404
0.045782
0.0457314
0.0457261
0.0457222
0.0457225
0.0457229
0.0495137
0.0480353
0.046567
0.0458912
0.0457348
0.0456892
0.0456829
0.0456801
0.0456796
0.0456805
0.0494552
0.0478776
0.0464924
0.0458652
0.0457125
0.0456722
0.0456649
0.0456633
0.0456619
0.0456634
)
;

boundaryField
{
    fuel
    {
        type            fixedValue;
        value           uniform 0;
    }
    wall
    {
        type            zeroGradient;
    }
    outlet
    {
        type            zeroGradient;
    }
    frontAndBack
    {
        type            empty;
    }
    procBoundary2to0
    {
        type            processor;
        value           nonuniform List<scalar> 
12
(
0.0456805
0.0493568
0.0477359
0.0464385
0.0458642
0.0457155
0.0456808
0.0456724
0.045672
0.0456697
0.0456634
0.0456718
)
;
    }
    procBoundary2to3
    {
        type            processor;
        value           nonuniform List<scalar> 
25
(
0.0394642
0.0466914
0.0486204
0.0491962
0.0493203
0.0492583
0.0490899
0.0488971
0.0486632
0.0484086
0.0484086
0.0481481
0.0478873
0.0476308
0.0473817
0.0471425
0.0469149
0.0467007
0.0465014
0.0463187
0.0461539
0.0460085
0.0458841
0.0457945
0.0457229
)
;
    }
}


// ************************************************************************* //
