/*--------------------------------*- C++ -*----------------------------------*\
| =========                 |                                                 |
| \\      /  F ield         | OpenFOAM: The Open Source CFD Toolbox           |
|  \\    /   O peration     | Version:  dev                                   |
|   \\  /    A nd           | Web:      www.OpenFOAM.org                      |
|    \\/     M anipulation  |                                                 |
\*---------------------------------------------------------------------------*/
FoamFile
{
    version     2.0;
    format      ascii;
    class       volScalarField;
    location    "0.035";
    object      H2C4O;
}
// * * * * * * * * * * * * * * * * * * * * * * * * * * * * * * * * * * * * * //

dimensions      [0 0 0 0 0 0 0];

internalField   nonuniform List<scalar> 
1997
(
1.43184e-06
1.43472e-06
1.43577e-06
1.43659e-06
1.43641e-06
1.43617e-06
1.43565e-06
1.43527e-06
1.43485e-06
1.43455e-06
1.43424e-06
1.43404e-06
1.43383e-06
1.43368e-06
1.43352e-06
1.43343e-06
1.4333e-06
1.43324e-06
1.41464e-06
1.41733e-06
1.41825e-06
1.41899e-06
1.41877e-06
1.41851e-06
1.41799e-06
1.41761e-06
1.41719e-06
1.41689e-06
1.41659e-06
1.41638e-06
1.41617e-06
1.41602e-06
1.41586e-06
1.41577e-06
1.41565e-06
1.41558e-06
1.41549e-06
1.41544e-06
1.41538e-06
1.41535e-06
1.41532e-06
1.41531e-06
1.4153e-06
1.4153e-06
1.41531e-06
1.41532e-06
1.39794e-06
1.40046e-06
1.40125e-06
1.4019e-06
1.40165e-06
1.40137e-06
1.40085e-06
1.40047e-06
1.40006e-06
1.39975e-06
1.39945e-06
1.39924e-06
1.39903e-06
1.39888e-06
1.39873e-06
1.39863e-06
1.39851e-06
1.39844e-06
1.39835e-06
1.3983e-06
1.39824e-06
1.39821e-06
1.39818e-06
1.39816e-06
1.39815e-06
1.39815e-06
1.39816e-06
1.39818e-06
1.39821e-06
1.39824e-06
1.3983e-06
1.39834e-06
1.39843e-06
1.3985e-06
1.39862e-06
1.39872e-06
1.39887e-06
1.39902e-06
1.39923e-06
1.39944e-06
1.38172e-06
1.38407e-06
1.38474e-06
1.38531e-06
1.38503e-06
1.38473e-06
1.38421e-06
1.38383e-06
1.38341e-06
1.38311e-06
1.38281e-06
1.3826e-06
1.38239e-06
1.38224e-06
1.38208e-06
1.38198e-06
1.38186e-06
1.38179e-06
1.3817e-06
1.38165e-06
1.38159e-06
1.38156e-06
1.38153e-06
1.38151e-06
1.3815e-06
1.3815e-06
1.38151e-06
1.38153e-06
1.38156e-06
1.38159e-06
1.38165e-06
1.38169e-06
1.38178e-06
1.38185e-06
1.38197e-06
1.38207e-06
1.38222e-06
1.38238e-06
1.38258e-06
1.38279e-06
1.38309e-06
1.38339e-06
1.3838e-06
1.38418e-06
1.3847e-06
1.385e-06
1.38528e-06
1.3847e-06
1.38403e-06
1.38168e-06
1.36595e-06
1.36814e-06
1.36869e-06
1.36919e-06
1.36888e-06
1.36856e-06
1.36804e-06
1.36765e-06
1.36724e-06
1.36694e-06
1.36664e-06
1.36643e-06
1.36622e-06
1.36606e-06
1.36591e-06
1.36581e-06
1.36569e-06
1.36561e-06
1.36552e-06
1.36547e-06
1.36541e-06
1.36538e-06
1.36535e-06
1.36533e-06
1.36532e-06
1.36532e-06
1.36533e-06
1.36535e-06
1.36538e-06
1.36541e-06
1.36547e-06
1.36552e-06
1.3656e-06
1.36567e-06
1.36579e-06
1.36589e-06
1.36605e-06
1.3662e-06
1.36641e-06
1.36662e-06
1.36691e-06
1.36721e-06
1.36762e-06
1.36801e-06
1.36852e-06
1.36884e-06
1.36915e-06
1.36865e-06
1.3681e-06
1.36591e-06
1.35061e-06
1.35264e-06
1.35308e-06
1.35351e-06
1.35317e-06
1.35283e-06
1.35231e-06
1.35192e-06
1.35151e-06
1.35121e-06
1.35091e-06
1.3507e-06
1.35049e-06
1.35033e-06
1.35018e-06
1.35008e-06
1.34995e-06
1.34988e-06
1.34979e-06
1.34974e-06
1.34968e-06
1.34965e-06
1.34961e-06
1.3496e-06
1.34959e-06
1.34959e-06
1.3496e-06
1.34961e-06
1.34964e-06
1.34967e-06
1.34973e-06
1.34978e-06
1.34987e-06
1.34994e-06
1.35006e-06
1.35016e-06
1.35032e-06
1.35047e-06
1.35068e-06
1.35089e-06
1.35118e-06
1.35148e-06
1.35189e-06
1.35228e-06
1.35279e-06
1.35313e-06
1.35347e-06
1.35304e-06
1.3526e-06
1.35057e-06
1.33568e-06
1.33756e-06
1.33789e-06
1.33825e-06
1.33788e-06
1.33752e-06
1.337e-06
1.33661e-06
1.3362e-06
1.3359e-06
1.3356e-06
1.33539e-06
1.33518e-06
1.33502e-06
1.33487e-06
1.33476e-06
1.33464e-06
1.33456e-06
1.33447e-06
1.33442e-06
1.33436e-06
1.33433e-06
1.3343e-06
1.33428e-06
1.33427e-06
1.33427e-06
1.33428e-06
1.3343e-06
1.33433e-06
1.33436e-06
1.33442e-06
1.33447e-06
1.33455e-06
1.33463e-06
1.33475e-06
1.33485e-06
1.335e-06
1.33516e-06
1.33537e-06
1.33558e-06
1.33587e-06
1.33617e-06
1.33657e-06
1.33697e-06
1.33748e-06
1.33784e-06
1.33821e-06
1.33785e-06
1.33751e-06
1.33563e-06
1.32113e-06
1.32286e-06
1.32309e-06
1.32338e-06
1.32298e-06
1.3226e-06
1.32209e-06
1.32169e-06
1.32129e-06
1.32098e-06
1.32069e-06
1.32047e-06
1.32026e-06
1.3201e-06
1.31995e-06
1.31985e-06
1.31972e-06
1.31965e-06
1.31955e-06
1.3195e-06
1.31944e-06
1.31941e-06
1.31937e-06
1.31936e-06
1.31935e-06
1.31935e-06
1.31936e-06
1.31937e-06
1.31941e-06
1.31944e-06
1.3195e-06
1.31955e-06
1.31963e-06
1.31971e-06
1.31983e-06
1.31993e-06
1.32009e-06
1.32025e-06
1.32045e-06
1.32066e-06
1.32096e-06
1.32126e-06
1.32166e-06
1.32205e-06
1.32256e-06
1.32294e-06
1.32334e-06
1.32305e-06
1.32282e-06
1.32108e-06
1.30683e-06
1.30849e-06
1.30863e-06
1.30887e-06
1.30842e-06
1.30801e-06
1.30748e-06
1.30707e-06
1.30666e-06
1.30635e-06
1.30606e-06
1.30584e-06
1.30564e-06
1.30548e-06
1.30533e-06
1.30522e-06
1.3051e-06
1.30502e-06
1.30493e-06
1.30488e-06
1.30482e-06
1.30479e-06
1.30476e-06
1.30474e-06
1.30473e-06
1.30473e-06
1.30474e-06
1.30476e-06
1.30479e-06
1.30482e-06
1.30488e-06
1.30493e-06
1.30501e-06
1.30509e-06
1.30521e-06
1.30531e-06
1.30546e-06
1.30562e-06
1.30582e-06
1.30604e-06
1.30633e-06
1.30663e-06
1.30703e-06
1.30744e-06
1.30797e-06
1.30838e-06
1.30882e-06
1.30859e-06
1.30845e-06
1.30678e-06
1.29297e-06
1.2945e-06
1.29454e-06
1.29471e-06
1.29424e-06
1.29381e-06
1.29328e-06
1.29286e-06
1.29246e-06
1.29215e-06
1.29185e-06
1.29164e-06
1.29143e-06
1.29127e-06
1.29112e-06
1.29101e-06
1.29089e-06
1.29081e-06
1.29072e-06
1.29067e-06
1.29061e-06
1.29058e-06
1.29054e-06
1.29053e-06
1.29052e-06
1.29052e-06
1.29053e-06
1.29054e-06
1.29057e-06
1.2906e-06
1.29066e-06
1.29072e-06
1.2908e-06
1.29088e-06
1.291e-06
1.2911e-06
1.29125e-06
1.29141e-06
1.29162e-06
1.29183e-06
1.29212e-06
1.29242e-06
1.29283e-06
1.29324e-06
1.29377e-06
1.2942e-06
1.29467e-06
1.2945e-06
1.29445e-06
1.29292e-06
1.279e-06
1.28042e-06
1.28038e-06
1.28049e-06
1.27999e-06
1.27953e-06
1.279e-06
1.27858e-06
1.27817e-06
1.27786e-06
1.27757e-06
1.27735e-06
1.27715e-06
1.27699e-06
1.27684e-06
1.27673e-06
1.27661e-06
1.27653e-06
1.27644e-06
1.27639e-06
1.27633e-06
1.2763e-06
1.27626e-06
1.27625e-06
1.27623e-06
1.27623e-06
1.27625e-06
1.27626e-06
1.27629e-06
1.27632e-06
1.27638e-06
1.27643e-06
1.27652e-06
1.2766e-06
1.27672e-06
1.27682e-06
1.27697e-06
1.27713e-06
1.27733e-06
1.27755e-06
1.27784e-06
1.27814e-06
1.27854e-06
1.27896e-06
1.2795e-06
1.27995e-06
1.28045e-06
1.28034e-06
1.28038e-06
1.27896e-06
1.26529e-06
1.26657e-06
1.26645e-06
1.26649e-06
1.26597e-06
1.26549e-06
1.26496e-06
1.26453e-06
1.26413e-06
1.26382e-06
1.26353e-06
1.26331e-06
1.2631e-06
1.26294e-06
1.26279e-06
1.26268e-06
1.26256e-06
1.26248e-06
1.26239e-06
1.26234e-06
1.26228e-06
1.26225e-06
1.26221e-06
1.2622e-06
1.26218e-06
1.26219e-06
1.2622e-06
1.26221e-06
1.26224e-06
1.26228e-06
1.26233e-06
1.26239e-06
1.26247e-06
1.26255e-06
1.26267e-06
1.26278e-06
1.26293e-06
1.26309e-06
1.26329e-06
1.26351e-06
1.26379e-06
1.2641e-06
1.2645e-06
1.26492e-06
1.26545e-06
1.26593e-06
1.26645e-06
1.26641e-06
1.26652e-06
1.26524e-06
1.25221e-06
1.25337e-06
1.25317e-06
1.25315e-06
1.2526e-06
1.2521e-06
1.25157e-06
1.25114e-06
1.25074e-06
1.25043e-06
1.25013e-06
1.24991e-06
1.24971e-06
1.24955e-06
1.24939e-06
1.24929e-06
1.24917e-06
1.24909e-06
1.249e-06
1.24894e-06
1.24888e-06
1.24885e-06
1.24881e-06
1.24879e-06
1.24878e-06
1.24878e-06
1.2488e-06
1.24881e-06
1.24884e-06
1.24888e-06
1.24893e-06
1.24899e-06
1.24907e-06
1.24915e-06
1.24927e-06
1.24938e-06
1.24953e-06
1.24969e-06
1.24989e-06
1.25011e-06
1.2504e-06
1.25071e-06
1.2511e-06
1.25153e-06
1.25207e-06
1.25256e-06
1.25311e-06
1.25312e-06
1.25332e-06
1.25216e-06
1.23912e-06
1.24019e-06
1.23989e-06
1.23982e-06
1.23924e-06
1.23872e-06
1.23818e-06
1.23774e-06
1.23734e-06
1.23703e-06
1.23674e-06
1.23652e-06
1.23632e-06
1.23616e-06
1.23601e-06
1.2359e-06
1.23578e-06
1.2357e-06
1.23561e-06
1.23556e-06
1.2355e-06
1.23547e-06
1.23543e-06
1.23542e-06
1.2354e-06
1.23541e-06
1.23542e-06
1.23543e-06
1.23546e-06
1.2355e-06
1.23555e-06
1.23561e-06
1.23569e-06
1.23577e-06
1.23589e-06
1.23599e-06
1.23614e-06
1.2363e-06
1.2365e-06
1.23672e-06
1.237e-06
1.23731e-06
1.23771e-06
1.23814e-06
1.23868e-06
1.2392e-06
1.23977e-06
1.23985e-06
1.24014e-06
1.23908e-06
1.22644e-06
1.2274e-06
1.22702e-06
1.22689e-06
1.22628e-06
1.22575e-06
1.2252e-06
1.22476e-06
1.22436e-06
1.22405e-06
1.22376e-06
1.22354e-06
1.22333e-06
1.22318e-06
1.22302e-06
1.22292e-06
1.2228e-06
1.22272e-06
1.22263e-06
1.22257e-06
1.22251e-06
1.22248e-06
1.22244e-06
1.22243e-06
1.22242e-06
1.22242e-06
1.22243e-06
1.22244e-06
1.22248e-06
1.22251e-06
1.22257e-06
1.22262e-06
1.22271e-06
1.22278e-06
1.2229e-06
1.22301e-06
1.22316e-06
1.22332e-06
1.22352e-06
1.22374e-06
1.22402e-06
1.22433e-06
1.22473e-06
1.22517e-06
1.22571e-06
1.22624e-06
1.22685e-06
1.22698e-06
1.22735e-06
1.22639e-06
1.21365e-06
1.2145e-06
1.21402e-06
1.21383e-06
1.21319e-06
1.21262e-06
1.21207e-06
1.21161e-06
1.21122e-06
1.2109e-06
1.21061e-06
1.21039e-06
1.21018e-06
1.21003e-06
1.20988e-06
1.20977e-06
1.20965e-06
1.20957e-06
1.20948e-06
1.20942e-06
1.20937e-06
1.20933e-06
1.2093e-06
1.20928e-06
1.20927e-06
1.20927e-06
1.20928e-06
1.2093e-06
1.20933e-06
1.20936e-06
1.20942e-06
1.20947e-06
1.20956e-06
1.20964e-06
1.20975e-06
1.20986e-06
1.21001e-06
1.21017e-06
1.21037e-06
1.21059e-06
1.21087e-06
1.21119e-06
1.21158e-06
1.21203e-06
1.21258e-06
1.21315e-06
1.21378e-06
1.21398e-06
1.21445e-06
1.2136e-06
1.20088e-06
1.20162e-06
1.20107e-06
1.20082e-06
1.20015e-06
1.19956e-06
1.19901e-06
1.19855e-06
1.19815e-06
1.19784e-06
1.19755e-06
1.19733e-06
1.19712e-06
1.19697e-06
1.19681e-06
1.1967e-06
1.19658e-06
1.1965e-06
1.19641e-06
1.19636e-06
1.1963e-06
1.19626e-06
1.19623e-06
1.19621e-06
1.1962e-06
1.1962e-06
1.19621e-06
1.19623e-06
1.19626e-06
1.19629e-06
1.19635e-06
1.19641e-06
1.19649e-06
1.19657e-06
1.19669e-06
1.1968e-06
1.19695e-06
1.1971e-06
1.19731e-06
1.19753e-06
1.19781e-06
1.19812e-06
1.19852e-06
1.19897e-06
1.19953e-06
1.20011e-06
1.20077e-06
1.20103e-06
1.20157e-06
1.20083e-06
1.1882e-06
1.18883e-06
1.18821e-06
1.1879e-06
1.18721e-06
1.1866e-06
1.18605e-06
1.18558e-06
1.18519e-06
1.18487e-06
1.18458e-06
1.18436e-06
1.18415e-06
1.184e-06
1.18384e-06
1.18373e-06
1.18361e-06
1.18353e-06
1.18344e-06
1.18338e-06
1.18333e-06
1.18329e-06
1.18325e-06
1.18324e-06
1.18323e-06
1.18323e-06
1.18324e-06
1.18325e-06
1.18329e-06
1.18332e-06
1.18338e-06
1.18343e-06
1.18352e-06
1.1836e-06
1.18372e-06
1.18383e-06
1.18398e-06
1.18413e-06
1.18434e-06
1.18456e-06
1.18484e-06
1.18516e-06
1.18555e-06
1.18601e-06
1.18656e-06
1.18717e-06
1.18786e-06
1.18817e-06
1.18879e-06
1.18815e-06
1.17558e-06
1.1761e-06
1.17541e-06
1.17504e-06
1.17433e-06
1.1737e-06
1.17314e-06
1.17267e-06
1.17228e-06
1.17196e-06
1.17167e-06
1.17144e-06
1.17124e-06
1.17108e-06
1.17093e-06
1.17082e-06
1.1707e-06
1.17062e-06
1.17053e-06
1.17047e-06
1.17041e-06
1.17037e-06
1.17034e-06
1.17032e-06
1.17031e-06
1.17031e-06
1.17032e-06
1.17034e-06
1.17037e-06
1.17041e-06
1.17046e-06
1.17052e-06
1.17061e-06
1.17069e-06
1.17081e-06
1.17091e-06
1.17107e-06
1.17122e-06
1.17142e-06
1.17165e-06
1.17193e-06
1.17225e-06
1.17264e-06
1.1731e-06
1.17366e-06
1.17429e-06
1.175e-06
1.17537e-06
1.17606e-06
1.17553e-06
1.16297e-06
1.1634e-06
1.16263e-06
1.16221e-06
1.16148e-06
1.16082e-06
1.16026e-06
1.15979e-06
1.15939e-06
1.15907e-06
1.15878e-06
1.15855e-06
1.15835e-06
1.15819e-06
1.15804e-06
1.15793e-06
1.15781e-06
1.15773e-06
1.15764e-06
1.15758e-06
1.15752e-06
1.15748e-06
1.15745e-06
1.15743e-06
1.15742e-06
1.15742e-06
1.15743e-06
1.15745e-06
1.15748e-06
1.15751e-06
1.15757e-06
1.15763e-06
1.15772e-06
1.1578e-06
1.15792e-06
1.15802e-06
1.15818e-06
1.15833e-06
1.15853e-06
1.15876e-06
1.15904e-06
1.15936e-06
1.15975e-06
1.16022e-06
1.16078e-06
1.16144e-06
1.16217e-06
1.16259e-06
1.16335e-06
1.16292e-06
1.15071e-06
1.15105e-06
1.15021e-06
1.14973e-06
1.14897e-06
1.14829e-06
1.14773e-06
1.14725e-06
1.14685e-06
1.14652e-06
1.14624e-06
1.14601e-06
1.14581e-06
1.14565e-06
1.14549e-06
1.14538e-06
1.14526e-06
1.14518e-06
1.14509e-06
1.14503e-06
1.14497e-06
1.14493e-06
1.1449e-06
1.14488e-06
1.14487e-06
1.14487e-06
1.14488e-06
1.1449e-06
1.14493e-06
1.14497e-06
1.14503e-06
1.14508e-06
1.14517e-06
1.14525e-06
1.14537e-06
1.14548e-06
1.14564e-06
1.14579e-06
1.14599e-06
1.14622e-06
1.1465e-06
1.14682e-06
1.14721e-06
1.14769e-06
1.14825e-06
1.14893e-06
1.14969e-06
1.15016e-06
1.151e-06
1.15066e-06
1.13842e-06
1.13868e-06
1.13776e-06
1.13723e-06
1.13645e-06
1.13574e-06
1.13517e-06
1.13468e-06
1.13429e-06
1.13396e-06
1.13368e-06
1.13344e-06
1.13324e-06
1.13309e-06
1.13293e-06
1.13282e-06
1.1327e-06
1.13261e-06
1.13252e-06
1.13246e-06
1.1324e-06
1.13236e-06
1.13233e-06
1.13231e-06
1.1323e-06
1.1323e-06
1.13231e-06
1.13233e-06
1.13236e-06
1.1324e-06
1.13246e-06
1.13251e-06
1.1326e-06
1.13268e-06
1.1328e-06
1.13291e-06
1.13307e-06
1.13322e-06
1.13342e-06
1.13365e-06
1.13393e-06
1.13426e-06
1.13465e-06
1.13513e-06
1.1357e-06
1.13641e-06
1.13718e-06
1.13771e-06
1.13863e-06
1.13838e-06
1.12608e-06
1.12619e-06
1.12511e-06
1.12449e-06
1.12365e-06
1.1229e-06
1.12231e-06
1.12181e-06
1.12141e-06
1.12108e-06
1.12079e-06
1.12056e-06
1.12035e-06
1.1202e-06
1.12004e-06
1.11992e-06
1.1198e-06
1.11972e-06
1.11963e-06
1.11957e-06
1.11951e-06
1.11947e-06
1.11943e-06
1.11941e-06
1.1194e-06
1.1194e-06
1.11941e-06
1.11943e-06
1.11946e-06
1.1195e-06
1.11956e-06
1.11962e-06
1.11971e-06
1.11979e-06
1.11991e-06
1.12002e-06
1.12018e-06
1.12033e-06
1.12054e-06
1.12077e-06
1.12105e-06
1.12138e-06
1.12178e-06
1.12228e-06
1.12286e-06
1.12361e-06
1.12444e-06
1.12507e-06
1.12614e-06
1.12603e-06
1.11366e-06
1.11369e-06
1.11253e-06
1.11185e-06
1.11099e-06
1.11021e-06
1.10961e-06
1.10911e-06
1.1087e-06
1.10837e-06
1.10808e-06
1.10784e-06
1.10764e-06
1.10748e-06
1.10733e-06
1.10721e-06
1.10709e-06
1.107e-06
1.10691e-06
1.10685e-06
1.10679e-06
1.10675e-06
1.10672e-06
1.1067e-06
1.10668e-06
1.10668e-06
1.1067e-06
1.10672e-06
1.10675e-06
1.10679e-06
1.10685e-06
1.10691e-06
1.107e-06
1.10708e-06
1.1072e-06
1.10731e-06
1.10747e-06
1.10762e-06
1.10782e-06
1.10806e-06
1.10834e-06
1.10867e-06
1.10907e-06
1.10958e-06
1.11017e-06
1.11095e-06
1.11181e-06
1.11249e-06
1.11364e-06
1.11361e-06
1.10114e-06
1.10108e-06
1.09985e-06
1.09911e-06
1.09822e-06
1.0974e-06
1.09681e-06
1.09629e-06
1.09589e-06
1.09555e-06
1.09527e-06
1.09502e-06
1.09482e-06
1.09467e-06
1.09451e-06
1.09439e-06
1.09427e-06
1.09418e-06
1.09409e-06
1.09403e-06
1.09397e-06
1.09393e-06
1.09389e-06
1.09387e-06
1.09386e-06
1.09386e-06
1.09387e-06
1.09389e-06
1.09393e-06
1.09396e-06
1.09403e-06
1.09408e-06
1.09417e-06
1.09426e-06
1.09438e-06
1.09449e-06
1.09465e-06
1.0948e-06
1.09501e-06
1.09524e-06
1.09552e-06
1.09586e-06
1.09626e-06
1.09677e-06
1.09736e-06
1.09818e-06
1.09906e-06
1.0998e-06
1.10103e-06
1.10109e-06
1.08849e-06
1.08835e-06
1.08703e-06
1.08623e-06
1.08532e-06
1.08445e-06
1.08383e-06
1.08331e-06
1.0829e-06
1.08256e-06
1.08227e-06
1.08203e-06
1.08183e-06
1.08167e-06
1.08152e-06
1.0814e-06
1.08128e-06
1.0812e-06
1.08111e-06
1.08105e-06
1.08099e-06
1.08095e-06
1.08092e-06
1.0809e-06
1.08089e-06
1.08089e-06
1.0809e-06
1.08091e-06
1.08095e-06
1.08098e-06
1.08104e-06
1.0811e-06
1.08119e-06
1.08127e-06
1.08139e-06
1.0815e-06
1.08166e-06
1.08181e-06
1.08201e-06
1.08225e-06
1.08253e-06
1.08287e-06
1.08327e-06
1.0838e-06
1.08441e-06
1.08528e-06
1.08619e-06
1.08699e-06
1.08831e-06
1.08844e-06
1.07542e-06
1.07519e-06
1.07376e-06
1.07289e-06
1.07195e-06
1.07103e-06
1.0704e-06
1.06987e-06
1.06946e-06
1.06911e-06
1.06883e-06
1.06858e-06
1.06838e-06
1.06823e-06
1.06807e-06
1.06796e-06
1.06784e-06
1.06776e-06
1.06767e-06
1.06761e-06
1.06755e-06
1.06751e-06
1.06748e-06
1.06746e-06
1.06745e-06
1.06745e-06
1.06746e-06
1.06747e-06
1.06751e-06
1.06754e-06
1.0676e-06
1.06766e-06
1.06775e-06
1.06783e-06
1.06795e-06
1.06806e-06
1.06822e-06
1.06836e-06
1.06856e-06
1.0688e-06
1.06908e-06
1.06943e-06
1.06983e-06
1.07037e-06
1.07099e-06
1.07191e-06
1.07285e-06
1.07372e-06
1.07514e-06
1.07537e-06
1.06241e-06
1.06211e-06
1.0606e-06
1.05967e-06
1.05871e-06
1.05774e-06
1.05711e-06
1.05657e-06
1.05615e-06
1.0558e-06
1.05552e-06
1.05528e-06
1.05508e-06
1.05492e-06
1.05476e-06
1.05465e-06
1.05453e-06
1.05445e-06
1.05436e-06
1.0543e-06
1.05424e-06
1.0542e-06
1.05417e-06
1.05415e-06
1.05413e-06
1.05413e-06
1.05415e-06
1.05416e-06
1.0542e-06
1.05423e-06
1.05429e-06
1.05435e-06
1.05444e-06
1.05452e-06
1.05464e-06
1.05475e-06
1.05491e-06
1.05506e-06
1.05525e-06
1.05549e-06
1.05577e-06
1.05612e-06
1.05653e-06
1.05707e-06
1.0577e-06
1.05866e-06
1.05962e-06
1.06056e-06
1.06206e-06
1.06236e-06
1.04905e-06
1.04864e-06
1.04699e-06
1.04598e-06
1.04498e-06
1.04424e-06
1.0436e-06
1.04306e-06
1.04264e-06
1.04229e-06
1.042e-06
1.04176e-06
1.04156e-06
1.04141e-06
1.04125e-06
1.04114e-06
1.04102e-06
1.04093e-06
1.04084e-06
1.04078e-06
1.04072e-06
1.04068e-06
1.04065e-06
1.04063e-06
1.04062e-06
1.04062e-06
1.04063e-06
1.04065e-06
1.04068e-06
1.04072e-06
1.04078e-06
1.04083e-06
1.04092e-06
1.041e-06
1.04112e-06
1.04123e-06
1.04139e-06
1.04154e-06
1.04174e-06
1.04198e-06
1.04226e-06
1.04261e-06
1.04302e-06
1.04357e-06
1.0442e-06
1.04494e-06
1.04593e-06
1.04695e-06
1.04859e-06
1.049e-06
1.0356e-06
1.03512e-06
1.03339e-06
1.03231e-06
1.03129e-06
1.03051e-06
1.02987e-06
1.02932e-06
1.0289e-06
1.02854e-06
1.02826e-06
1.02802e-06
1.02782e-06
1.02766e-06
1.02751e-06
1.0274e-06
1.02727e-06
1.02719e-06
1.0271e-06
1.02704e-06
1.02698e-06
1.02694e-06
1.0269e-06
1.02688e-06
1.02687e-06
1.02687e-06
1.02688e-06
1.0269e-06
1.02694e-06
1.02697e-06
1.02703e-06
1.02709e-06
1.02718e-06
1.02726e-06
1.02738e-06
1.02749e-06
1.02765e-06
1.0278e-06
1.028e-06
1.02823e-06
1.02851e-06
1.02887e-06
1.02928e-06
1.02983e-06
1.03047e-06
1.03124e-06
1.03226e-06
1.03335e-06
1.03507e-06
1.03555e-06
1.02191e-06
1.02135e-06
1.01954e-06
1.01839e-06
1.01734e-06
1.01653e-06
1.01589e-06
1.01533e-06
1.01492e-06
1.01455e-06
1.01427e-06
1.01403e-06
1.01382e-06
1.01367e-06
1.01351e-06
1.0134e-06
1.01328e-06
1.0132e-06
1.01311e-06
1.01305e-06
1.01299e-06
1.01295e-06
1.01291e-06
1.01289e-06
1.01288e-06
1.01288e-06
1.01289e-06
1.01291e-06
1.01294e-06
1.01298e-06
1.01304e-06
1.0131e-06
1.01319e-06
1.01327e-06
1.01339e-06
1.0135e-06
1.01366e-06
1.0138e-06
1.014e-06
1.01424e-06
1.01452e-06
1.01488e-06
1.01529e-06
1.01585e-06
1.01649e-06
1.0173e-06
1.01834e-06
1.01949e-06
1.0213e-06
1.02186e-06
1.00777e-06
1.0071e-06
1.00519e-06
1.00393e-06
1.00286e-06
1.002e-06
1.00136e-06
1.00079e-06
1.00038e-06
1e-06
9.9972e-07
9.99479e-07
9.99277e-07
9.99128e-07
9.98969e-07
9.9886e-07
9.98738e-07
9.98657e-07
9.98566e-07
9.98509e-07
9.98446e-07
9.98409e-07
9.98371e-07
9.98352e-07
9.9834e-07
9.98339e-07
9.98351e-07
9.98368e-07
9.98404e-07
9.98439e-07
9.98501e-07
9.98557e-07
9.98646e-07
9.98725e-07
9.98846e-07
9.98953e-07
9.99111e-07
9.99258e-07
9.99456e-07
9.99692e-07
9.99973e-07
1.00034e-06
1.00075e-06
1.00132e-06
1.00197e-06
1.00282e-06
1.00389e-06
1.00515e-06
1.00706e-06
1.00772e-06
9.93122e-07
9.9237e-07
9.90412e-07
9.89434e-07
9.88334e-07
9.8745e-07
9.86809e-07
9.86227e-07
9.85813e-07
9.85436e-07
9.85152e-07
9.84912e-07
9.8471e-07
9.84562e-07
9.84403e-07
9.84295e-07
9.84172e-07
9.84092e-07
9.84001e-07
9.83943e-07
9.8388e-07
9.83843e-07
9.83805e-07
9.83787e-07
9.83774e-07
9.83773e-07
9.83785e-07
9.83802e-07
9.83838e-07
9.83873e-07
9.83935e-07
9.83991e-07
9.84081e-07
9.84159e-07
9.8428e-07
9.84387e-07
9.84545e-07
9.8469e-07
9.84889e-07
9.85124e-07
9.85404e-07
9.85781e-07
9.8619e-07
9.86771e-07
9.87411e-07
9.88293e-07
9.8939e-07
9.90368e-07
9.92324e-07
9.93075e-07
9.78526e-07
9.77691e-07
9.75674e-07
9.7462e-07
9.73496e-07
9.72583e-07
9.71942e-07
9.71352e-07
9.70939e-07
9.70555e-07
9.70273e-07
9.70033e-07
9.69831e-07
9.69684e-07
9.69524e-07
9.69417e-07
9.69295e-07
9.69215e-07
9.69123e-07
9.69066e-07
9.69003e-07
9.68966e-07
9.68928e-07
9.68909e-07
9.68896e-07
9.68896e-07
9.68908e-07
9.68925e-07
9.68961e-07
9.68996e-07
9.69058e-07
9.69114e-07
9.69204e-07
9.69281e-07
9.69402e-07
9.69508e-07
9.69666e-07
9.69811e-07
9.7001e-07
9.70244e-07
9.70523e-07
9.70907e-07
9.71315e-07
9.71904e-07
9.72544e-07
9.73455e-07
9.74577e-07
9.7563e-07
9.77646e-07
9.78478e-07
9.63595e-07
9.6268e-07
9.60598e-07
9.59473e-07
9.58324e-07
9.57384e-07
9.56744e-07
9.56147e-07
9.55735e-07
9.55344e-07
9.55062e-07
9.54823e-07
9.54621e-07
9.54475e-07
9.54316e-07
9.54209e-07
9.54087e-07
9.54008e-07
9.53916e-07
9.53859e-07
9.53796e-07
9.53759e-07
9.53721e-07
9.53702e-07
9.53689e-07
9.53688e-07
9.537e-07
9.53717e-07
9.53753e-07
9.53789e-07
9.53851e-07
9.53906e-07
9.53996e-07
9.54073e-07
9.54194e-07
9.54299e-07
9.54457e-07
9.54601e-07
9.548e-07
9.55032e-07
9.55311e-07
9.55703e-07
9.5611e-07
9.56707e-07
9.57345e-07
9.58283e-07
9.59431e-07
9.60554e-07
9.62635e-07
9.63548e-07
9.48312e-07
9.47318e-07
9.45165e-07
9.43976e-07
9.42798e-07
9.41834e-07
9.41196e-07
9.40591e-07
9.40183e-07
9.39781e-07
9.39501e-07
9.39264e-07
9.39062e-07
9.38917e-07
9.38758e-07
9.38652e-07
9.38529e-07
9.38451e-07
9.3836e-07
9.38303e-07
9.38239e-07
9.38203e-07
9.38164e-07
9.38145e-07
9.38132e-07
9.38132e-07
9.38144e-07
9.38161e-07
9.38197e-07
9.38232e-07
9.38295e-07
9.38349e-07
9.38439e-07
9.38516e-07
9.38637e-07
9.38741e-07
9.38899e-07
9.39042e-07
9.3924e-07
9.39471e-07
9.39748e-07
9.40151e-07
9.40554e-07
9.41159e-07
9.41796e-07
9.42758e-07
9.43934e-07
9.45122e-07
9.47273e-07
9.48264e-07
9.32656e-07
9.31587e-07
9.29356e-07
9.28107e-07
9.269e-07
9.25914e-07
9.25278e-07
9.24667e-07
9.24263e-07
9.23849e-07
9.23571e-07
9.23335e-07
9.23133e-07
9.2299e-07
9.2283e-07
9.22726e-07
9.22603e-07
9.22526e-07
9.22434e-07
9.22378e-07
9.22314e-07
9.22278e-07
9.22239e-07
9.2222e-07
9.22207e-07
9.22206e-07
9.22218e-07
9.22235e-07
9.22272e-07
9.22307e-07
9.22369e-07
9.22424e-07
9.22514e-07
9.22589e-07
9.22711e-07
9.22814e-07
9.22971e-07
9.23113e-07
9.2331e-07
9.2354e-07
9.23816e-07
9.24231e-07
9.2463e-07
9.25241e-07
9.25876e-07
9.26861e-07
9.28066e-07
9.29314e-07
9.31542e-07
9.32609e-07
9.1661e-07
9.15466e-07
9.13152e-07
9.11843e-07
9.10613e-07
9.09547e-07
9.08885e-07
9.08243e-07
9.07833e-07
9.07527e-07
9.07251e-07
9.07016e-07
9.06815e-07
9.06673e-07
9.06514e-07
9.06411e-07
9.06288e-07
9.06212e-07
9.0612e-07
9.06064e-07
9.06e-07
9.05964e-07
9.05925e-07
9.05907e-07
9.05893e-07
9.05892e-07
9.05904e-07
9.05921e-07
9.05958e-07
9.05993e-07
9.06055e-07
9.06109e-07
9.06199e-07
9.06274e-07
9.06395e-07
9.06497e-07
9.06654e-07
9.06794e-07
9.06992e-07
9.0722e-07
9.07493e-07
9.07798e-07
9.08204e-07
9.08846e-07
9.09507e-07
9.10572e-07
9.11802e-07
9.13111e-07
9.15422e-07
9.16563e-07
9.00152e-07
8.98937e-07
8.96533e-07
8.95167e-07
8.93913e-07
8.92822e-07
8.92163e-07
8.91513e-07
8.91108e-07
8.90795e-07
8.90522e-07
8.90287e-07
8.90087e-07
8.89947e-07
8.89788e-07
8.89686e-07
8.89564e-07
8.89488e-07
8.89396e-07
8.89341e-07
8.89277e-07
8.89241e-07
8.89202e-07
8.89183e-07
8.8917e-07
8.89169e-07
8.89181e-07
8.89198e-07
8.89235e-07
8.89269e-07
8.89332e-07
8.89385e-07
8.89475e-07
8.89549e-07
8.8967e-07
8.89771e-07
8.89928e-07
8.90066e-07
8.90263e-07
8.9049e-07
8.90761e-07
8.91072e-07
8.91474e-07
8.92124e-07
8.92783e-07
8.93873e-07
8.95127e-07
8.96492e-07
8.98893e-07
9.00105e-07
8.83188e-07
8.81859e-07
8.79476e-07
8.78058e-07
8.76781e-07
8.75665e-07
8.75009e-07
8.74351e-07
8.73951e-07
8.73632e-07
8.73362e-07
8.73128e-07
8.72929e-07
8.7279e-07
8.72632e-07
8.72531e-07
8.72409e-07
8.72334e-07
8.72242e-07
8.72188e-07
8.72124e-07
8.72088e-07
8.72049e-07
8.7203e-07
8.72016e-07
8.72016e-07
8.72028e-07
8.72044e-07
8.72081e-07
8.72115e-07
8.72178e-07
8.72231e-07
8.72321e-07
8.72394e-07
8.72515e-07
8.72614e-07
8.72771e-07
8.72907e-07
8.73104e-07
8.73328e-07
8.73597e-07
8.73915e-07
8.74313e-07
8.7497e-07
8.75626e-07
8.76741e-07
8.78019e-07
8.79435e-07
8.81814e-07
8.8314e-07
8.65842e-07
8.64443e-07
8.61962e-07
8.60496e-07
8.59195e-07
8.58056e-07
8.57403e-07
8.56737e-07
8.56343e-07
8.56018e-07
8.55751e-07
8.55517e-07
8.55319e-07
8.55182e-07
8.55024e-07
8.54925e-07
8.54802e-07
8.54729e-07
8.54637e-07
8.54584e-07
8.54519e-07
8.54483e-07
8.54444e-07
8.54426e-07
8.54412e-07
8.54411e-07
8.54423e-07
8.5444e-07
8.54477e-07
8.54511e-07
8.54573e-07
8.54625e-07
8.54715e-07
8.54787e-07
8.54908e-07
8.55006e-07
8.55162e-07
8.55297e-07
8.55493e-07
8.55715e-07
8.55982e-07
8.56306e-07
8.56698e-07
8.57364e-07
8.58016e-07
8.59155e-07
8.60457e-07
8.61921e-07
8.64397e-07
8.65793e-07
8.47832e-07
8.46345e-07
8.4397e-07
8.42461e-07
8.41134e-07
8.39973e-07
8.39325e-07
8.38651e-07
8.38262e-07
8.37933e-07
8.37669e-07
)
;

boundaryField
{
    fuel
    {
        type            fixedValue;
        value           nonuniform 0();
    }
    wall
    {
        type            zeroGradient;
    }
    outlet
    {
        type            zeroGradient;
    }
    frontAndBack
    {
        type            empty;
    }
    procBoundary2to0
    {
        type            processor;
        value           nonuniform List<scalar> 
53
(
1.44957e-06
1.45263e-06
1.45383e-06
1.45473e-06
1.45458e-06
1.45436e-06
1.45384e-06
1.45347e-06
1.45304e-06
1.45274e-06
1.45244e-06
1.45223e-06
1.45202e-06
1.45187e-06
1.45172e-06
1.45162e-06
1.4515e-06
1.45143e-06
1.43315e-06
1.43315e-06
1.4331e-06
1.43304e-06
1.43301e-06
1.43298e-06
1.43297e-06
1.43296e-06
1.43296e-06
1.43297e-06
1.43298e-06
1.41535e-06
1.41535e-06
1.41538e-06
1.41544e-06
1.41548e-06
1.41557e-06
1.41564e-06
1.41576e-06
1.41585e-06
1.41601e-06
1.41616e-06
1.41637e-06
1.41657e-06
1.39973e-06
1.39973e-06
1.40003e-06
1.40045e-06
1.40082e-06
1.40134e-06
1.40162e-06
1.40187e-06
1.40121e-06
1.40042e-06
1.3979e-06
)
;
    }
    procBoundary2to3
    {
        type            processor;
        value           nonuniform List<scalar> 
51
(
8.37456e-07
8.37259e-07
8.37124e-07
8.36966e-07
8.36869e-07
8.36747e-07
8.36675e-07
8.36583e-07
8.3653e-07
8.36466e-07
8.36431e-07
8.36392e-07
8.36373e-07
8.36359e-07
8.36358e-07
8.36371e-07
8.36387e-07
8.36424e-07
8.36457e-07
8.3652e-07
8.36571e-07
8.36661e-07
8.36732e-07
8.36852e-07
8.36948e-07
8.37104e-07
8.37237e-07
8.37432e-07
8.37652e-07
8.37916e-07
8.38245e-07
8.38632e-07
8.39307e-07
8.39955e-07
8.41115e-07
8.42442e-07
8.4395e-07
8.46327e-07
8.47811e-07
8.29529e-07
8.27965e-07
8.25508e-07
8.23957e-07
8.22603e-07
8.21423e-07
8.20781e-07
8.20097e-07
8.19715e-07
8.19381e-07
8.37456e-07
8.19122e-07
)
;
    }
}


// ************************************************************************* //
