/*--------------------------------*- C++ -*----------------------------------*\
| =========                 |                                                 |
| \\      /  F ield         | OpenFOAM: The Open Source CFD Toolbox           |
|  \\    /   O peration     | Version:  dev                                   |
|   \\  /    A nd           | Web:      www.OpenFOAM.org                      |
|    \\/     M anipulation  |                                                 |
\*---------------------------------------------------------------------------*/
FoamFile
{
    version     2.0;
    format      ascii;
    class       volScalarField;
    location    "0.035";
    object      H2O;
}
// * * * * * * * * * * * * * * * * * * * * * * * * * * * * * * * * * * * * * //

dimensions      [0 0 0 0 0 0 0];

internalField   nonuniform List<scalar> 
1997
(
0.0598221
0.0598301
0.0598308
0.0598319
0.0598298
0.0598282
0.0598259
0.0598244
0.0598229
0.059822
0.0598211
0.0598206
0.0598201
0.0598198
0.0598194
0.0598193
0.059819
0.0598189
0.0597526
0.0597602
0.0597603
0.0597611
0.0597588
0.059757
0.0597547
0.0597532
0.0597516
0.0597507
0.0597498
0.0597493
0.0597487
0.0597484
0.0597481
0.0597479
0.0597477
0.0597476
0.0597474
0.0597473
0.0597472
0.0597472
0.0597471
0.0597471
0.059747
0.059747
0.0597471
0.0597471
0.0596828
0.0596899
0.0596895
0.0596899
0.0596874
0.0596855
0.0596831
0.0596815
0.05968
0.0596791
0.0596781
0.0596776
0.0596771
0.0596768
0.0596764
0.0596763
0.059676
0.0596759
0.0596757
0.0596757
0.0596755
0.0596755
0.0596754
0.0596754
0.0596754
0.0596754
0.0596754
0.0596754
0.0596755
0.0596755
0.0596756
0.0596757
0.0596759
0.0596759
0.0596762
0.0596764
0.0596767
0.059677
0.0596776
0.0596781
0.0596126
0.0596192
0.0596183
0.0596184
0.0596157
0.0596136
0.0596112
0.0596095
0.059608
0.059607
0.0596061
0.0596056
0.059605
0.0596047
0.0596043
0.0596042
0.0596039
0.0596038
0.0596036
0.0596036
0.0596034
0.0596034
0.0596033
0.0596033
0.0596033
0.0596033
0.0596033
0.0596033
0.0596034
0.0596034
0.0596035
0.0596036
0.0596038
0.0596039
0.0596041
0.0596043
0.0596047
0.0596049
0.0596055
0.059606
0.059607
0.0596079
0.0596095
0.0596111
0.0596136
0.0596156
0.0596184
0.0596183
0.0596192
0.0596126
0.0595419
0.059548
0.0595466
0.0595464
0.0595434
0.0595412
0.0595387
0.059537
0.0595355
0.0595345
0.0595335
0.059533
0.0595324
0.0595321
0.0595318
0.0595316
0.0595313
0.0595312
0.0595311
0.059531
0.0595309
0.0595308
0.0595307
0.0595307
0.0595307
0.0595307
0.0595307
0.0595307
0.0595308
0.0595308
0.059531
0.059531
0.0595312
0.0595313
0.0595316
0.0595317
0.0595321
0.0595324
0.059533
0.0595335
0.0595344
0.0595354
0.059537
0.0595387
0.0595412
0.0595434
0.0595464
0.0595466
0.059548
0.0595419
0.0594707
0.0594763
0.0594744
0.0594738
0.0594707
0.0594683
0.0594657
0.059464
0.0594624
0.0594614
0.0594604
0.0594599
0.0594593
0.059459
0.0594586
0.0594585
0.0594582
0.0594581
0.0594579
0.0594579
0.0594577
0.0594577
0.0594576
0.0594576
0.0594575
0.0594575
0.0594576
0.0594576
0.0594577
0.0594577
0.0594578
0.0594579
0.0594581
0.0594582
0.0594584
0.0594586
0.059459
0.0594593
0.0594599
0.0594604
0.0594613
0.0594624
0.059464
0.0594657
0.0594683
0.0594706
0.0594738
0.0594743
0.0594763
0.0594707
0.0593989
0.059404
0.0594015
0.0594006
0.0593973
0.0593948
0.0593921
0.0593903
0.0593887
0.0593877
0.0593867
0.0593862
0.0593856
0.0593853
0.0593849
0.0593848
0.0593845
0.0593844
0.0593842
0.0593841
0.059384
0.0593839
0.0593839
0.0593838
0.0593838
0.0593838
0.0593838
0.0593838
0.0593839
0.0593839
0.0593841
0.0593841
0.0593843
0.0593844
0.0593847
0.0593849
0.0593852
0.0593855
0.0593861
0.0593867
0.0593876
0.0593887
0.0593903
0.0593921
0.0593947
0.0593972
0.0594006
0.0594015
0.059404
0.0593989
0.0593263
0.0593309
0.0593279
0.0593267
0.0593232
0.0593205
0.0593178
0.059316
0.0593143
0.0593133
0.0593123
0.0593117
0.0593112
0.0593108
0.0593105
0.0593103
0.05931
0.0593099
0.0593097
0.0593097
0.0593095
0.0593095
0.0593094
0.0593094
0.0593093
0.0593093
0.0593094
0.0593094
0.0593095
0.0593095
0.0593096
0.0593097
0.0593099
0.05931
0.0593103
0.0593104
0.0593108
0.0593111
0.0593117
0.0593123
0.0593132
0.0593143
0.0593159
0.0593178
0.0593205
0.0593231
0.0593267
0.0593279
0.0593309
0.0593263
0.0592525
0.059257
0.0592535
0.059252
0.0592481
0.0592452
0.0592424
0.0592405
0.0592388
0.0592377
0.0592367
0.0592361
0.0592355
0.0592352
0.0592349
0.0592347
0.0592344
0.0592344
0.0592342
0.0592341
0.059234
0.0592339
0.0592338
0.0592338
0.0592338
0.0592338
0.0592338
0.0592338
0.0592339
0.0592339
0.0592341
0.0592341
0.0592343
0.0592344
0.0592347
0.0592348
0.0592352
0.0592355
0.0592361
0.0592366
0.0592376
0.0592387
0.0592404
0.0592424
0.0592452
0.0592481
0.059252
0.0592535
0.059257
0.0592525
0.0591783
0.0591823
0.0591783
0.0591765
0.0591724
0.0591694
0.0591664
0.0591644
0.0591627
0.0591616
0.0591606
0.0591601
0.0591595
0.0591592
0.0591588
0.0591586
0.0591584
0.0591583
0.0591581
0.059158
0.0591579
0.0591578
0.0591578
0.0591577
0.0591577
0.0591577
0.0591577
0.0591577
0.0591578
0.0591578
0.059158
0.059158
0.0591582
0.0591583
0.0591586
0.0591587
0.0591591
0.0591594
0.05916
0.0591606
0.0591616
0.0591627
0.0591644
0.0591664
0.0591693
0.0591724
0.0591765
0.0591783
0.0591823
0.0591783
0.0591009
0.0591046
0.0591001
0.059098
0.0590936
0.0590904
0.0590874
0.0590853
0.0590836
0.0590825
0.0590815
0.0590809
0.0590803
0.05908
0.0590796
0.0590795
0.0590792
0.0590791
0.0590789
0.0590789
0.0590787
0.0590787
0.0590786
0.0590786
0.0590785
0.0590785
0.0590786
0.0590786
0.0590787
0.0590787
0.0590788
0.0590789
0.0590791
0.0590791
0.0590794
0.0590796
0.05908
0.0590802
0.0590808
0.0590814
0.0590824
0.0590836
0.0590853
0.0590874
0.0590904
0.0590936
0.059098
0.0591001
0.0591046
0.059101
0.0590223
0.0590254
0.0590204
0.059018
0.0590134
0.0590101
0.059007
0.0590049
0.0590031
0.059002
0.059001
0.0590004
0.0589998
0.0589995
0.0589991
0.058999
0.0589987
0.0589986
0.0589984
0.0589984
0.0589982
0.0589982
0.0589981
0.058998
0.058998
0.058998
0.058998
0.058998
0.0589981
0.0589982
0.0589983
0.0589983
0.0589985
0.0589986
0.0589989
0.058999
0.0589994
0.0589997
0.0590003
0.0590009
0.0590019
0.0590031
0.0590048
0.059007
0.05901
0.0590134
0.059018
0.0590204
0.0590254
0.0590223
0.0589449
0.0589475
0.058942
0.0589392
0.0589345
0.0589309
0.0589278
0.0589256
0.0589238
0.0589226
0.0589216
0.058921
0.0589204
0.0589202
0.0589198
0.0589196
0.0589193
0.0589193
0.0589191
0.058919
0.0589189
0.0589188
0.0589187
0.0589187
0.0589187
0.0589186
0.0589187
0.0589187
0.0589188
0.0589188
0.058919
0.058919
0.0589192
0.0589193
0.0589196
0.0589197
0.0589201
0.0589204
0.058921
0.0589216
0.0589226
0.0589238
0.0589256
0.0589278
0.0589309
0.0589344
0.0589392
0.058942
0.0589475
0.0589449
0.0588649
0.0588672
0.058861
0.058858
0.058853
0.0588492
0.058846
0.0588438
0.058842
0.0588408
0.0588398
0.0588392
0.0588386
0.0588383
0.0588379
0.0588378
0.0588375
0.0588375
0.0588373
0.0588372
0.0588371
0.0588371
0.058837
0.0588369
0.0588369
0.0588369
0.0588369
0.0588369
0.058837
0.0588371
0.0588372
0.0588372
0.0588374
0.0588375
0.0588378
0.0588379
0.0588383
0.0588385
0.0588391
0.0588397
0.0588407
0.0588419
0.0588437
0.058846
0.0588492
0.058853
0.058858
0.0588611
0.0588672
0.0588649
0.058785
0.0587868
0.0587801
0.0587768
0.0587715
0.0587676
0.0587643
0.058762
0.0587602
0.058759
0.058758
0.0587574
0.0587568
0.0587565
0.0587561
0.058756
0.0587558
0.0587557
0.0587555
0.0587555
0.0587553
0.0587553
0.0587552
0.0587551
0.0587551
0.0587551
0.0587551
0.0587551
0.0587552
0.0587553
0.0587554
0.0587554
0.0587556
0.0587557
0.058756
0.0587561
0.0587565
0.0587567
0.0587573
0.0587579
0.0587589
0.0587602
0.058762
0.0587643
0.0587676
0.0587715
0.0587768
0.0587801
0.0587868
0.058785
0.0587019
0.0587033
0.058696
0.0586922
0.0586867
0.0586826
0.0586792
0.0586768
0.0586749
0.0586737
0.0586727
0.0586721
0.0586715
0.0586712
0.0586709
0.0586707
0.0586705
0.0586704
0.0586702
0.0586702
0.05867
0.05867
0.0586699
0.0586699
0.0586698
0.0586698
0.0586699
0.0586699
0.05867
0.05867
0.0586701
0.0586702
0.0586703
0.0586704
0.0586707
0.0586708
0.0586712
0.0586714
0.058672
0.0586726
0.0586737
0.0586749
0.0586767
0.0586791
0.0586825
0.0586867
0.0586922
0.058696
0.0587033
0.0587019
0.0586167
0.0586175
0.0586097
0.0586056
0.0585999
0.0585956
0.0585922
0.0585897
0.0585879
0.0585866
0.0585856
0.058585
0.0585844
0.0585841
0.0585838
0.0585836
0.0585834
0.0585833
0.0585831
0.0585831
0.0585829
0.0585829
0.0585828
0.0585828
0.0585827
0.0585827
0.0585828
0.0585828
0.0585829
0.0585829
0.058583
0.0585831
0.0585832
0.0585833
0.0585836
0.0585837
0.0585841
0.0585843
0.0585849
0.0585855
0.0585866
0.0585878
0.0585897
0.0585921
0.0585956
0.0585999
0.0586056
0.0586097
0.0586176
0.0586167
0.0585298
0.0585301
0.0585218
0.0585174
0.0585115
0.058507
0.0585035
0.058501
0.0584991
0.0584979
0.0584969
0.0584963
0.0584957
0.0584954
0.058495
0.0584949
0.0584947
0.0584946
0.0584944
0.0584944
0.0584942
0.0584942
0.0584941
0.0584941
0.058494
0.058494
0.058494
0.058494
0.0584941
0.0584942
0.0584943
0.0584943
0.0584945
0.0584946
0.0584949
0.058495
0.0584953
0.0584956
0.0584962
0.0584968
0.0584978
0.0584991
0.058501
0.0585035
0.058507
0.0585115
0.0585174
0.0585218
0.0585302
0.0585299
0.0584412
0.058441
0.0584322
0.0584275
0.0584214
0.0584167
0.0584132
0.0584106
0.0584087
0.0584075
0.0584064
0.0584058
0.0584052
0.058405
0.0584046
0.0584045
0.0584042
0.0584042
0.058404
0.058404
0.0584038
0.0584038
0.0584037
0.0584036
0.0584036
0.0584036
0.0584036
0.0584036
0.0584037
0.0584037
0.0584039
0.0584039
0.0584041
0.0584042
0.0584044
0.0584045
0.0584049
0.0584052
0.0584058
0.0584064
0.0584074
0.0584087
0.0584106
0.0584131
0.0584167
0.0584214
0.0584275
0.0584322
0.0584411
0.0584413
0.0583508
0.0583501
0.0583408
0.0583357
0.0583295
0.0583246
0.058321
0.0583184
0.0583165
0.0583152
0.0583142
0.0583136
0.058313
0.0583128
0.0583124
0.0583123
0.058312
0.058312
0.0583118
0.0583118
0.0583116
0.0583116
0.0583115
0.0583114
0.0583114
0.0583114
0.0583114
0.0583114
0.0583115
0.0583115
0.0583117
0.0583117
0.0583119
0.058312
0.0583122
0.0583123
0.0583127
0.058313
0.0583136
0.0583142
0.0583152
0.0583165
0.0583184
0.058321
0.0583246
0.0583295
0.0583357
0.0583408
0.0583501
0.0583509
0.0582612
0.05826
0.0582502
0.0582448
0.0582384
0.0582333
0.0582296
0.058227
0.0582251
0.0582238
0.0582228
0.0582222
0.0582216
0.0582213
0.058221
0.0582209
0.0582206
0.0582205
0.0582203
0.0582203
0.0582202
0.0582201
0.05822
0.05822
0.0582199
0.0582199
0.05822
0.05822
0.0582201
0.0582201
0.0582202
0.0582203
0.0582205
0.0582205
0.0582208
0.0582209
0.0582213
0.0582215
0.0582221
0.0582227
0.0582237
0.058225
0.0582269
0.0582296
0.0582332
0.0582383
0.0582448
0.0582502
0.0582601
0.0582613
0.0581698
0.0581682
0.0581578
0.0581521
0.0581454
0.0581401
0.0581365
0.0581338
0.0581319
0.0581306
0.0581295
0.0581289
0.0581284
0.0581281
0.0581278
0.0581277
0.0581274
0.0581273
0.0581271
0.0581271
0.058127
0.0581269
0.0581268
0.0581268
0.0581267
0.0581267
0.0581267
0.0581268
0.0581269
0.0581269
0.058127
0.0581271
0.0581273
0.0581273
0.0581276
0.0581277
0.0581281
0.0581283
0.0581289
0.0581295
0.0581305
0.0581318
0.0581337
0.0581365
0.0581401
0.0581454
0.0581521
0.0581578
0.0581682
0.0581699
0.0580765
0.0580739
0.0580624
0.058056
0.058049
0.0580434
0.0580396
0.0580368
0.0580349
0.0580335
0.0580324
0.0580318
0.0580313
0.058031
0.0580306
0.0580305
0.0580303
0.0580302
0.05803
0.05803
0.0580298
0.0580298
0.0580297
0.0580296
0.0580296
0.0580296
0.0580296
0.0580296
0.0580297
0.0580297
0.0580299
0.0580299
0.0580301
0.0580302
0.0580305
0.0580306
0.0580309
0.0580312
0.0580318
0.0580324
0.0580334
0.0580348
0.0580367
0.0580396
0.0580434
0.058049
0.0580561
0.0580624
0.058074
0.0580766
0.0579814
0.0579783
0.0579662
0.0579595
0.0579523
0.0579464
0.0579426
0.0579397
0.0579378
0.0579364
0.0579354
0.0579348
0.0579342
0.057934
0.0579336
0.0579335
0.0579332
0.0579332
0.057933
0.057933
0.0579328
0.0579327
0.0579326
0.0579326
0.0579325
0.0579325
0.0579326
0.0579326
0.0579327
0.0579327
0.0579329
0.0579329
0.0579331
0.0579331
0.0579334
0.0579335
0.0579339
0.0579341
0.0579347
0.0579353
0.0579364
0.0579377
0.0579397
0.0579426
0.0579464
0.0579523
0.0579595
0.0579663
0.0579784
0.0579814
0.0578843
0.0578808
0.057868
0.057861
0.0578536
0.0578475
0.0578437
0.0578407
0.0578388
0.0578374
0.0578364
0.0578358
0.0578352
0.057835
0.0578346
0.0578345
0.0578342
0.0578342
0.057834
0.057834
0.0578338
0.0578337
0.0578336
0.0578336
0.0578335
0.0578335
0.0578336
0.0578336
0.0578337
0.0578337
0.0578339
0.0578339
0.0578341
0.0578341
0.0578344
0.0578345
0.0578349
0.0578351
0.0578357
0.0578363
0.0578373
0.0578387
0.0578407
0.0578436
0.0578475
0.0578536
0.057861
0.0578681
0.0578808
0.0578843
0.0577851
0.0577812
0.0577679
0.0577604
0.0577529
0.0577464
0.0577424
0.0577394
0.0577374
0.057736
0.057735
0.0577344
0.0577338
0.0577336
0.0577333
0.0577332
0.0577329
0.0577329
0.0577327
0.0577327
0.0577326
0.0577325
0.0577324
0.0577324
0.0577323
0.0577323
0.0577324
0.0577324
0.0577325
0.0577325
0.0577326
0.0577326
0.0577328
0.0577328
0.0577331
0.0577331
0.0577335
0.0577337
0.0577343
0.0577349
0.0577359
0.0577373
0.0577393
0.0577424
0.0577463
0.0577529
0.0577604
0.0577679
0.0577813
0.0577852
0.0576818
0.0576773
0.0576632
0.0576553
0.0576476
0.0576406
0.0576366
0.0576335
0.0576316
0.0576301
0.0576291
0.0576285
0.057628
0.0576278
0.0576275
0.0576275
0.0576272
0.0576272
0.057627
0.057627
0.0576269
0.0576268
0.0576267
0.0576267
0.0576266
0.0576266
0.0576266
0.0576267
0.0576267
0.0576268
0.0576269
0.0576269
0.0576271
0.0576271
0.0576273
0.0576274
0.0576277
0.0576279
0.0576284
0.057629
0.05763
0.0576315
0.0576335
0.0576366
0.0576406
0.0576476
0.0576553
0.0576632
0.0576774
0.0576819
0.0575783
0.0575734
0.0575587
0.0575503
0.0575425
0.0575353
0.0575313
0.0575281
0.0575262
0.0575247
0.0575237
0.0575231
0.0575226
0.0575224
0.0575221
0.0575221
0.0575218
0.0575218
0.0575216
0.0575216
0.0575215
0.0575215
0.0575214
0.0575213
0.0575212
0.0575212
0.0575213
0.0575213
0.0575214
0.0575214
0.0575215
0.0575215
0.0575217
0.0575217
0.057522
0.057522
0.0575223
0.0575225
0.057523
0.0575236
0.0575246
0.0575261
0.0575281
0.0575312
0.0575352
0.0575425
0.0575503
0.0575587
0.0575734
0.0575784
0.0574713
0.0574657
0.05745
0.057441
0.057433
0.0574277
0.0574237
0.0574205
0.0574186
0.0574171
0.0574161
0.0574155
0.057415
0.0574149
0.0574145
0.0574145
0.0574143
0.0574143
0.0574141
0.0574141
0.0574139
0.0574139
0.0574138
0.0574138
0.0574137
0.0574137
0.0574137
0.0574137
0.0574138
0.0574138
0.057414
0.057414
0.0574141
0.0574141
0.0574144
0.0574144
0.0574147
0.0574149
0.0574154
0.057416
0.057417
0.0574185
0.0574204
0.0574236
0.0574276
0.057433
0.057441
0.05745
0.0574658
0.0574714
0.0573633
0.0573571
0.0573408
0.0573315
0.0573234
0.0573178
0.0573138
0.0573106
0.0573087
0.0573071
0.0573062
0.0573056
0.0573051
0.057305
0.0573047
0.0573047
0.0573044
0.0573044
0.0573043
0.0573043
0.0573041
0.0573041
0.057304
0.0573039
0.0573039
0.0573038
0.0573039
0.0573039
0.057304
0.057304
0.0573041
0.0573041
0.0573043
0.0573043
0.0573045
0.0573045
0.0573049
0.057305
0.0573055
0.0573061
0.057307
0.0573086
0.0573105
0.0573137
0.0573178
0.0573234
0.0573315
0.0573409
0.0573572
0.0573634
0.0572528
0.0572463
0.0572294
0.0572196
0.0572114
0.0572056
0.0572016
0.0571983
0.0571964
0.0571949
0.0571939
0.0571934
0.0571929
0.0571928
0.0571925
0.0571925
0.0571923
0.0571923
0.0571921
0.0571921
0.057192
0.0571919
0.0571918
0.0571918
0.0571917
0.0571917
0.0571917
0.0571917
0.0571918
0.0571918
0.057192
0.057192
0.0571921
0.0571921
0.0571923
0.0571923
0.0571927
0.0571928
0.0571933
0.0571938
0.0571948
0.0571964
0.0571983
0.0572015
0.0572055
0.0572113
0.0572196
0.0572294
0.0572463
0.0572529
0.0571385
0.0571312
0.0571136
0.0571031
0.0570947
0.0570886
0.0570847
0.0570814
0.0570795
0.0570779
0.057077
0.0570765
0.057076
0.0570759
0.0570756
0.0570756
0.0570754
0.0570754
0.0570753
0.0570753
0.0570751
0.0570751
0.057075
0.057075
0.0570749
0.0570749
0.0570749
0.0570749
0.057075
0.057075
0.0570751
0.0570751
0.0570753
0.0570752
0.0570755
0.0570754
0.0570758
0.0570759
0.0570763
0.0570768
0.0570778
0.0570794
0.0570813
0.0570846
0.0570886
0.0570947
0.0571031
0.0571137
0.0571313
0.0571386
0.05702
0.057012
0.0569942
0.0569862
0.0569776
0.0569714
0.0569674
0.0569641
0.0569622
0.0569606
0.0569597
0.0569592
0.0569588
0.0569587
0.0569584
0.0569584
0.0569582
0.0569583
0.0569581
0.0569581
0.056958
0.056958
0.0569578
0.0569578
0.0569577
0.0569577
0.0569578
0.0569578
0.0569579
0.0569579
0.056958
0.056958
0.0569581
0.0569581
0.0569583
0.0569582
0.0569585
0.0569586
0.0569591
0.0569596
0.0569605
0.0569621
0.056964
0.0569674
0.0569713
0.0569776
0.0569862
0.0569943
0.0570121
0.0570201
0.0569018
0.0568933
0.0568752
0.0568666
0.0568579
0.0568515
0.0568476
0.0568442
0.0568424
0.0568407
0.0568399
0.0568394
0.056839
0.0568389
0.0568386
0.0568387
0.0568385
0.0568386
0.0568384
0.0568384
0.0568383
0.0568383
0.0568381
0.0568381
0.056838
0.056838
0.0568381
0.0568381
0.0568382
0.0568382
0.0568383
0.0568382
0.0568384
0.0568383
0.0568385
0.0568385
0.0568388
0.0568388
0.0568393
0.0568397
0.0568406
0.0568423
0.0568442
0.0568476
0.0568515
0.0568579
0.0568666
0.0568752
0.0568934
0.0569019
0.0567809
0.0567719
0.0567534
0.0567444
0.0567356
0.056729
0.0567252
0.0567218
0.05672
0.0567183
0.0567174
0.056717
0.0567165
0.0567165
0.0567162
0.0567163
0.0567161
0.0567162
0.0567161
0.0567161
0.056716
0.0567159
0.0567158
0.0567158
0.0567157
0.0567157
0.0567157
0.0567157
0.0567158
0.0567158
0.0567159
0.0567159
0.0567161
0.056716
0.0567162
0.0567161
0.0567164
0.0567164
0.0567168
0.0567173
0.0567181
0.0567199
0.0567216
0.0567251
0.0567289
0.0567356
0.0567444
0.0567534
0.056772
0.0567811
0.0566574
0.0566478
0.0566289
0.0566194
0.0566105
0.0566037
0.0566
0.0565965
0.0565948
0.056593
0.0565922
0.0565918
0.0565914
0.0565914
0.0565911
0.0565912
0.0565911
0.0565912
0.056591
0.056591
0.0565909
0.0565909
0.0565908
0.0565907
0.0565907
0.0565906
0.0565907
0.0565907
0.0565908
0.0565908
0.0565909
0.0565908
0.056591
0.0565909
0.0565911
0.056591
0.0565912
0.0565912
0.0565917
0.0565921
0.0565929
0.0565947
0.0565964
0.0565999
0.0566037
0.0566104
0.0566194
0.0566289
0.0566479
0.0566575
0.0565309
0.0565209
0.0565015
0.0564916
0.0564825
0.0564756
0.0564719
0.0564685
0.0564668
0.056465
0.0564642
0.0564638
0.0564634
0.0564635
0.0564632
0.0564634
0.0564632
0.0564633
0.0564631
0.0564632
0.0564631
0.0564631
0.0564629
0.0564629
0.0564628
0.0564628
0.0564628
0.0564628
0.0564629
0.0564629
0.056463
0.056463
0.0564631
0.056463
0.0564632
0.0564631
0.0564633
0.0564633
0.0564637
0.0564641
0.0564648
0.0564667
0.0564684
0.0564718
0.0564756
0.0564825
0.0564916
0.0565015
0.0565209
0.0565311
0.0564016
0.056391
0.0563711
0.0563608
0.0563516
0.0563442
0.0563403
0.0563366
0.056335
0.056334
0.0563333
0.056333
0.0563326
0.0563327
0.0563324
0.0563326
0.0563324
0.0563325
0.0563324
0.0563325
0.0563323
0.0563323
0.0563322
0.0563322
0.0563321
0.0563321
0.0563321
0.0563321
0.0563322
0.0563322
0.0563323
0.0563322
0.0563324
0.0563322
0.0563324
0.0563323
0.0563325
0.0563324
0.0563328
0.0563332
0.0563339
0.0563348
0.0563365
0.0563402
0.0563441
0.0563516
0.0563608
0.0563711
0.0563911
0.0564017
0.0562693
0.0562582
0.0562377
0.0562271
0.0562178
0.0562101
0.0562063
0.0562026
0.0562011
0.0562001
0.0561994
0.0561991
0.0561988
0.0561989
0.0561987
0.0561988
0.0561987
0.0561988
0.0561987
0.0561988
0.0561986
0.0561986
0.0561985
0.0561985
0.0561984
0.0561984
0.0561984
0.0561984
0.0561985
0.0561985
0.0561986
0.0561985
0.0561986
0.0561985
0.0561986
0.0561985
0.0561987
0.0561986
0.0561989
0.0561993
0.0562
0.0562009
0.0562025
0.0562062
0.0562101
0.0562177
0.0562271
0.0562377
0.0562583
0.0562694
0.0561332
0.0561213
0.0561011
0.0560902
0.0560808
0.056073
0.0560693
0.0560656
0.0560641
0.0560631
0.0560625
0.0560622
0.0560619
0.056062
0.0560618
0.056062
0.0560619
0.056062
0.0560619
0.056062
0.0560619
0.0560619
0.0560617
0.0560617
0.0560616
0.0560616
0.0560617
0.0560616
0.0560617
0.0560617
0.0560618
0.0560617
0.0560618
0.0560617
0.0560618
0.0560616
0.0560618
0.0560617
0.056062
0.0560623
0.0560629
0.0560639
0.0560654
0.0560692
0.0560729
0.0560807
0.0560902
0.0561012
0.0561214
0.0561333
0.0559946
0.0559821
0.0559614
0.0559501
0.0559406
0.0559327
0.0559291
0.0559253
0.0559239
0.0559229
0.0559223
0.0559221
0.0559218
0.055922
0.0559218
0.055922
0.0559219
0.0559221
0.055922
0.0559221
0.0559219
0.055922
0.0559218
0.0559218
0.0559217
0.0559217
0.0559217
0.0559217
0.0559218
0.0559218
0.0559219
0.0559218
0.0559219
0.0559217
0.0559218
0.0559216
0.0559218
0.0559216
0.0559219
0.0559222
0.0559228
0.0559238
0.0559252
0.055929
0.0559326
0.0559405
0.0559501
0.0559614
0.0559822
0.0559947
0.0558511
0.055838
0.0558183
0.0558068
0.0557971
0.0557891
0.0557856
0.0557818
0.0557805
0.0557795
0.0557789
)
;

boundaryField
{
    fuel
    {
        type            fixedValue;
        value           nonuniform 0();
    }
    wall
    {
        type            zeroGradient;
    }
    outlet
    {
        type            zeroGradient;
    }
    frontAndBack
    {
        type            empty;
    }
    procBoundary2to0
    {
        type            processor;
        value           nonuniform List<scalar> 
53
(
0.0598914
0.0598999
0.0599011
0.0599025
0.0599006
0.0598991
0.0598968
0.0598954
0.059894
0.0598931
0.0598922
0.0598917
0.0598911
0.0598909
0.0598905
0.0598904
0.0598901
0.05989
0.0598188
0.0598188
0.0598187
0.0598186
0.0598186
0.0598185
0.0598184
0.0598184
0.0598184
0.0598184
0.0598185
0.0597472
0.0597472
0.0597472
0.0597473
0.0597474
0.0597476
0.0597476
0.0597479
0.0597481
0.0597484
0.0597487
0.0597493
0.0597498
0.059679
0.059679
0.05968
0.0596815
0.0596831
0.0596855
0.0596874
0.0596899
0.0596895
0.0596899
0.0596828
)
;
    }
    procBoundary2to3
    {
        type            processor;
        value           nonuniform List<scalar> 
51
(
0.0557787
0.0557784
0.0557786
0.0557785
0.0557787
0.0557786
0.0557788
0.0557787
0.0557788
0.0557787
0.0557787
0.0557786
0.0557786
0.0557785
0.0557785
0.0557785
0.0557785
0.0557786
0.0557785
0.0557786
0.0557785
0.0557786
0.0557784
0.0557785
0.0557783
0.0557784
0.0557783
0.0557785
0.0557787
0.0557793
0.0557803
0.0557816
0.0557854
0.055789
0.055797
0.0558067
0.0558183
0.0558382
0.0558513
0.0557055
0.055692
0.0556717
0.0556599
0.0556502
0.0556421
0.0556386
0.0556349
0.0556336
0.0556326
0.0557787
0.0556321
)
;
    }
}


// ************************************************************************* //
