/*--------------------------------*- C++ -*----------------------------------*\
| =========                 |                                                 |
| \\      /  F ield         | OpenFOAM: The Open Source CFD Toolbox           |
|  \\    /   O peration     | Version:  dev                                   |
|   \\  /    A nd           | Web:      www.OpenFOAM.org                      |
|    \\/     M anipulation  |                                                 |
\*---------------------------------------------------------------------------*/
FoamFile
{
    version     2.0;
    format      ascii;
    class       volScalarField;
    location    "0.035";
    object      HO2;
}
// * * * * * * * * * * * * * * * * * * * * * * * * * * * * * * * * * * * * * //

dimensions      [0 0 0 0 0 0 0];

internalField   nonuniform List<scalar> 
250
(
3.28547e-05
4.47701e-06
3.16843e-06
3.06573e-06
3.04429e-06
3.05363e-06
3.0425e-06
3.04641e-06
3.05362e-06
5.07647e-05
1.71903e-06
1.17134e-06
1.12985e-06
1.12389e-06
1.12476e-06
1.1232e-06
1.12377e-06
1.12479e-06
5.72618e-05
7.49368e-07
4.36317e-07
4.19195e-07
4.17123e-07
4.17076e-07
4.16872e-07
4.16866e-07
4.17135e-07
5.8925e-05
4.15349e-07
1.68773e-07
1.60898e-07
1.60011e-07
1.59901e-07
1.59919e-07
1.59854e-07
1.59952e-07
5.75994e-05
2.77296e-07
6.81745e-08
6.43617e-08
6.40292e-08
6.39869e-08
6.40206e-08
6.39802e-08
6.40245e-08
5.4759e-05
1.98313e-07
2.89814e-08
2.61916e-08
2.57471e-08
2.56887e-08
2.57172e-08
2.56768e-08
2.57063e-08
5.04158e-05
1.3922e-07
1.30049e-08
1.13736e-08
1.1126e-08
1.11714e-08
1.11873e-08
1.11702e-08
1.11845e-08
4.20782e-05
9.86015e-08
6.18861e-09
5.18675e-09
5.00715e-09
4.90456e-09
4.91275e-09
4.89559e-09
4.90641e-09
2.76022e-05
6.70123e-08
3.0588e-09
2.40291e-09
2.36941e-09
2.32457e-09
2.32886e-09
2.31967e-09
2.32581e-09
1.35259e-05
4.08253e-08
1.51906e-09
1.10047e-09
1.07835e-09
1.06025e-09
1.06215e-09
1.05781e-09
1.0608e-09
5.61353e-06
2.36712e-08
7.92678e-10
5.69744e-10
5.55551e-10
5.47852e-10
5.48822e-10
5.46383e-10
5.48169e-10
5.47993e-10
2.2796e-06
1.4152e-08
4.66867e-10
3.03057e-10
2.90794e-10
2.8708e-10
2.87537e-10
2.86265e-10
2.87232e-10
2.87088e-10
9.7162e-07
8.49225e-09
2.78536e-10
1.74969e-10
1.68328e-10
1.66761e-10
1.66997e-10
1.6629e-10
1.66843e-10
1.6672e-10
4.52221e-07
5.26499e-09
1.78426e-10
1.14034e-10
1.10656e-10
1.09984e-10
1.10132e-10
1.09694e-10
1.10042e-10
1.09927e-10
2.29836e-07
3.50382e-09
1.23625e-10
8.41371e-11
8.25983e-11
8.22955e-11
8.24136e-11
8.20988e-11
8.23493e-11
8.22329e-11
1.24031e-07
2.3353e-09
9.20617e-11
6.87245e-11
6.8182e-11
6.80239e-11
6.81391e-11
6.78713e-11
6.8082e-11
6.79572e-11
6.92783e-08
1.54686e-09
7.29237e-11
6.01092e-11
6.00714e-11
5.9958e-11
6.00825e-11
5.98223e-11
6.00251e-11
5.98866e-11
3.94739e-08
1.01371e-09
6.0701e-11
5.46795e-11
5.48611e-11
5.47444e-11
5.48855e-11
5.46101e-11
5.48247e-11
5.46685e-11
2.27452e-08
6.62148e-10
5.24771e-11
5.07165e-11
5.09525e-11
5.08058e-11
5.09703e-11
5.06637e-11
5.09052e-11
5.07281e-11
1.31476e-08
4.12563e-10
4.65599e-11
4.73893e-11
4.75847e-11
4.73883e-11
4.7586e-11
4.72328e-11
4.75168e-11
4.73152e-11
7.55949e-09
2.63413e-10
4.20497e-11
4.42868e-11
4.43889e-11
4.41227e-11
4.43692e-11
4.39501e-11
4.42962e-11
4.40618e-11
4.29149e-09
1.67724e-10
3.83255e-11
4.11985e-11
4.11821e-11
4.08158e-11
4.11401e-11
4.06247e-11
4.10628e-11
4.07516e-11
2.394e-09
1.07772e-10
3.50059e-11
3.80062e-11
3.78666e-11
3.775e-11
3.7803e-11
3.75384e-11
3.77194e-11
3.74884e-11
1.30961e-09
7.10373e-11
3.18469e-11
3.50579e-11
3.47575e-11
3.45762e-11
3.46807e-11
3.43442e-11
3.45937e-11
3.42889e-11
7.01562e-10
4.8843e-11
2.90426e-11
3.17416e-11
3.1542e-11
3.13184e-11
3.14578e-11
3.1072e-11
3.13685e-11
3.10232e-11
3.64633e-10
3.54035e-11
2.60581e-11
2.8554e-11
2.81939e-11
2.79836e-11
2.81034e-11
2.77294e-11
2.80212e-11
2.76848e-11
)
;

boundaryField
{
    fuel
    {
        type            fixedValue;
        value           uniform 0;
    }
    wall
    {
        type            zeroGradient;
    }
    outlet
    {
        type            zeroGradient;
    }
    frontAndBack
    {
        type            empty;
    }
    procBoundary2to0
    {
        type            processor;
        value           nonuniform List<scalar> 
12
(
3.10616e-11
1.82881e-10
2.65906e-11
2.31639e-11
2.52921e-11
2.48345e-11
2.46096e-11
2.47461e-11
2.43537e-11
2.46648e-11
2.77267e-11
2.43046e-11
)
;
    }
    procBoundary2to3
    {
        type            processor;
        value           nonuniform List<scalar> 
25
(
3.05347e-06
1.12514e-06
4.1717e-07
1.59937e-07
6.40093e-08
2.56948e-08
1.1179e-08
4.90242e-09
2.32373e-09
1.06005e-09
1.06005e-09
5.46867e-10
2.86522e-10
1.66434e-10
1.09784e-10
8.21636e-11
6.79275e-11
5.9879e-11
5.46742e-11
5.07428e-11
4.73375e-11
4.40964e-11
4.08395e-11
3.74695e-11
3.43163e-11
)
;
    }
}


// ************************************************************************* //
