/*--------------------------------*- C++ -*----------------------------------*\
| =========                 |                                                 |
| \\      /  F ield         | OpenFOAM: The Open Source CFD Toolbox           |
|  \\    /   O peration     | Version:  dev                                   |
|   \\  /    A nd           | Web:      www.OpenFOAM.org                      |
|    \\/     M anipulation  |                                                 |
\*---------------------------------------------------------------------------*/
FoamFile
{
    version     2.0;
    format      ascii;
    class       volScalarField;
    location    "0.035";
    object      l-C6H6;
}
// * * * * * * * * * * * * * * * * * * * * * * * * * * * * * * * * * * * * * //

dimensions      [0 0 0 0 0 0 0];

internalField   nonuniform List<scalar> 
1997
(
1.8006e-09
1.80394e-09
1.80492e-09
1.80564e-09
1.80516e-09
1.80465e-09
1.80385e-09
1.80326e-09
1.80265e-09
1.80221e-09
1.80179e-09
1.80149e-09
1.8012e-09
1.80098e-09
1.80077e-09
1.80063e-09
1.80047e-09
1.80037e-09
1.77536e-09
1.77845e-09
1.77922e-09
1.7798e-09
1.77925e-09
1.7787e-09
1.77788e-09
1.77728e-09
1.77666e-09
1.77622e-09
1.77579e-09
1.77549e-09
1.77519e-09
1.77498e-09
1.77476e-09
1.77463e-09
1.77446e-09
1.77436e-09
1.77424e-09
1.77417e-09
1.7741e-09
1.77405e-09
1.77401e-09
1.77398e-09
1.77397e-09
1.77397e-09
1.77399e-09
1.77401e-09
1.75043e-09
1.75329e-09
1.75385e-09
1.7543e-09
1.75367e-09
1.75306e-09
1.75223e-09
1.75161e-09
1.75099e-09
1.75054e-09
1.75011e-09
1.7498e-09
1.74951e-09
1.74929e-09
1.74907e-09
1.74893e-09
1.74877e-09
1.74866e-09
1.74855e-09
1.74848e-09
1.7484e-09
1.74836e-09
1.74831e-09
1.74829e-09
1.74827e-09
1.74827e-09
1.74829e-09
1.74831e-09
1.74836e-09
1.7484e-09
1.74848e-09
1.74855e-09
1.74866e-09
1.74876e-09
1.74893e-09
1.74907e-09
1.74928e-09
1.7495e-09
1.74979e-09
1.75009e-09
1.72574e-09
1.72836e-09
1.72871e-09
1.72902e-09
1.72832e-09
1.72766e-09
1.7268e-09
1.72617e-09
1.72554e-09
1.72508e-09
1.72464e-09
1.72434e-09
1.72404e-09
1.72381e-09
1.7236e-09
1.72346e-09
1.72329e-09
1.72319e-09
1.72307e-09
1.723e-09
1.72292e-09
1.72288e-09
1.72283e-09
1.72281e-09
1.72279e-09
1.72279e-09
1.72281e-09
1.72283e-09
1.72288e-09
1.72292e-09
1.723e-09
1.72307e-09
1.72319e-09
1.72329e-09
1.72346e-09
1.7236e-09
1.72381e-09
1.72403e-09
1.72433e-09
1.72463e-09
1.72507e-09
1.72553e-09
1.72615e-09
1.72679e-09
1.72764e-09
1.7283e-09
1.729e-09
1.72869e-09
1.72833e-09
1.72571e-09
1.70118e-09
1.70357e-09
1.70371e-09
1.70389e-09
1.7031e-09
1.70238e-09
1.7015e-09
1.70084e-09
1.70021e-09
1.69974e-09
1.6993e-09
1.69899e-09
1.69869e-09
1.69846e-09
1.69825e-09
1.6981e-09
1.69794e-09
1.69783e-09
1.69771e-09
1.69764e-09
1.69756e-09
1.69751e-09
1.69747e-09
1.69744e-09
1.69743e-09
1.69743e-09
1.69744e-09
1.69747e-09
1.69752e-09
1.69756e-09
1.69764e-09
1.69771e-09
1.69783e-09
1.69794e-09
1.6981e-09
1.69825e-09
1.69846e-09
1.69868e-09
1.69898e-09
1.69929e-09
1.69974e-09
1.7002e-09
1.70083e-09
1.70149e-09
1.70236e-09
1.70308e-09
1.70386e-09
1.70369e-09
1.70355e-09
1.70115e-09
1.67665e-09
1.67882e-09
1.67875e-09
1.67878e-09
1.67791e-09
1.67713e-09
1.67622e-09
1.67554e-09
1.6749e-09
1.67442e-09
1.67398e-09
1.67366e-09
1.67336e-09
1.67313e-09
1.67291e-09
1.67277e-09
1.6726e-09
1.67249e-09
1.67237e-09
1.6723e-09
1.67222e-09
1.67217e-09
1.67212e-09
1.6721e-09
1.67208e-09
1.67208e-09
1.6721e-09
1.67212e-09
1.67217e-09
1.67222e-09
1.6723e-09
1.67237e-09
1.67249e-09
1.6726e-09
1.67276e-09
1.67291e-09
1.67312e-09
1.67335e-09
1.67365e-09
1.67397e-09
1.67441e-09
1.67489e-09
1.67553e-09
1.67621e-09
1.67711e-09
1.67789e-09
1.67876e-09
1.67873e-09
1.67879e-09
1.67662e-09
1.65206e-09
1.65401e-09
1.65372e-09
1.6536e-09
1.65264e-09
1.65179e-09
1.65086e-09
1.65016e-09
1.6495e-09
1.64902e-09
1.64857e-09
1.64824e-09
1.64794e-09
1.64771e-09
1.64749e-09
1.64734e-09
1.64717e-09
1.64706e-09
1.64694e-09
1.64687e-09
1.64679e-09
1.64674e-09
1.64669e-09
1.64667e-09
1.64665e-09
1.64665e-09
1.64667e-09
1.64669e-09
1.64674e-09
1.64679e-09
1.64687e-09
1.64694e-09
1.64706e-09
1.64717e-09
1.64734e-09
1.64748e-09
1.6477e-09
1.64793e-09
1.64823e-09
1.64855e-09
1.649e-09
1.64949e-09
1.65014e-09
1.65084e-09
1.65177e-09
1.65261e-09
1.65357e-09
1.65369e-09
1.65398e-09
1.65203e-09
1.62731e-09
1.62902e-09
1.62852e-09
1.62825e-09
1.62719e-09
1.62628e-09
1.62532e-09
1.62458e-09
1.62392e-09
1.62342e-09
1.62297e-09
1.62264e-09
1.62233e-09
1.6221e-09
1.62188e-09
1.62173e-09
1.62156e-09
1.62145e-09
1.62133e-09
1.62125e-09
1.62117e-09
1.62112e-09
1.62107e-09
1.62104e-09
1.62103e-09
1.62103e-09
1.62104e-09
1.62106e-09
1.62112e-09
1.62116e-09
1.62125e-09
1.62132e-09
1.62144e-09
1.62155e-09
1.62172e-09
1.62187e-09
1.62209e-09
1.62232e-09
1.62262e-09
1.62295e-09
1.62341e-09
1.6239e-09
1.62456e-09
1.62529e-09
1.62625e-09
1.62716e-09
1.62821e-09
1.62848e-09
1.62899e-09
1.62727e-09
1.60211e-09
1.60372e-09
1.60299e-09
1.60258e-09
1.6014e-09
1.60039e-09
1.59938e-09
1.5986e-09
1.59791e-09
1.5974e-09
1.59694e-09
1.59661e-09
1.5963e-09
1.59607e-09
1.59585e-09
1.5957e-09
1.59553e-09
1.59542e-09
1.5953e-09
1.59522e-09
1.59514e-09
1.59509e-09
1.59504e-09
1.59502e-09
1.595e-09
1.595e-09
1.59502e-09
1.59504e-09
1.59509e-09
1.59514e-09
1.59522e-09
1.59529e-09
1.59541e-09
1.59552e-09
1.59569e-09
1.59583e-09
1.59605e-09
1.59628e-09
1.59659e-09
1.59692e-09
1.59739e-09
1.59789e-09
1.59858e-09
1.59935e-09
1.60036e-09
1.60137e-09
1.60255e-09
1.60296e-09
1.60368e-09
1.60207e-09
1.57673e-09
1.57812e-09
1.57715e-09
1.57659e-09
1.5753e-09
1.57421e-09
1.57316e-09
1.57236e-09
1.57165e-09
1.57113e-09
1.57066e-09
1.57033e-09
1.57001e-09
1.56978e-09
1.56955e-09
1.5694e-09
1.56923e-09
1.56912e-09
1.569e-09
1.56892e-09
1.56884e-09
1.56879e-09
1.56874e-09
1.56871e-09
1.5687e-09
1.5687e-09
1.56871e-09
1.56874e-09
1.56879e-09
1.56883e-09
1.56891e-09
1.56899e-09
1.56911e-09
1.56922e-09
1.56939e-09
1.56954e-09
1.56976e-09
1.56999e-09
1.5703e-09
1.57064e-09
1.57111e-09
1.57163e-09
1.57233e-09
1.57313e-09
1.57418e-09
1.57526e-09
1.57655e-09
1.57712e-09
1.57808e-09
1.57669e-09
1.55017e-09
1.55137e-09
1.55017e-09
1.54944e-09
1.54804e-09
1.54686e-09
1.54576e-09
1.54492e-09
1.5442e-09
1.54366e-09
1.54319e-09
1.54285e-09
1.54253e-09
1.54229e-09
1.54207e-09
1.54192e-09
1.54175e-09
1.54164e-09
1.54151e-09
1.54144e-09
1.54135e-09
1.5413e-09
1.54125e-09
1.54123e-09
1.54121e-09
1.54121e-09
1.54123e-09
1.54125e-09
1.5413e-09
1.54135e-09
1.54143e-09
1.5415e-09
1.54163e-09
1.54173e-09
1.5419e-09
1.54205e-09
1.54228e-09
1.54251e-09
1.54282e-09
1.54316e-09
1.54364e-09
1.54418e-09
1.54489e-09
1.54573e-09
1.54683e-09
1.548e-09
1.5494e-09
1.55013e-09
1.55133e-09
1.55012e-09
1.52291e-09
1.52387e-09
1.52243e-09
1.52153e-09
1.52001e-09
1.51875e-09
1.51761e-09
1.51673e-09
1.51599e-09
1.51544e-09
1.51496e-09
1.51461e-09
1.51429e-09
1.51405e-09
1.51383e-09
1.51367e-09
1.5135e-09
1.51339e-09
1.51327e-09
1.51319e-09
1.5131e-09
1.51305e-09
1.513e-09
1.51298e-09
1.51296e-09
1.51296e-09
1.51298e-09
1.513e-09
1.51305e-09
1.51309e-09
1.51318e-09
1.51325e-09
1.51338e-09
1.51348e-09
1.51366e-09
1.51381e-09
1.51403e-09
1.51427e-09
1.51459e-09
1.51493e-09
1.51542e-09
1.51596e-09
1.5167e-09
1.51757e-09
1.51871e-09
1.51997e-09
1.52149e-09
1.52239e-09
1.52383e-09
1.52286e-09
1.49562e-09
1.49637e-09
1.49467e-09
1.4936e-09
1.49196e-09
1.4906e-09
1.48941e-09
1.4885e-09
1.48774e-09
1.48718e-09
1.48669e-09
1.48633e-09
1.48601e-09
1.48577e-09
1.48554e-09
1.48538e-09
1.48521e-09
1.4851e-09
1.48497e-09
1.48489e-09
1.48481e-09
1.48476e-09
1.4847e-09
1.48468e-09
1.48466e-09
1.48466e-09
1.48468e-09
1.4847e-09
1.48475e-09
1.4848e-09
1.48488e-09
1.48496e-09
1.48508e-09
1.48519e-09
1.48537e-09
1.48552e-09
1.48575e-09
1.48598e-09
1.4863e-09
1.48666e-09
1.48715e-09
1.48771e-09
1.48846e-09
1.48938e-09
1.49056e-09
1.49191e-09
1.49355e-09
1.49462e-09
1.49632e-09
1.49557e-09
1.46701e-09
1.46758e-09
1.46559e-09
1.46434e-09
1.46257e-09
1.46111e-09
1.45986e-09
1.45891e-09
1.45813e-09
1.45755e-09
1.45706e-09
1.4567e-09
1.45637e-09
1.45614e-09
1.45591e-09
1.45576e-09
1.45559e-09
1.45548e-09
1.45535e-09
1.45528e-09
1.45519e-09
1.45514e-09
1.45509e-09
1.45507e-09
1.45505e-09
1.45505e-09
1.45507e-09
1.45509e-09
1.45514e-09
1.45518e-09
1.45527e-09
1.45534e-09
1.45546e-09
1.45557e-09
1.45574e-09
1.45589e-09
1.45612e-09
1.45635e-09
1.45667e-09
1.45702e-09
1.45752e-09
1.4581e-09
1.45887e-09
1.45982e-09
1.46106e-09
1.46252e-09
1.46429e-09
1.46554e-09
1.46754e-09
1.46697e-09
1.43791e-09
1.43827e-09
1.43599e-09
1.43457e-09
1.43267e-09
1.43111e-09
1.42981e-09
1.42882e-09
1.42802e-09
1.42743e-09
1.42692e-09
1.42656e-09
1.42623e-09
1.42599e-09
1.42576e-09
1.42561e-09
1.42543e-09
1.42533e-09
1.4252e-09
1.42512e-09
1.42504e-09
1.42499e-09
1.42494e-09
1.42491e-09
1.42489e-09
1.42489e-09
1.42491e-09
1.42493e-09
1.42498e-09
1.42503e-09
1.42511e-09
1.42518e-09
1.42531e-09
1.42541e-09
1.42559e-09
1.42574e-09
1.42597e-09
1.4262e-09
1.42653e-09
1.42689e-09
1.42739e-09
1.42799e-09
1.42878e-09
1.42977e-09
1.43106e-09
1.43262e-09
1.43452e-09
1.43594e-09
1.43822e-09
1.43786e-09
1.40718e-09
1.40733e-09
1.40473e-09
1.4031e-09
1.40104e-09
1.39936e-09
1.398e-09
1.39696e-09
1.39614e-09
1.39552e-09
1.39501e-09
1.39464e-09
1.39431e-09
1.39407e-09
1.39384e-09
1.39369e-09
1.39351e-09
1.39341e-09
1.39328e-09
1.39321e-09
1.39312e-09
1.39307e-09
1.39302e-09
1.39299e-09
1.39297e-09
1.39297e-09
1.39299e-09
1.39301e-09
1.39306e-09
1.39311e-09
1.39319e-09
1.39326e-09
1.39339e-09
1.39349e-09
1.39367e-09
1.39381e-09
1.39405e-09
1.39428e-09
1.39461e-09
1.39497e-09
1.39549e-09
1.3961e-09
1.39692e-09
1.39796e-09
1.39932e-09
1.401e-09
1.40305e-09
1.40468e-09
1.40728e-09
1.40713e-09
1.3751e-09
1.37502e-09
1.37214e-09
1.37032e-09
1.36813e-09
1.36634e-09
1.36493e-09
1.36385e-09
1.36301e-09
1.36238e-09
1.36186e-09
1.36148e-09
1.36114e-09
1.36091e-09
1.36068e-09
1.36053e-09
1.36035e-09
1.36024e-09
1.36012e-09
1.36004e-09
1.35995e-09
1.35991e-09
1.35985e-09
1.35983e-09
1.35981e-09
1.35981e-09
1.35982e-09
1.35985e-09
1.3599e-09
1.35994e-09
1.36003e-09
1.3601e-09
1.36022e-09
1.36033e-09
1.3605e-09
1.36065e-09
1.36089e-09
1.36111e-09
1.36145e-09
1.36182e-09
1.36234e-09
1.36297e-09
1.36381e-09
1.36489e-09
1.3663e-09
1.36808e-09
1.37027e-09
1.37209e-09
1.37497e-09
1.37505e-09
1.3418e-09
1.34149e-09
1.33831e-09
1.3363e-09
1.33398e-09
1.33208e-09
1.33063e-09
1.3295e-09
1.32864e-09
1.32799e-09
1.32747e-09
1.32709e-09
1.32675e-09
1.32652e-09
1.32628e-09
1.32613e-09
1.32595e-09
1.32584e-09
1.32572e-09
1.32564e-09
1.32555e-09
1.32551e-09
1.32545e-09
1.32543e-09
1.32541e-09
1.32541e-09
1.32542e-09
1.32545e-09
1.3255e-09
1.32554e-09
1.32563e-09
1.3257e-09
1.32582e-09
1.32593e-09
1.3261e-09
1.32625e-09
1.32649e-09
1.32671e-09
1.32705e-09
1.32743e-09
1.32796e-09
1.3286e-09
1.32946e-09
1.33058e-09
1.33204e-09
1.33393e-09
1.33625e-09
1.33826e-09
1.34143e-09
1.34174e-09
1.30717e-09
1.30663e-09
1.30316e-09
1.30096e-09
1.29852e-09
1.29651e-09
1.295e-09
1.29384e-09
1.29296e-09
1.2923e-09
1.29176e-09
1.29138e-09
1.29104e-09
1.29081e-09
1.29057e-09
1.29042e-09
1.29024e-09
1.29014e-09
1.29001e-09
1.28993e-09
1.28985e-09
1.2898e-09
1.28974e-09
1.28972e-09
1.2897e-09
1.2897e-09
1.28971e-09
1.28974e-09
1.28979e-09
1.28983e-09
1.28992e-09
1.28999e-09
1.29011e-09
1.29021e-09
1.29039e-09
1.29054e-09
1.29078e-09
1.291e-09
1.29134e-09
1.29173e-09
1.29226e-09
1.29292e-09
1.29379e-09
1.29496e-09
1.29646e-09
1.29847e-09
1.30091e-09
1.30311e-09
1.30658e-09
1.30712e-09
1.27114e-09
1.27036e-09
1.26662e-09
1.26423e-09
1.26166e-09
1.25955e-09
1.258e-09
1.25679e-09
1.2559e-09
1.25523e-09
1.25469e-09
1.2543e-09
1.25395e-09
1.25373e-09
1.25348e-09
1.25334e-09
1.25316e-09
1.25306e-09
1.25293e-09
1.25286e-09
1.25277e-09
1.25272e-09
1.25267e-09
1.25264e-09
1.25262e-09
1.25262e-09
1.25264e-09
1.25266e-09
1.25271e-09
1.25275e-09
1.25284e-09
1.25291e-09
1.25304e-09
1.25313e-09
1.25331e-09
1.25346e-09
1.2537e-09
1.25392e-09
1.25426e-09
1.25465e-09
1.25519e-09
1.25586e-09
1.25675e-09
1.25795e-09
1.2595e-09
1.26161e-09
1.26418e-09
1.26657e-09
1.27031e-09
1.27108e-09
1.23468e-09
1.23371e-09
1.22968e-09
1.22711e-09
1.22443e-09
1.22221e-09
1.22062e-09
1.21938e-09
1.21847e-09
1.21778e-09
1.21724e-09
1.21685e-09
1.2165e-09
1.21628e-09
1.21603e-09
1.21589e-09
1.21571e-09
1.21561e-09
1.21548e-09
1.21541e-09
1.21532e-09
1.21527e-09
1.21522e-09
1.21519e-09
1.21517e-09
1.21517e-09
1.21519e-09
1.21521e-09
1.21526e-09
1.2153e-09
1.21539e-09
1.21546e-09
1.21559e-09
1.21568e-09
1.21586e-09
1.216e-09
1.21625e-09
1.21647e-09
1.21681e-09
1.2172e-09
1.21774e-09
1.21843e-09
1.21934e-09
1.22057e-09
1.22216e-09
1.22438e-09
1.22706e-09
1.22963e-09
1.23366e-09
1.23463e-09
1.1969e-09
1.19575e-09
1.19146e-09
1.18872e-09
1.18593e-09
1.18362e-09
1.18199e-09
1.18072e-09
1.17981e-09
1.17911e-09
1.17856e-09
1.17817e-09
1.17782e-09
1.1776e-09
1.17736e-09
1.17722e-09
1.17704e-09
1.17694e-09
1.17681e-09
1.17674e-09
1.17665e-09
1.1766e-09
1.17655e-09
1.17652e-09
1.1765e-09
1.1765e-09
1.17652e-09
1.17654e-09
1.17659e-09
1.17663e-09
1.17672e-09
1.17679e-09
1.17691e-09
1.17701e-09
1.17719e-09
1.17733e-09
1.17757e-09
1.17779e-09
1.17813e-09
1.17852e-09
1.17907e-09
1.17977e-09
1.18068e-09
1.18195e-09
1.18357e-09
1.18588e-09
1.18867e-09
1.19141e-09
1.1957e-09
1.19685e-09
1.15788e-09
1.15637e-09
1.1516e-09
1.14859e-09
1.14562e-09
1.14316e-09
1.14148e-09
1.14016e-09
1.13922e-09
1.1385e-09
1.13795e-09
1.13754e-09
1.1372e-09
1.13698e-09
1.13673e-09
1.13659e-09
1.13641e-09
1.13631e-09
1.13618e-09
1.13611e-09
1.13602e-09
1.13597e-09
1.13592e-09
1.13589e-09
1.13587e-09
1.13587e-09
1.13589e-09
1.13591e-09
1.13596e-09
1.136e-09
1.13609e-09
1.13616e-09
1.13629e-09
1.13638e-09
1.13656e-09
1.1367e-09
1.13694e-09
1.13716e-09
1.13751e-09
1.13791e-09
1.13846e-09
1.13918e-09
1.14011e-09
1.14143e-09
1.14311e-09
1.14557e-09
1.14854e-09
1.15155e-09
1.15632e-09
1.15783e-09
1.11778e-09
1.1161e-09
1.1111e-09
1.10794e-09
1.1049e-09
1.10235e-09
1.10065e-09
1.09931e-09
1.09837e-09
1.09764e-09
1.09709e-09
1.09669e-09
1.09635e-09
1.09613e-09
1.09588e-09
1.09575e-09
1.09557e-09
1.09547e-09
1.09534e-09
1.09527e-09
1.09518e-09
1.09514e-09
1.09508e-09
1.09506e-09
1.09503e-09
1.09503e-09
1.09505e-09
1.09507e-09
1.09512e-09
1.09516e-09
1.09525e-09
1.09532e-09
1.09545e-09
1.09554e-09
1.09572e-09
1.09585e-09
1.0961e-09
1.09631e-09
1.09665e-09
1.09705e-09
1.0976e-09
1.09833e-09
1.09927e-09
1.10061e-09
1.1023e-09
1.10485e-09
1.10789e-09
1.11105e-09
1.11605e-09
1.11773e-09
1.07674e-09
1.0749e-09
1.06968e-09
1.0664e-09
1.0633e-09
1.06067e-09
1.05897e-09
1.05762e-09
1.05668e-09
1.05594e-09
1.0554e-09
1.055e-09
1.05466e-09
1.05444e-09
1.0542e-09
1.05406e-09
1.05388e-09
1.05379e-09
1.05366e-09
1.0536e-09
1.0535e-09
1.05346e-09
1.0534e-09
1.05338e-09
1.05336e-09
1.05335e-09
1.05337e-09
1.05339e-09
1.05345e-09
1.05349e-09
1.05357e-09
1.05364e-09
1.05377e-09
1.05386e-09
1.05403e-09
1.05417e-09
1.05441e-09
1.05462e-09
1.05496e-09
1.05536e-09
1.0559e-09
1.05664e-09
1.05757e-09
1.05892e-09
1.06062e-09
1.06325e-09
1.06635e-09
1.06964e-09
1.07486e-09
1.07669e-09
1.03497e-09
1.03299e-09
1.02759e-09
1.0242e-09
1.02106e-09
1.01831e-09
1.01657e-09
1.01518e-09
1.01424e-09
1.0135e-09
1.01296e-09
1.01257e-09
1.01223e-09
1.01203e-09
1.0118e-09
1.01167e-09
1.0115e-09
1.01142e-09
1.0113e-09
1.01124e-09
1.01115e-09
1.01112e-09
1.01106e-09
1.01104e-09
1.01102e-09
1.01102e-09
1.01103e-09
1.01105e-09
1.0111e-09
1.01113e-09
1.01122e-09
1.01127e-09
1.01139e-09
1.01147e-09
1.01164e-09
1.01176e-09
1.012e-09
1.01219e-09
1.01252e-09
1.01291e-09
1.01345e-09
1.0142e-09
1.01514e-09
1.01652e-09
1.01826e-09
1.02101e-09
1.02415e-09
1.02754e-09
1.03295e-09
1.03492e-09
9.91849e-10
9.89702e-10
9.84114e-10
9.80594e-10
9.77433e-10
9.74582e-10
9.7285e-10
9.71464e-10
9.70532e-10
9.69794e-10
9.69266e-10
9.68882e-10
9.68557e-10
9.68365e-10
9.68133e-10
9.68017e-10
9.6785e-10
9.67773e-10
9.67652e-10
9.67598e-10
9.67515e-10
9.67478e-10
9.67426e-10
9.67405e-10
9.67385e-10
9.67383e-10
9.67398e-10
9.67414e-10
9.67461e-10
9.67493e-10
9.67574e-10
9.67625e-10
9.67742e-10
9.67818e-10
9.67982e-10
9.68097e-10
9.68327e-10
9.68517e-10
9.68839e-10
9.69221e-10
9.69751e-10
9.70491e-10
9.71421e-10
9.72806e-10
9.74537e-10
9.77387e-10
9.80545e-10
9.84071e-10
9.8966e-10
9.91803e-10
9.49305e-10
9.47068e-10
9.4141e-10
9.37834e-10
9.34705e-10
9.31765e-10
9.30065e-10
9.28694e-10
9.27781e-10
9.27051e-10
9.26534e-10
9.2616e-10
9.25842e-10
9.25655e-10
9.25429e-10
9.25316e-10
9.25153e-10
9.25077e-10
9.24959e-10
9.24907e-10
9.24825e-10
9.24789e-10
9.24737e-10
9.24717e-10
9.24697e-10
9.24695e-10
9.2471e-10
9.24725e-10
9.24772e-10
9.24803e-10
9.24883e-10
9.24932e-10
9.25048e-10
9.25121e-10
9.25282e-10
9.25393e-10
9.25618e-10
9.25803e-10
9.26118e-10
9.26491e-10
9.27009e-10
9.27742e-10
9.28652e-10
9.30022e-10
9.31721e-10
9.3466e-10
9.37787e-10
9.41368e-10
9.47027e-10
9.4926e-10
9.06378e-10
9.03994e-10
8.98167e-10
8.94522e-10
8.91397e-10
8.89228e-10
8.87575e-10
8.8623e-10
8.85345e-10
8.84628e-10
8.84126e-10
8.83764e-10
8.83455e-10
8.83275e-10
8.83054e-10
8.82945e-10
8.82786e-10
8.82713e-10
8.82598e-10
8.82547e-10
8.82467e-10
8.82432e-10
8.82382e-10
8.82362e-10
8.82342e-10
8.8234e-10
8.82355e-10
8.82369e-10
8.82415e-10
8.82446e-10
8.82524e-10
8.82572e-10
8.82685e-10
8.82755e-10
8.82912e-10
8.8302e-10
8.83239e-10
8.83416e-10
8.83723e-10
8.84084e-10
8.84587e-10
8.85307e-10
8.8619e-10
8.87533e-10
8.89185e-10
8.91354e-10
8.94477e-10
8.98126e-10
9.03954e-10
9.06334e-10
8.64446e-10
8.62031e-10
8.56281e-10
8.52654e-10
8.49621e-10
8.47437e-10
8.45846e-10
8.44542e-10
8.43692e-10
8.42994e-10
8.42511e-10
8.42163e-10
8.41865e-10
8.41692e-10
8.41478e-10
8.41374e-10
8.41219e-10
8.4115e-10
8.41038e-10
8.40989e-10
8.4091e-10
8.40876e-10
8.40827e-10
8.40808e-10
8.40789e-10
8.40786e-10
8.40801e-10
8.40816e-10
8.4086e-10
8.4089e-10
8.40966e-10
8.41012e-10
8.41122e-10
8.41189e-10
8.41342e-10
8.41445e-10
8.41657e-10
8.41828e-10
8.42124e-10
8.42471e-10
8.42955e-10
8.43656e-10
8.44503e-10
8.45805e-10
8.47397e-10
8.49579e-10
8.5261e-10
8.56242e-10
8.61992e-10
8.64403e-10
8.23545e-10
8.21156e-10
8.15547e-10
8.11985e-10
8.0908e-10
8.06934e-10
8.05428e-10
8.04178e-10
8.03372e-10
8.027e-10
8.0224e-10
8.01909e-10
8.01624e-10
8.01459e-10
8.01253e-10
8.01153e-10
8.01004e-10
8.00937e-10
8.00829e-10
8.00781e-10
8.00706e-10
8.00673e-10
8.00625e-10
8.00606e-10
8.00588e-10
8.00585e-10
8.006e-10
8.00614e-10
8.00657e-10
8.00686e-10
8.0076e-10
8.00805e-10
8.00911e-10
8.00976e-10
8.01123e-10
8.01222e-10
8.01425e-10
8.01589e-10
8.01871e-10
8.02202e-10
8.02663e-10
8.03337e-10
8.04141e-10
8.05388e-10
8.06895e-10
8.0904e-10
8.11944e-10
8.15508e-10
8.21119e-10
8.23504e-10
7.83784e-10
7.81396e-10
7.75985e-10
7.72442e-10
7.69682e-10
7.67609e-10
7.662e-10
7.65017e-10
7.64262e-10
7.63624e-10
7.63193e-10
7.62882e-10
7.62614e-10
7.62459e-10
7.62266e-10
7.62172e-10
7.62032e-10
7.61968e-10
7.61866e-10
7.61822e-10
7.6175e-10
7.6172e-10
7.61675e-10
7.61657e-10
7.6164e-10
7.61638e-10
7.61651e-10
7.61664e-10
7.61704e-10
7.61732e-10
7.61801e-10
7.61843e-10
7.61943e-10
7.62004e-10
7.62142e-10
7.62235e-10
7.62427e-10
7.6258e-10
7.62845e-10
7.63156e-10
7.63588e-10
7.64229e-10
7.64982e-10
7.66164e-10
7.67573e-10
7.69645e-10
7.72404e-10
7.7595e-10
7.81362e-10
7.83747e-10
7.45837e-10
7.43551e-10
7.38614e-10
7.3608e-10
7.33548e-10
7.31617e-10
7.30336e-10
7.29247e-10
7.28554e-10
7.2796e-10
7.27562e-10
7.27273e-10
7.27023e-10
7.26876e-10
7.26695e-10
7.26604e-10
7.26472e-10
7.2641e-10
7.26313e-10
7.26269e-10
7.26202e-10
7.26171e-10
7.26129e-10
7.26112e-10
7.26096e-10
7.26094e-10
7.26106e-10
7.26119e-10
7.26158e-10
7.26185e-10
7.2625e-10
7.26292e-10
7.26386e-10
7.26446e-10
7.26577e-10
7.26666e-10
7.26846e-10
7.26991e-10
7.27239e-10
7.27528e-10
7.27927e-10
7.28524e-10
7.29213e-10
7.30302e-10
7.31584e-10
7.33513e-10
7.36045e-10
7.38581e-10
7.43519e-10
7.45802e-10
7.11904e-10
7.09816e-10
7.05428e-10
7.03101e-10
7.00855e-10
6.99127e-10
6.97996e-10
6.97025e-10
6.96406e-10
6.95868e-10
6.95508e-10
6.95243e-10
6.95014e-10
6.94875e-10
6.94707e-10
6.94619e-10
6.94496e-10
6.94435e-10
6.94345e-10
6.94301e-10
6.94238e-10
6.94208e-10
6.94168e-10
6.94151e-10
6.94136e-10
6.94134e-10
6.94146e-10
6.94159e-10
6.94195e-10
6.94222e-10
6.94284e-10
6.94325e-10
6.94414e-10
6.94473e-10
6.94595e-10
6.94682e-10
6.94848e-10
6.94985e-10
6.95212e-10
6.95477e-10
6.95837e-10
6.96379e-10
6.96994e-10
6.97965e-10
6.99096e-10
7.00824e-10
7.03069e-10
7.05398e-10
7.09785e-10
7.11872e-10
6.82035e-10
6.80245e-10
6.76551e-10
6.74547e-10
6.72658e-10
6.71199e-10
6.70243e-10
6.69422e-10
6.68887e-10
6.68418e-10
6.68102e-10
6.67865e-10
6.67659e-10
6.67529e-10
6.67376e-10
6.6729e-10
6.67177e-10
6.67116e-10
6.67033e-10
6.66989e-10
6.6693e-10
6.669e-10
6.66864e-10
6.66847e-10
6.66833e-10
6.66832e-10
6.66843e-10
6.66856e-10
6.6689e-10
6.66917e-10
6.66974e-10
6.67016e-10
6.67098e-10
6.67157e-10
6.67269e-10
6.67354e-10
6.67505e-10
6.67633e-10
6.67837e-10
6.68074e-10
6.68391e-10
6.68864e-10
6.69394e-10
6.70217e-10
6.71172e-10
6.7263e-10
6.74519e-10
6.76523e-10
6.80218e-10
6.82005e-10
6.57421e-10
6.56054e-10
6.53231e-10
6.51678e-10
6.50229e-10
6.49118e-10
6.48369e-10
6.47732e-10
6.47297e-10
6.46909e-10
6.46644e-10
6.46437e-10
6.46259e-10
6.46137e-10
6.46002e-10
6.45916e-10
6.45815e-10
6.45752e-10
6.45677e-10
6.45631e-10
6.45578e-10
6.45548e-10
6.45515e-10
6.45498e-10
6.45487e-10
6.45485e-10
6.45495e-10
6.45509e-10
6.4554e-10
6.45569e-10
6.4562e-10
6.45664e-10
6.45738e-10
6.45799e-10
6.45899e-10
6.45983e-10
6.46117e-10
6.46237e-10
6.46413e-10
6.4662e-10
6.46887e-10
6.47278e-10
6.4771e-10
6.48347e-10
6.49096e-10
6.50205e-10
6.51654e-10
6.53207e-10
6.5603e-10
6.57396e-10
6.39519e-10
6.38723e-10
6.36994e-10
6.36037e-10
6.35128e-10
6.34462e-10
6.33955e-10
6.33547e-10
6.33226e-10
6.32933e-10
6.32725e-10
6.32552e-10
6.32407e-10
6.32292e-10
6.32178e-10
6.3209e-10
6.32003e-10
6.31936e-10
6.31871e-10
6.31822e-10
6.31776e-10
6.31743e-10
6.31715e-10
6.31698e-10
6.31689e-10
6.31688e-10
6.31697e-10
6.31712e-10
6.31738e-10
6.31769e-10
6.31814e-10
6.31862e-10
6.31926e-10
6.31991e-10
6.32078e-10
6.32164e-10
6.32277e-10
6.3239e-10
6.32534e-10
6.32707e-10
6.32916e-10
6.33212e-10
6.3353e-10
6.33938e-10
6.34445e-10
6.3511e-10
6.36018e-10
6.36974e-10
6.38704e-10
6.39498e-10
6.30122e-10
6.30081e-10
6.2972e-10
6.29527e-10
6.29286e-10
6.29162e-10
6.2893e-10
6.28801e-10
6.28609e-10
6.28458e-10
6.28317e-10
6.28182e-10
6.28074e-10
6.27965e-10
6.27875e-10
6.27784e-10
6.27712e-10
6.2764e-10
6.27585e-10
6.27531e-10
6.27493e-10
6.27458e-10
6.27435e-10
6.27418e-10
6.2741e-10
6.2741e-10
6.27417e-10
6.27434e-10
6.27456e-10
6.27491e-10
6.27528e-10
6.27581e-10
6.27635e-10
6.27706e-10
6.27777e-10
6.27867e-10
6.27956e-10
6.28063e-10
6.2817e-10
6.28305e-10
6.28448e-10
6.286e-10
6.28792e-10
6.2892e-10
6.29151e-10
6.29274e-10
6.29514e-10
6.29707e-10
6.30068e-10
6.30108e-10
6.31461e-10
6.32404e-10
6.33754e-10
6.34527e-10
6.35102e-10
6.35679e-10
6.3578e-10
6.36003e-10
6.35959e-10
6.35939e-10
6.35875e-10
6.35782e-10
6.35718e-10
6.35614e-10
6.35551e-10
6.35454e-10
6.354e-10
6.35319e-10
6.35276e-10
6.35216e-10
6.35186e-10
6.35147e-10
6.35131e-10
6.35112e-10
6.35108e-10
6.35109e-10
6.35114e-10
6.35134e-10
6.3515e-10
6.3519e-10
6.35219e-10
6.35279e-10
6.3532e-10
6.354e-10
6.35453e-10
6.3555e-10
6.35611e-10
6.35714e-10
6.35778e-10
6.3587e-10
6.35937e-10
6.3596e-10
6.36003e-10
6.35779e-10
6.35676e-10
6.35098e-10
6.34521e-10
6.33746e-10
6.32399e-10
6.31454e-10
6.46397e-10
6.48661e-10
6.52025e-10
6.54011e-10
6.55583e-10
6.57033e-10
6.57525e-10
6.58184e-10
6.5831e-10
6.58448e-10
6.58473e-10
6.58428e-10
6.58414e-10
6.58313e-10
6.58284e-10
6.58175e-10
6.58143e-10
6.58049e-10
6.58021e-10
6.57951e-10
6.57932e-10
6.57887e-10
6.57879e-10
6.57858e-10
6.57858e-10
6.57859e-10
6.57863e-10
6.57886e-10
6.57896e-10
6.57942e-10
6.57961e-10
6.58031e-10
6.58058e-10
6.58151e-10
6.58182e-10
6.5829e-10
6.58319e-10
6.58419e-10
6.58433e-10
6.58476e-10
6.58455e-10
6.58321e-10
6.58195e-10
6.57535e-10
6.57041e-10
6.55588e-10
6.54013e-10
6.52025e-10
6.48666e-10
6.46399e-10
6.78307e-10
6.82214e-10
6.88214e-10
6.91711e-10
6.945e-10
6.97037e-10
6.97985e-10
6.99184e-10
6.99505e-10
6.99836e-10
6.99965e-10
6.99974e-10
7.00021e-10
6.9992e-10
6.9993e-10
6.99804e-10
6.99798e-10
6.99687e-10
6.99677e-10
6.99593e-10
6.99586e-10
6.99534e-10
6.99534e-10
6.99512e-10
6.99515e-10
6.99518e-10
6.99519e-10
6.99546e-10
6.99549e-10
6.99604e-10
6.99611e-10
6.99696e-10
6.99705e-10
6.99816e-10
6.99822e-10
6.99946e-10
6.99935e-10
7.00037e-10
6.99991e-10
6.99977e-10
6.99856e-10
6.99529e-10
6.99209e-10
6.98008e-10
6.97057e-10
6.94516e-10
6.91722e-10
6.88223e-10
6.8223e-10
6.7832e-10
7.32227e-10
7.38316e-10
7.46935e-10
7.52305e-10
7.5658e-10
7.60466e-10
7.61949e-10
7.63815e-10
7.64361e-10
7.6493e-10
7.6518e-10
)
;

boundaryField
{
    fuel
    {
        type            fixedValue;
        value           nonuniform 0();
    }
    wall
    {
        type            zeroGradient;
    }
    outlet
    {
        type            zeroGradient;
    }
    frontAndBack
    {
        type            empty;
    }
    procBoundary2to0
    {
        type            processor;
        value           nonuniform List<scalar> 
53
(
1.82624e-09
1.82983e-09
1.83102e-09
1.83188e-09
1.83147e-09
1.83101e-09
1.83022e-09
1.82965e-09
1.82904e-09
1.82861e-09
1.82818e-09
1.82789e-09
1.8276e-09
1.82739e-09
1.82717e-09
1.82704e-09
1.82688e-09
1.82678e-09
1.80025e-09
1.80025e-09
1.80018e-09
1.8001e-09
1.80006e-09
1.80001e-09
1.79999e-09
1.79998e-09
1.79998e-09
1.79999e-09
1.80001e-09
1.77405e-09
1.77405e-09
1.77409e-09
1.77417e-09
1.77423e-09
1.77435e-09
1.77445e-09
1.77461e-09
1.77475e-09
1.77496e-09
1.77518e-09
1.77547e-09
1.77577e-09
1.75052e-09
1.75052e-09
1.75097e-09
1.75159e-09
1.7522e-09
1.75303e-09
1.75364e-09
1.75426e-09
1.75381e-09
1.75325e-09
1.75039e-09
)
;
    }
    procBoundary2to3
    {
        type            processor;
        value           nonuniform List<scalar> 
51
(
7.65298e-10
7.65417e-10
7.65312e-10
7.6537e-10
7.65222e-10
7.65247e-10
7.65112e-10
7.65124e-10
7.65021e-10
7.65031e-10
7.64968e-10
7.6498e-10
7.64953e-10
7.64962e-10
7.64967e-10
7.64965e-10
7.64998e-10
7.64991e-10
7.65059e-10
7.65051e-10
7.65154e-10
7.65142e-10
7.65277e-10
7.65251e-10
7.65398e-10
7.6534e-10
7.65444e-10
7.65327e-10
7.65248e-10
7.65007e-10
7.64443e-10
7.63898e-10
7.62025e-10
7.60537e-10
7.56644e-10
7.5236e-10
7.46985e-10
7.38352e-10
7.32259e-10
8.12619e-10
8.21424e-10
8.33975e-10
8.41675e-10
8.47766e-10
8.53323e-10
8.55432e-10
8.5813e-10
8.58934e-10
8.59798e-10
7.65298e-10
8.60191e-10
)
;
    }
}


// ************************************************************************* //
