/*--------------------------------*- C++ -*----------------------------------*\
| =========                 |                                                 |
| \\      /  F ield         | OpenFOAM: The Open Source CFD Toolbox           |
|  \\    /   O peration     | Version:  dev                                   |
|   \\  /    A nd           | Web:      www.OpenFOAM.org                      |
|    \\/     M anipulation  |                                                 |
\*---------------------------------------------------------------------------*/
FoamFile
{
    version     2.0;
    format      ascii;
    class       volScalarField;
    location    "0.035";
    object      n-A1C2H2;
}
// * * * * * * * * * * * * * * * * * * * * * * * * * * * * * * * * * * * * * //

dimensions      [0 0 0 0 0 0 0];

internalField   nonuniform List<scalar> 
250
(
3.54002e-11
2.01685e-08
1.82694e-08
1.79283e-08
1.78862e-08
1.78743e-08
1.78755e-08
1.78741e-08
1.78752e-08
6.33243e-10
5.26413e-09
4.50262e-09
4.32852e-09
4.3186e-09
4.30933e-09
4.31038e-09
4.30952e-09
4.30964e-09
6.14593e-09
2.04314e-09
1.62102e-09
1.51046e-09
1.50878e-09
1.50113e-09
1.5026e-09
1.50162e-09
1.50177e-09
1.51802e-08
1.07931e-09
7.94697e-10
7.10043e-10
7.11071e-10
7.04438e-10
7.05999e-10
7.05034e-10
7.05199e-10
9.7578e-09
6.64694e-10
4.62562e-10
3.9084e-10
3.92771e-10
3.872e-10
3.88584e-10
3.87748e-10
3.87894e-10
4.46439e-09
4.57227e-10
2.82264e-10
2.39658e-10
2.41846e-10
2.37284e-10
2.38425e-10
2.37738e-10
2.37853e-10
2.65626e-09
3.36982e-10
1.97551e-10
1.5428e-10
1.55331e-10
1.5175e-10
1.5254e-10
1.52043e-10
1.52116e-10
2.05967e-09
2.69299e-10
1.41893e-10
1.09556e-10
1.10595e-10
1.07668e-10
1.08288e-10
1.07884e-10
1.0794e-10
1.85814e-09
2.2738e-10
1.06848e-10
8.12834e-11
8.1483e-11
7.8976e-11
7.94483e-11
7.91255e-11
7.91679e-11
1.79127e-09
1.98873e-10
8.4201e-11
6.25258e-11
6.24078e-11
6.04623e-11
6.07812e-11
6.05414e-11
6.057e-11
1.75852e-09
1.76855e-10
6.83663e-11
5.00947e-11
4.97388e-11
4.82109e-11
4.84306e-11
4.82468e-11
4.82696e-11
4.82575e-11
1.71704e-09
1.59497e-10
5.80644e-11
4.15405e-11
4.09953e-11
3.97619e-11
3.99158e-11
3.97697e-11
3.97901e-11
3.97789e-11
1.65184e-09
1.44914e-10
5.06728e-11
3.54264e-11
3.47366e-11
3.37109e-11
3.38201e-11
3.36997e-11
3.37193e-11
3.37082e-11
1.56133e-09
1.32009e-10
4.47651e-11
3.08839e-11
3.00917e-11
2.92153e-11
2.92936e-11
2.9191e-11
2.92106e-11
2.91993e-11
1.44904e-09
1.20195e-10
4.00541e-11
2.73839e-11
2.65237e-11
2.57579e-11
2.58142e-11
2.57245e-11
2.57443e-11
2.57327e-11
1.32046e-09
1.09883e-10
3.62133e-11
2.45986e-11
2.3697e-11
2.30162e-11
2.30564e-11
2.29764e-11
2.29964e-11
2.29845e-11
1.18223e-09
1.00072e-10
3.2992e-11
2.23217e-11
2.13989e-11
2.07865e-11
2.08145e-11
2.0742e-11
2.07621e-11
2.07501e-11
1.04195e-09
9.0511e-11
3.02273e-11
2.04213e-11
1.94926e-11
1.89376e-11
1.8956e-11
1.88899e-11
1.89096e-11
1.88978e-11
9.0876e-10
8.16115e-11
2.78156e-11
1.8811e-11
1.78877e-11
1.73834e-11
1.73938e-11
1.73336e-11
1.73525e-11
1.73412e-11
7.57438e-10
7.33429e-11
2.56884e-11
1.74338e-11
1.65234e-11
1.60662e-11
1.60694e-11
1.60148e-11
1.60324e-11
1.6022e-11
6.39416e-10
6.57487e-11
2.38009e-11
1.6251e-11
1.53567e-11
1.49458e-11
1.49419e-11
1.48933e-11
1.49089e-11
1.48998e-11
5.35829e-10
5.92522e-11
2.21236e-11
1.52357e-11
1.43547e-11
1.39938e-11
1.39813e-11
1.39399e-11
1.39526e-11
1.39453e-11
4.33556e-10
5.31663e-11
2.06333e-11
1.44628e-11
1.36221e-11
1.32872e-11
1.32726e-11
1.32341e-11
1.32447e-11
1.32388e-11
3.55191e-10
4.76012e-11
1.93052e-11
1.37831e-11
1.2968e-11
1.26654e-11
1.2646e-11
1.26118e-11
1.26204e-11
1.26154e-11
2.94189e-10
4.267e-11
1.81112e-11
1.32716e-11
1.24876e-11
1.22137e-11
1.219e-11
1.21598e-11
1.21653e-11
1.2162e-11
2.37453e-10
3.83274e-11
1.72446e-11
1.2869e-11
1.21273e-11
1.18813e-11
1.18528e-11
1.18266e-11
1.18285e-11
1.1827e-11
)
;

boundaryField
{
    fuel
    {
        type            fixedValue;
        value           uniform 0;
    }
    wall
    {
        type            zeroGradient;
    }
    outlet
    {
        type            zeroGradient;
    }
    frontAndBack
    {
        type            empty;
    }
    procBoundary2to0
    {
        type            processor;
        value           nonuniform List<scalar> 
12
(
1.21612e-11
1.89003e-10
3.45369e-11
1.65186e-11
1.25936e-11
1.18815e-11
1.16617e-11
1.16281e-11
1.16058e-11
1.16035e-11
1.18262e-11
1.16039e-11
)
;
    }
    procBoundary2to3
    {
        type            processor;
        value           nonuniform List<scalar> 
25
(
1.7875e-08
4.3097e-09
1.50174e-09
7.05148e-10
3.87844e-10
2.37812e-10
1.52093e-10
1.07924e-10
7.91462e-11
6.05553e-11
6.05553e-11
4.82452e-11
3.97695e-11
3.37008e-11
2.91934e-11
2.5728e-11
2.29806e-11
2.07469e-11
1.88951e-11
1.73389e-11
1.602e-11
1.48981e-11
1.3944e-11
1.32376e-11
1.26145e-11
)
;
    }
}


// ************************************************************************* //
