/*--------------------------------*- C++ -*----------------------------------*\
| =========                 |                                                 |
| \\      /  F ield         | OpenFOAM: The Open Source CFD Toolbox           |
|  \\    /   O peration     | Version:  dev                                   |
|   \\  /    A nd           | Web:      www.OpenFOAM.org                      |
|    \\/     M anipulation  |                                                 |
\*---------------------------------------------------------------------------*/
FoamFile
{
    version     2.0;
    format      ascii;
    class       volScalarField;
    location    "0.035";
    object      O;
}
// * * * * * * * * * * * * * * * * * * * * * * * * * * * * * * * * * * * * * //

dimensions      [0 0 0 0 0 0 0];

internalField   nonuniform List<scalar> 
250
(
1.32352e-08
4.56442e-05
4.66128e-05
4.67597e-05
4.67912e-05
4.6792e-05
4.67925e-05
4.67923e-05
4.67914e-05
1.91366e-08
1.56893e-05
1.57266e-05
1.56322e-05
1.56599e-05
1.56463e-05
1.56469e-05
1.56463e-05
1.56447e-05
8.7813e-07
4.29824e-06
4.16202e-06
4.07505e-06
4.09907e-06
4.08516e-06
4.08795e-06
4.08621e-06
4.08571e-06
5.7283e-05
1.46899e-06
1.31022e-06
1.26143e-06
1.27769e-06
1.26852e-06
1.27122e-06
1.26967e-06
1.26971e-06
4.60908e-05
6.36925e-07
5.50669e-07
5.1883e-07
5.29832e-07
5.24233e-07
5.26173e-07
5.25109e-07
5.25241e-07
2.33493e-05
3.2421e-07
2.8163e-07
2.82279e-07
2.9048e-07
2.87041e-07
2.8835e-07
2.87658e-07
2.87763e-07
9.24295e-06
1.86404e-07
1.8964e-07
1.86632e-07
1.92194e-07
1.90196e-07
1.9096e-07
1.90565e-07
1.90621e-07
3.53792e-06
1.24878e-07
1.43457e-07
1.47694e-07
1.52596e-07
1.51385e-07
1.51909e-07
1.51647e-07
1.51682e-07
1.50481e-06
9.32969e-08
1.19764e-07
1.27679e-07
1.31762e-07
1.31018e-07
1.31385e-07
1.31211e-07
1.31235e-07
7.77922e-07
7.51608e-08
1.06407e-07
1.16369e-07
1.20247e-07
1.19915e-07
1.20172e-07
1.20059e-07
1.20076e-07
4.97086e-07
6.33403e-08
9.77022e-08
1.09489e-07
1.13351e-07
1.13273e-07
1.13478e-07
1.13394e-07
1.13411e-07
1.13385e-07
3.75333e-07
5.55159e-08
9.20651e-08
1.0476e-07
1.08694e-07
1.08766e-07
1.08948e-07
1.08877e-07
1.08898e-07
1.0886e-07
3.15235e-07
5.00419e-08
8.78162e-08
1.01092e-07
1.05135e-07
1.05289e-07
1.05467e-07
1.05396e-07
1.05424e-07
1.05378e-07
2.80625e-07
4.59907e-08
8.41275e-08
9.79274e-08
1.02089e-07
1.02281e-07
1.02462e-07
1.02386e-07
1.02423e-07
1.0237e-07
2.56231e-07
4.28204e-08
8.08586e-08
9.49707e-08
9.92373e-08
9.94358e-08
9.9625e-08
9.95381e-08
9.9585e-08
9.95269e-08
2.35022e-07
4.03664e-08
7.78667e-08
9.20499e-08
9.63933e-08
9.65736e-08
9.67737e-08
9.66722e-08
9.67307e-08
9.66663e-08
2.13964e-07
3.82381e-08
7.50384e-08
8.90547e-08
9.34367e-08
9.35781e-08
9.37902e-08
9.36708e-08
9.37425e-08
9.36706e-08
1.92258e-07
3.62956e-08
7.22911e-08
8.59049e-08
9.02798e-08
9.03646e-08
9.05888e-08
9.04484e-08
9.0535e-08
9.04537e-08
1.70601e-07
3.45556e-08
6.95565e-08
8.25351e-08
8.68506e-08
8.68649e-08
8.71e-08
8.69364e-08
8.70394e-08
8.69468e-08
1.44388e-07
3.29597e-08
6.67697e-08
7.88886e-08
8.30841e-08
8.30198e-08
8.32634e-08
8.30753e-08
8.3196e-08
8.309e-08
1.22797e-07
3.14829e-08
6.38654e-08
7.49138e-08
7.89159e-08
7.8776e-08
7.90224e-08
7.88108e-08
7.89499e-08
7.88288e-08
1.03043e-07
3.01612e-08
6.07766e-08
7.05612e-08
7.42712e-08
7.40821e-08
7.43184e-08
7.40897e-08
7.4246e-08
7.41094e-08
8.26604e-08
2.88155e-08
5.74343e-08
6.6256e-08
6.97873e-08
6.94634e-08
6.97193e-08
6.94555e-08
6.96336e-08
6.94789e-08
6.66019e-08
2.74328e-08
5.3744e-08
6.13322e-08
6.45138e-08
6.40805e-08
6.4339e-08
6.40453e-08
6.42532e-08
6.40725e-08
5.39712e-08
2.59814e-08
4.959e-08
5.63466e-08
5.92273e-08
5.86887e-08
5.89544e-08
5.86338e-08
5.88623e-08
5.86636e-08
4.22066e-08
2.44007e-08
4.57181e-08
5.09148e-08
5.36132e-08
5.29861e-08
5.32547e-08
5.29125e-08
5.31594e-08
5.29447e-08
)
;

boundaryField
{
    fuel
    {
        type            fixedValue;
        value           uniform 0;
    }
    wall
    {
        type            zeroGradient;
    }
    outlet
    {
        type            zeroGradient;
    }
    frontAndBack
    {
        type            empty;
    }
    procBoundary2to0
    {
        type            processor;
        value           nonuniform List<scalar> 
12
(
5.86492e-08
3.22748e-08
2.26459e-08
4.15492e-08
4.53822e-08
4.77495e-08
4.70473e-08
4.73168e-08
4.69586e-08
4.722e-08
5.29299e-08
4.69927e-08
)
;
    }
    procBoundary2to3
    {
        type            processor;
        value           nonuniform List<scalar> 
25
(
4.67912e-05
1.56451e-05
4.08577e-06
1.26962e-06
5.25141e-07
2.87684e-07
1.9057e-07
1.51642e-07
1.31194e-07
1.20044e-07
1.20044e-07
1.13385e-07
1.08869e-07
1.05391e-07
1.02383e-07
9.95376e-08
9.66741e-08
9.3675e-08
9.04548e-08
8.69447e-08
8.30851e-08
7.88215e-08
7.41001e-08
6.94673e-08
6.4059e-08
)
;
    }
}


// ************************************************************************* //
