/*--------------------------------*- C++ -*----------------------------------*\
| =========                 |                                                 |
| \\      /  F ield         | OpenFOAM: The Open Source CFD Toolbox           |
|  \\    /   O peration     | Version:  dev                                   |
|   \\  /    A nd           | Web:      www.OpenFOAM.org                      |
|    \\/     M anipulation  |                                                 |
\*---------------------------------------------------------------------------*/
FoamFile
{
    version     2.0;
    format      ascii;
    class       volScalarField;
    location    "0.035";
    object      PC3H4;
}
// * * * * * * * * * * * * * * * * * * * * * * * * * * * * * * * * * * * * * //

dimensions      [0 0 0 0 0 0 0];

internalField   nonuniform List<scalar> 
250
(
8.0409e-07
8.01128e-07
6.06249e-07
5.90218e-07
5.86741e-07
5.88266e-07
5.86513e-07
5.87108e-07
5.88276e-07
1.81465e-06
4.95784e-07
3.8565e-07
3.75065e-07
3.73623e-07
3.73707e-07
3.73446e-07
3.73537e-07
3.737e-07
2.57747e-06
4.00591e-07
3.06879e-07
2.96977e-07
2.95741e-07
2.95641e-07
2.95575e-07
2.95575e-07
2.95619e-07
3.06058e-06
3.76381e-07
2.80096e-07
2.6924e-07
2.67813e-07
2.6765e-07
2.67622e-07
2.6759e-07
2.67621e-07
3.27776e-06
3.69119e-07
2.68113e-07
2.5603e-07
2.54317e-07
2.54107e-07
2.54091e-07
2.54035e-07
2.54073e-07
3.27884e-06
3.62966e-07
2.5964e-07
2.46121e-07
2.43887e-07
2.43605e-07
2.43601e-07
2.43507e-07
2.43563e-07
3.11241e-06
3.54516e-07
2.51859e-07
2.37524e-07
2.34896e-07
2.34625e-07
2.34625e-07
2.34504e-07
2.34575e-07
2.80109e-06
3.44259e-07
2.44285e-07
2.29448e-07
2.26381e-07
2.25676e-07
2.25676e-07
2.25496e-07
2.25596e-07
2.32952e-06
3.32556e-07
2.36564e-07
2.21341e-07
2.18363e-07
2.17629e-07
2.17627e-07
2.17415e-07
2.17534e-07
1.69415e-06
3.19639e-07
2.2838e-07
2.12961e-07
2.09667e-07
2.08888e-07
2.08876e-07
2.08635e-07
2.08772e-07
1.03754e-06
3.06095e-07
2.20591e-07
2.06033e-07
2.02469e-07
2.01645e-07
2.01625e-07
2.01356e-07
2.01513e-07
2.01419e-07
5.74452e-07
2.92636e-07
2.13857e-07
1.98823e-07
1.9478e-07
1.93861e-07
1.93828e-07
1.93531e-07
1.93708e-07
1.93594e-07
3.30003e-07
2.77436e-07
2.06342e-07
1.91687e-07
1.87408e-07
1.86428e-07
1.86383e-07
1.86057e-07
1.86252e-07
1.86119e-07
2.2272e-07
2.62936e-07
1.99e-07
1.8485e-07
1.80376e-07
1.79337e-07
1.7928e-07
1.78925e-07
1.79138e-07
1.78984e-07
1.82009e-07
2.51048e-07
1.91907e-07
1.78303e-07
1.7368e-07
1.72583e-07
1.72517e-07
1.7213e-07
1.72361e-07
1.72187e-07
1.69708e-07
2.39701e-07
1.85087e-07
1.72048e-07
1.67319e-07
1.66168e-07
1.66093e-07
1.65676e-07
1.65922e-07
1.65729e-07
1.68735e-07
2.29005e-07
1.78562e-07
1.66087e-07
1.61298e-07
1.60094e-07
1.60014e-07
1.59566e-07
1.59827e-07
1.59618e-07
1.71725e-07
2.1898e-07
1.72347e-07
1.60425e-07
1.55621e-07
1.54367e-07
1.54287e-07
1.53809e-07
1.54083e-07
1.5386e-07
1.75448e-07
2.09831e-07
1.66459e-07
1.55068e-07
1.50293e-07
1.4899e-07
1.48918e-07
1.48408e-07
1.48698e-07
1.48465e-07
1.78531e-07
2.00513e-07
1.6091e-07
1.50025e-07
1.4532e-07
1.43964e-07
1.43913e-07
1.43363e-07
1.43679e-07
1.43439e-07
1.8052e-07
1.92532e-07
1.55711e-07
1.453e-07
1.40703e-07
1.39283e-07
1.39276e-07
1.38668e-07
1.39028e-07
1.38779e-07
1.81363e-07
1.85123e-07
1.5087e-07
1.40893e-07
1.36444e-07
1.34934e-07
1.35006e-07
1.34308e-07
1.34744e-07
1.3444e-07
1.81183e-07
1.78325e-07
1.46385e-07
1.36797e-07
1.32534e-07
1.31382e-07
1.31095e-07
1.30744e-07
1.30816e-07
1.30646e-07
1.80157e-07
1.72144e-07
1.42252e-07
1.335e-07
1.29364e-07
1.28193e-07
1.27938e-07
1.27542e-07
1.27644e-07
1.27427e-07
1.78466e-07
1.66571e-07
1.389e-07
1.30285e-07
1.26545e-07
1.25382e-07
1.25144e-07
1.24722e-07
1.24837e-07
1.24613e-07
1.76269e-07
1.61581e-07
1.3572e-07
1.27638e-07
1.24019e-07
1.2292e-07
1.22656e-07
1.22257e-07
1.22341e-07
1.22151e-07
)
;

boundaryField
{
    fuel
    {
        type            fixedValue;
        value           uniform 0;
    }
    wall
    {
        type            zeroGradient;
    }
    outlet
    {
        type            zeroGradient;
    }
    frontAndBack
    {
        type            empty;
    }
    procBoundary2to0
    {
        type            processor;
        value           nonuniform List<scalar> 
12
(
1.24664e-07
1.73686e-07
1.56729e-07
1.32996e-07
1.25301e-07
1.21839e-07
1.20783e-07
1.2052e-07
1.20117e-07
1.2019e-07
1.22201e-07
1.20006e-07
)
;
    }
    procBoundary2to3
    {
        type            processor;
        value           nonuniform List<scalar> 
25
(
5.88012e-07
3.73702e-07
2.95606e-07
2.67598e-07
2.54045e-07
2.43528e-07
2.34535e-07
2.25542e-07
2.1747e-07
2.08695e-07
2.08695e-07
2.01391e-07
1.93571e-07
1.86103e-07
1.78977e-07
1.7219e-07
1.65742e-07
1.5964e-07
1.53892e-07
1.48505e-07
1.43486e-07
1.38839e-07
1.3456e-07
1.30638e-07
1.27469e-07
)
;
    }
}


// ************************************************************************* //
