/*--------------------------------*- C++ -*----------------------------------*\
| =========                 |                                                 |
| \\      /  F ield         | OpenFOAM: The Open Source CFD Toolbox           |
|  \\    /   O peration     | Version:  dev                                   |
|   \\  /    A nd           | Web:      www.OpenFOAM.org                      |
|    \\/     M anipulation  |                                                 |
\*---------------------------------------------------------------------------*/
FoamFile
{
    version     2.0;
    format      ascii;
    class       volScalarField;
    location    "0.2";
    object      A2C2HA;
}
// * * * * * * * * * * * * * * * * * * * * * * * * * * * * * * * * * * * * * //

dimensions      [0 0 0 0 0 0 0];

internalField   nonuniform List<scalar> 
250
(
3.48832e-10
3.49292e-10
3.49951e-10
3.49706e-10
3.4977e-10
3.58031e-10
3.88855e-10
5.78871e-10
1.74319e-09
1.61569e-08
3.35302e-10
3.35728e-10
3.36214e-10
3.36027e-10
3.36157e-10
3.43649e-10
3.72735e-10
5.46e-10
1.55559e-09
1.37071e-08
2.26042e-09
1.1442e-09
4.66424e-10
3.62407e-10
3.33028e-10
3.27652e-10
3.26914e-10
3.26803e-10
3.26382e-10
3.26155e-10
3.25713e-10
3.26038e-10
3.26438e-10
3.26245e-10
3.26465e-10
3.3315e-10
3.60721e-10
5.18032e-10
1.39214e-09
1.14606e-08
1.94151e-09
9.90313e-10
4.47657e-10
3.53849e-10
3.27068e-10
3.22117e-10
3.2145e-10
3.21493e-10
3.20907e-10
3.20958e-10
3.20569e-10
3.20749e-10
3.21139e-10
3.20854e-10
3.21187e-10
3.27011e-10
3.53316e-10
4.95513e-10
1.25261e-09
9.44637e-09
1.69014e-09
8.71224e-10
4.36271e-10
3.50394e-10
3.26267e-10
3.21677e-10
3.21091e-10
3.21391e-10
3.20559e-10
3.20981e-10
3.20615e-10
3.20625e-10
3.21059e-10
3.20591e-10
3.21065e-10
3.25954e-10
3.51242e-10
4.79165e-10
1.13644e-09
7.83066e-09
1.50117e-09
7.96877e-10
4.32867e-10
3.52954e-10
3.31581e-10
3.2729e-10
3.26811e-10
3.27463e-10
3.26293e-10
3.27194e-10
3.26824e-10
3.26646e-10
3.2716e-10
3.26415e-10
3.27066e-10
3.30935e-10
3.55452e-10
4.69889e-10
1.04768e-09
6.40085e-09
1.36621e-09
7.48624e-10
4.38129e-10
3.62606e-10
3.44095e-10
3.40049e-10
3.39713e-10
3.40793e-10
3.39192e-10
3.40682e-10
3.40279e-10
3.39905e-10
3.40511e-10
3.39408e-10
3.40279e-10
3.43054e-10
3.67021e-10
4.68642e-10
9.78609e-10
5.0952e-09
1.27635e-09
7.22591e-10
4.52679e-10
3.80377e-10
3.64788e-10
3.60929e-10
3.60776e-10
3.62322e-10
3.60218e-10
3.62381e-10
3.61922e-10
3.61348e-10
3.6204e-10
3.60528e-10
3.61663e-10
3.63317e-10
3.86893e-10
4.76273e-10
9.28673e-10
4.19259e-09
1.22297e-09
7.15667e-10
4.78207e-10
4.06928e-10
3.95136e-10
3.91336e-10
3.9043e-10
3.93608e-10
3.90805e-10
3.93814e-10
3.93176e-10
3.91355e-10
3.9326e-10
3.91168e-10
3.92539e-10
3.93135e-10
4.15452e-10
4.93165e-10
8.95648e-10
3.4391e-09
1.19765e-09
7.24599e-10
5.13231e-10
4.41821e-10
4.32474e-10
4.28833e-10
4.27974e-10
4.31674e-10
4.28383e-10
4.32024e-10
4.31304e-10
4.2918e-10
4.31293e-10
4.28838e-10
4.30457e-10
4.30204e-10
4.51943e-10
5.21375e-10
8.76028e-10
2.86753e-09
1.19168e-09
7.45239e-10
5.52518e-10
4.83159e-10
4.7555e-10
4.72036e-10
4.71203e-10
4.75197e-10
4.71587e-10
4.75645e-10
4.74872e-10
4.72567e-10
4.74799e-10
4.72132e-10
4.73922e-10
4.73149e-10
4.94099e-10
5.54576e-10
8.67159e-10
2.42238e-09
1.19574e-09
7.72282e-10
5.93883e-10
5.27364e-10
5.20557e-10
5.17128e-10
5.16293e-10
5.20255e-10
5.16599e-10
5.20737e-10
5.19964e-10
5.1765e-10
5.19865e-10
5.17216e-10
5.19051e-10
5.18215e-10
5.38041e-10
5.91254e-10
8.63457e-10
2.07583e-09
1.20016e-09
7.99304e-10
6.32036e-10
5.69499e-10
5.62506e-10
5.59126e-10
5.58268e-10
5.61836e-10
5.58458e-10
5.62283e-10
5.61571e-10
5.59446e-10
5.61468e-10
5.59107e-10
5.60839e-10
5.60433e-10
5.78745e-10
6.26538e-10
8.59643e-10
1.80349e-09
5.94635e-10
5.92873e-10
5.94532e-10
5.92699e-10
5.94187e-10
5.9462e-10
6.1106e-10
6.55096e-10
8.5077e-10
1.58493e-09
)
;

boundaryField
{
    fuel
    {
        type            fixedValue;
        value           nonuniform 0();
    }
    wall
    {
        type            zeroGradient;
    }
    outlet
    {
        type            zeroGradient;
    }
    frontAndBack
    {
        type            empty;
    }
    procBoundary0to1
    {
        type            processor;
        value           nonuniform List<scalar> 
21
(
1.19591e-09
8.19592e-10
6.61537e-10
6.04212e-10
5.9624e-10
5.92898e-10
5.92014e-10
5.94874e-10
5.92074e-10
5.95229e-10
5.95229e-10
6.15271e-10
6.13987e-10
6.15162e-10
6.14006e-10
6.15147e-10
6.16637e-10
6.30952e-10
6.72382e-10
8.33198e-10
1.4042e-09
)
;
    }
    procBoundary0to2
    {
        type            processor;
        value           nonuniform List<scalar> 
12
(
3.49466e-10
2.64749e-09
1.33856e-09
4.92298e-10
3.7539e-10
3.43429e-10
3.37552e-10
3.36745e-10
3.36579e-10
3.36254e-10
3.35825e-10
3.35825e-10
)
;
    }
    procBoundary0to3
    {
        type            processor;
        value           nonuniform List<scalar> 10(3.66013e-10 3.66436e-10 3.67319e-10 3.66995e-10 3.67019e-10 3.7603e-10 4.0872e-10 6.2241e-10 1.95579e-09 1.88704e-08);
    }
}


// ************************************************************************* //
