/*--------------------------------*- C++ -*----------------------------------*\
| =========                 |                                                 |
| \\      /  F ield         | OpenFOAM: The Open Source CFD Toolbox           |
|  \\    /   O peration     | Version:  dev                                   |
|   \\  /    A nd           | Web:      www.OpenFOAM.org                      |
|    \\/     M anipulation  |                                                 |
\*---------------------------------------------------------------------------*/
FoamFile
{
    version     2.0;
    format      ascii;
    class       volScalarField;
    location    "0.2";
    object      AC3H4;
}
// * * * * * * * * * * * * * * * * * * * * * * * * * * * * * * * * * * * * * //

dimensions      [0 0 0 0 0 0 0];

internalField   nonuniform List<scalar> 
250
(
7.67131e-07
7.67961e-07
7.67931e-07
7.68922e-07
7.69307e-07
7.74218e-07
7.95405e-07
8.41678e-07
9.92622e-07
1.03146e-06
7.53178e-07
7.54012e-07
7.53918e-07
7.54915e-07
7.55286e-07
7.59928e-07
7.80137e-07
8.22821e-07
9.6327e-07
1.01745e-06
1.59085e-06
9.62041e-07
8.24486e-07
7.59726e-07
7.47001e-07
7.41658e-07
7.41864e-07
7.41435e-07
7.41129e-07
7.40944e-07
7.40967e-07
7.41767e-07
7.41618e-07
7.42621e-07
7.42981e-07
7.47369e-07
7.66486e-07
8.06787e-07
9.3687e-07
1.00244e-06
1.4536e-06
9.28734e-07
8.07413e-07
7.48013e-07
7.35948e-07
7.30999e-07
7.31138e-07
7.30719e-07
7.3046e-07
7.30303e-07
7.30299e-07
7.31052e-07
7.30864e-07
7.31866e-07
7.32219e-07
7.36371e-07
7.54316e-07
7.92275e-07
9.10205e-07
9.86239e-07
1.35108e-06
8.98021e-07
7.91735e-07
7.376e-07
7.26228e-07
7.21659e-07
7.21735e-07
7.21324e-07
7.21109e-07
7.20973e-07
7.20935e-07
7.21643e-07
7.21427e-07
7.22424e-07
7.22772e-07
7.26713e-07
7.43436e-07
7.7909e-07
8.85099e-07
9.69099e-07
1.25074e-06
8.71088e-07
7.77303e-07
7.28211e-07
7.17567e-07
7.13347e-07
7.13371e-07
7.1296e-07
7.12789e-07
7.12661e-07
7.12587e-07
7.13261e-07
7.13021e-07
7.14016e-07
7.14357e-07
7.18119e-07
7.33597e-07
7.66992e-07
8.64775e-07
9.51353e-07
1.15093e-06
8.46248e-07
7.63899e-07
7.19523e-07
7.09643e-07
7.0573e-07
7.05713e-07
7.05289e-07
7.0517e-07
7.05034e-07
7.04923e-07
7.05582e-07
7.05312e-07
7.06315e-07
7.06647e-07
7.10263e-07
7.24496e-07
7.55686e-07
8.45913e-07
9.3308e-07
1.07812e-06
8.23225e-07
7.5126e-07
7.11191e-07
7.02111e-07
6.98453e-07
6.98409e-07
6.97952e-07
6.97899e-07
6.97731e-07
6.97586e-07
6.9825e-07
6.97942e-07
6.98973e-07
6.99291e-07
7.02779e-07
7.15811e-07
7.44866e-07
8.28062e-07
9.14266e-07
1.01326e-06
8.01659e-07
7.39123e-07
7.02871e-07
6.94408e-07
6.91048e-07
6.90985e-07
6.90593e-07
6.90487e-07
6.90401e-07
6.90224e-07
6.90915e-07
6.90556e-07
6.91505e-07
6.91804e-07
6.95064e-07
7.07232e-07
7.33511e-07
8.10796e-07
8.94832e-07
9.5753e-07
7.80456e-07
7.26206e-07
6.94271e-07
6.866e-07
6.83424e-07
6.83355e-07
6.82913e-07
6.82874e-07
6.82744e-07
6.82538e-07
6.8327e-07
6.82852e-07
6.83846e-07
6.8412e-07
6.87196e-07
6.98436e-07
7.22202e-07
7.93763e-07
8.74681e-07
9.08894e-07
7.60942e-07
7.13975e-07
6.85223e-07
6.78296e-07
6.75294e-07
6.75224e-07
6.74742e-07
6.74754e-07
6.74591e-07
6.74363e-07
6.75136e-07
6.74661e-07
6.75688e-07
6.75933e-07
6.78799e-07
6.89202e-07
7.10801e-07
7.76693e-07
8.53762e-07
8.66241e-07
7.42415e-07
7.01549e-07
6.75818e-07
6.69562e-07
6.66765e-07
6.66688e-07
6.6619e-07
6.66234e-07
6.66054e-07
6.65815e-07
6.66598e-07
6.66096e-07
6.67114e-07
6.67334e-07
6.69975e-07
6.79527e-07
6.99057e-07
7.59499e-07
8.32187e-07
8.289e-07
7.25402e-07
6.89368e-07
6.66705e-07
6.61006e-07
6.58514e-07
6.58405e-07
6.57951e-07
6.5799e-07
6.57826e-07
6.57598e-07
6.58302e-07
6.5785e-07
6.58762e-07
6.58971e-07
6.61359e-07
6.69911e-07
6.87593e-07
7.42514e-07
8.10652e-07
6.51573e-07
6.51999e-07
6.51772e-07
6.52378e-07
6.52608e-07
6.54682e-07
6.61876e-07
6.78094e-07
7.26941e-07
7.90577e-07
)
;

boundaryField
{
    fuel
    {
        type            fixedValue;
        value           nonuniform 0();
    }
    wall
    {
        type            zeroGradient;
    }
    outlet
    {
        type            zeroGradient;
    }
    frontAndBack
    {
        type            empty;
    }
    procBoundary0to1
    {
        type            processor;
        value           nonuniform List<scalar> 
21
(
7.97342e-07
7.11437e-07
6.78818e-07
6.59632e-07
6.54318e-07
6.52354e-07
6.5215e-07
6.51862e-07
6.51823e-07
6.5174e-07
6.5174e-07
6.51623e-07
6.51415e-07
6.51729e-07
6.51688e-07
6.51998e-07
6.53642e-07
6.58825e-07
6.74174e-07
7.15595e-07
7.74879e-07
)
;
    }
    procBoundary0to2
    {
        type            processor;
        value           nonuniform List<scalar> 
12
(
7.67038e-07
1.76298e-06
9.97903e-07
8.43162e-07
7.72933e-07
7.59638e-07
7.53862e-07
7.54148e-07
7.53708e-07
7.53346e-07
7.53128e-07
7.53128e-07
)
;
    }
    procBoundary0to3
    {
        type            processor;
        value           nonuniform List<scalar> 10(7.8303e-07 7.83733e-07 7.83769e-07 7.84748e-07 7.8516e-07 7.90254e-07 8.12445e-07 8.61012e-07 1.02506e-06 1.04562e-06);
    }
}


// ************************************************************************* //
