/*--------------------------------*- C++ -*----------------------------------*\
| =========                 |                                                 |
| \\      /  F ield         | OpenFOAM: The Open Source CFD Toolbox           |
|  \\    /   O peration     | Version:  dev                                   |
|   \\  /    A nd           | Web:      www.OpenFOAM.org                      |
|    \\/     M anipulation  |                                                 |
\*---------------------------------------------------------------------------*/
FoamFile
{
    version     2.0;
    format      ascii;
    class       volScalarField;
    location    "0.2";
    object      C5H5O;
}
// * * * * * * * * * * * * * * * * * * * * * * * * * * * * * * * * * * * * * //

dimensions      [0 0 0 0 0 0 0];

internalField   nonuniform List<scalar> 
50
(
9.28258e-11
4.25961e-11
1.97821e-11
9.33203e-12
4.43888e-12
2.12119e-12
1.01752e-12
4.86854e-13
2.33198e-13
1.11886e-13
5.41855e-14
2.6279e-14
1.28505e-14
6.3598e-15
3.19817e-15
1.65202e-15
8.7544e-16
4.80209e-16
2.71858e-16
1.5913e-16
9.6563e-17
5.99778e-17
3.81986e-17
2.47239e-17
1.61928e-17
1.06925e-17
7.10016e-18
4.7252e-18
3.14431e-18
2.103e-18
1.40459e-18
9.38555e-19
6.30502e-19
4.23599e-19
2.85138e-19
1.92574e-19
1.30574e-19
8.89373e-20
6.08834e-20
4.19058e-20
2.90087e-20
2.01987e-20
1.41472e-20
9.96649e-21
7.06178e-21
5.03275e-21
3.60897e-21
2.60697e-21
1.90189e-21
1.40877e-21
)
;

boundaryField
{
    wall
    {
        type            zeroGradient;
    }
    fuel
    {
        type            fixedValue;
        value           uniform 0;
    }
    outlet
    {
        type            inletOutlet;
        inletValue      nonuniform 0();
        value           nonuniform 0();
    }
    procBoundary0to1
    {
        type            processor;
        value           uniform 1.04433e-21;
    }
}


// ************************************************************************* //
