/*--------------------------------*- C++ -*----------------------------------*\
| =========                 |                                                 |
| \\      /  F ield         | OpenFOAM: The Open Source CFD Toolbox           |
|  \\    /   O peration     | Version:  dev                                   |
|   \\  /    A nd           | Web:      www.OpenFOAM.org                      |
|    \\/     M anipulation  |                                                 |
\*---------------------------------------------------------------------------*/
FoamFile
{
    version     2.0;
    format      ascii;
    class       volScalarField;
    location    "0.2";
    object      C5H6;
}
// * * * * * * * * * * * * * * * * * * * * * * * * * * * * * * * * * * * * * //

dimensions      [0 0 0 0 0 0 0];

internalField   nonuniform List<scalar> 
50
(
2.47328e-08
1.825e-08
1.18425e-08
7.75188e-09
5.22578e-09
3.62464e-09
2.56772e-09
1.83771e-09
1.32386e-09
9.54628e-10
6.89234e-10
4.94716e-10
3.53398e-10
2.51087e-10
1.77345e-10
1.24923e-10
8.74156e-11
6.09485e-11
4.21877e-11
2.90356e-11
1.9959e-11
1.36188e-11
9.28439e-12
6.30736e-12
4.27356e-12
2.8893e-12
1.95043e-12
1.31335e-12
8.81642e-13
5.93784e-13
3.99015e-13
2.68188e-13
1.8124e-13
1.2255e-13
8.30784e-14
5.65516e-14
3.86803e-14
2.66009e-14
1.84032e-14
1.28132e-14
8.98037e-15
6.33666e-15
4.50145e-15
3.21907e-15
2.31715e-15
1.67894e-15
1.22499e-15
9.01025e-16
6.69824e-16
5.0587e-16
)
;

boundaryField
{
    wall
    {
        type            zeroGradient;
    }
    fuel
    {
        type            fixedValue;
        value           uniform 0;
    }
    outlet
    {
        type            inletOutlet;
        inletValue      nonuniform 0();
        value           nonuniform 0();
    }
    procBoundary0to1
    {
        type            processor;
        value           uniform 3.82313e-16;
    }
}


// ************************************************************************* //
