/*--------------------------------*- C++ -*----------------------------------*\
| =========                 |                                                 |
| \\      /  F ield         | OpenFOAM: The Open Source CFD Toolbox           |
|  \\    /   O peration     | Version:  dev                                   |
|   \\  /    A nd           | Web:      www.OpenFOAM.org                      |
|    \\/     M anipulation  |                                                 |
\*---------------------------------------------------------------------------*/
FoamFile
{
    version     2.0;
    format      ascii;
    class       volScalarField;
    location    "0.2";
    object      CH2O;
}
// * * * * * * * * * * * * * * * * * * * * * * * * * * * * * * * * * * * * * //

dimensions      [0 0 0 0 0 0 0];

internalField   nonuniform List<scalar> 
50
(
0.000174399
0.000168784
0.000136817
0.00010528
7.9494e-05
5.9773e-05
4.51481e-05
3.4319e-05
2.63543e-05
2.0451e-05
1.60503e-05
1.26634e-05
1.00403e-05
7.98443e-06
6.35758e-06
5.07277e-06
4.04122e-06
3.21805e-06
2.55394e-06
2.02157e-06
1.60008e-06
1.26125e-06
9.94201e-07
7.82364e-07
6.15044e-07
4.83219e-07
3.79626e-07
2.98118e-07
2.3406e-07
1.84554e-07
1.45733e-07
1.15546e-07
9.23633e-08
7.43069e-08
6.03261e-08
4.9541e-08
4.12296e-08
3.48291e-08
2.99019e-08
2.61091e-08
2.31883e-08
2.09372e-08
1.92001e-08
1.78572e-08
1.68165e-08
1.60075e-08
1.53764e-08
1.48818e-08
1.44922e-08
1.4184e-08
)
;

boundaryField
{
    wall
    {
        type            zeroGradient;
    }
    fuel
    {
        type            fixedValue;
        value           uniform 0;
    }
    outlet
    {
        type            inletOutlet;
        inletValue      nonuniform 0();
        value           nonuniform 0();
    }
    procBoundary0to1
    {
        type            processor;
        value           uniform 1.39361e-08;
    }
}


// ************************************************************************* //
