/*--------------------------------*- C++ -*----------------------------------*\
| =========                 |                                                 |
| \\      /  F ield         | OpenFOAM: The Open Source CFD Toolbox           |
|  \\    /   O peration     | Version:  dev                                   |
|   \\  /    A nd           | Web:      www.OpenFOAM.org                      |
|    \\/     M anipulation  |                                                 |
\*---------------------------------------------------------------------------*/
FoamFile
{
    version     2.0;
    format      ascii;
    class       volScalarField;
    location    "0.2";
    object      H;
}
// * * * * * * * * * * * * * * * * * * * * * * * * * * * * * * * * * * * * * //

dimensions      [0 0 0 0 0 0 0];

internalField   nonuniform List<scalar> 
250
(
2.1166e-05
2.1194e-05
2.11868e-05
2.12228e-05
2.11963e-05
2.12467e-05
2.08323e-05
1.95783e-05
1.44141e-05
8.15843e-06
2.02835e-05
2.03155e-05
2.03022e-05
2.03474e-05
2.03191e-05
2.0391e-05
1.99935e-05
1.89427e-05
1.41525e-05
8.12139e-06
9.47735e-06
1.50449e-05
1.83884e-05
1.95276e-05
1.94267e-05
1.94121e-05
1.94026e-05
1.9318e-05
1.93705e-05
1.92903e-05
1.92978e-05
1.93322e-05
1.93144e-05
1.93687e-05
1.93388e-05
1.9432e-05
1.90564e-05
1.82117e-05
1.38107e-05
8.10802e-06
9.88762e-06
1.47989e-05
1.75191e-05
1.85102e-05
1.83523e-05
1.83334e-05
1.83212e-05
1.82276e-05
1.8288e-05
1.81991e-05
1.82082e-05
1.82438e-05
1.82227e-05
1.82855e-05
1.82542e-05
1.83678e-05
1.80184e-05
1.73782e-05
1.3371e-05
8.1011e-06
1.01455e-05
1.43495e-05
1.65328e-05
1.73856e-05
1.71756e-05
1.71521e-05
1.71367e-05
1.70359e-05
1.71037e-05
1.70066e-05
1.70171e-05
1.70532e-05
1.70299e-05
1.71002e-05
1.70677e-05
1.72e-05
1.6879e-05
1.64381e-05
1.28187e-05
8.08238e-06
1.02206e-05
1.37823e-05
1.5434e-05
1.61575e-05
1.59032e-05
1.58748e-05
1.58553e-05
1.57503e-05
1.58247e-05
1.57204e-05
1.57322e-05
1.57676e-05
1.57436e-05
1.582e-05
1.57861e-05
1.59346e-05
1.56427e-05
1.5392e-05
1.21858e-05
8.02518e-06
1.00927e-05
1.30492e-05
1.42337e-05
1.48351e-05
1.45474e-05
1.45141e-05
1.44892e-05
1.43838e-05
1.44635e-05
1.43536e-05
1.43663e-05
1.43995e-05
1.43771e-05
1.44579e-05
1.44225e-05
1.45835e-05
1.43197e-05
1.42458e-05
1.14404e-05
7.88497e-06
9.75652e-06
1.21599e-05
1.29512e-05
1.34337e-05
1.31276e-05
1.30891e-05
1.30563e-05
1.29564e-05
1.30393e-05
1.29261e-05
1.29394e-05
1.29675e-05
1.29505e-05
1.30331e-05
1.29959e-05
1.31651e-05
1.29267e-05
1.30137e-05
1.05889e-05
7.67753e-06
9.22163e-06
1.1132e-05
1.15319e-05
1.19765e-05
1.1615e-05
1.15787e-05
1.15811e-05
1.14381e-05
1.15291e-05
1.14094e-05
1.14275e-05
1.1496e-05
1.14355e-05
1.15246e-05
1.14882e-05
1.16593e-05
1.1487e-05
1.17196e-05
9.64492e-06
7.34771e-06
8.51198e-06
9.99583e-06
1.0063e-05
1.04949e-05
1.01345e-05
1.00967e-05
1.00957e-05
9.96e-06
1.00507e-05
9.93244e-06
9.95066e-06
1.00162e-05
9.95899e-06
1.00458e-05
1.0009e-05
1.01773e-05
1.00315e-05
1.02681e-05
8.58048e-06
6.91337e-06
7.66389e-06
8.79099e-06
8.66856e-06
9.0236e-06
8.67585e-06
8.63822e-06
8.63503e-06
8.50903e-06
8.59702e-06
8.4832e-06
8.50103e-06
8.56266e-06
8.50902e-06
8.59176e-06
8.55563e-06
8.71659e-06
8.59508e-06
8.90138e-06
7.5171e-06
6.3677e-06
6.72317e-06
7.55962e-06
7.30962e-06
7.60015e-06
7.27559e-06
7.23976e-06
7.23556e-06
7.12128e-06
7.20432e-06
7.09773e-06
7.11464e-06
7.17126e-06
7.12161e-06
7.19841e-06
7.16419e-06
7.31342e-06
7.214e-06
7.55502e-06
6.44429e-06
5.72541e-06
5.74118e-06
6.34691e-06
6.02539e-06
6.26151e-06
5.96904e-06
5.93625e-06
5.93199e-06
5.83092e-06
5.90698e-06
5.81008e-06
5.82562e-06
5.87625e-06
5.8312e-06
5.90037e-06
5.86915e-06
6.00287e-06
5.92339e-06
6.26807e-06
5.39804e-06
5.01283e-06
4.66236e-06
4.70631e-06
4.66654e-06
4.72678e-06
4.69939e-06
4.81482e-06
4.75336e-06
5.07614e-06
4.4131e-06
4.26463e-06
)
;

boundaryField
{
    fuel
    {
        type            fixedValue;
        value           nonuniform 0();
    }
    wall
    {
        type            zeroGradient;
    }
    outlet
    {
        type            zeroGradient;
    }
    frontAndBack
    {
        type            empty;
    }
    procBoundary0to1
    {
        type            processor;
        value           nonuniform List<scalar> 
21
(
4.76805e-06
5.19519e-06
4.8501e-06
5.03995e-06
4.7858e-06
4.75697e-06
4.75313e-06
4.66636e-06
4.73373e-06
4.64847e-06
4.64847e-06
3.64407e-06
3.68114e-06
3.64706e-06
3.69787e-06
3.6745e-06
3.7712e-06
3.7244e-06
4.00994e-06
3.51661e-06
3.52168e-06
)
;
    }
    procBoundary0to2
    {
        type            processor;
        value           nonuniform List<scalar> 
12
(
2.11618e-05
8.94613e-06
1.51174e-05
1.91401e-05
2.04377e-05
2.03963e-05
2.0386e-05
2.03788e-05
2.03046e-05
2.03488e-05
2.02776e-05
2.02776e-05
)
;
    }
    procBoundary0to3
    {
        type            processor;
        value           nonuniform List<scalar> 10(2.19491e-05 2.19713e-05 2.1971e-05 2.19989e-05 2.19741e-05 2.2005e-05 2.15734e-05 2.02217e-05 1.46183e-05 8.23737e-06);
    }
}


// ************************************************************************* //
