/*--------------------------------*- C++ -*----------------------------------*\
| =========                 |                                                 |
| \\      /  F ield         | OpenFOAM: The Open Source CFD Toolbox           |
|  \\    /   O peration     | Version:  dev                                   |
|   \\  /    A nd           | Web:      www.OpenFOAM.org                      |
|    \\/     M anipulation  |                                                 |
\*---------------------------------------------------------------------------*/
FoamFile
{
    version     2.0;
    format      ascii;
    class       volScalarField;
    location    "0.2";
    object      H2C4O;
}
// * * * * * * * * * * * * * * * * * * * * * * * * * * * * * * * * * * * * * //

dimensions      [0 0 0 0 0 0 0];

internalField   nonuniform List<scalar> 
50
(
6.84137e-06
5.51318e-06
3.77119e-06
2.41337e-06
1.48813e-06
8.9689e-07
5.33389e-07
3.13208e-07
1.82697e-07
1.06182e-07
6.1886e-08
3.59045e-08
2.08118e-08
1.20553e-08
6.97619e-09
4.05334e-09
2.35129e-09
1.3676e-09
7.93437e-10
4.6001e-10
2.68129e-10
1.55764e-10
9.09455e-11
5.31674e-11
3.11352e-11
1.82657e-11
1.07372e-11
6.31227e-12
3.705e-12
2.18721e-12
1.28843e-12
7.58896e-13
4.49564e-13
2.65948e-13
1.57356e-13
9.32265e-14
5.5315e-14
3.28771e-14
1.95801e-14
1.1688e-14
6.99568e-15
4.20009e-15
2.53059e-15
1.53087e-15
9.30367e-16
5.68385e-16
3.49313e-16
2.16135e-16
1.34768e-16
8.47871e-17
)
;

boundaryField
{
    wall
    {
        type            zeroGradient;
    }
    fuel
    {
        type            fixedValue;
        value           uniform 0;
    }
    outlet
    {
        type            inletOutlet;
        inletValue      nonuniform 0();
        value           nonuniform 0();
    }
    procBoundary0to1
    {
        type            processor;
        value           uniform 5.39059e-17;
    }
}


// ************************************************************************* //
