/*--------------------------------*- C++ -*----------------------------------*\
| =========                 |                                                 |
| \\      /  F ield         | OpenFOAM: The Open Source CFD Toolbox           |
|  \\    /   O peration     | Version:  dev                                   |
|   \\  /    A nd           | Web:      www.OpenFOAM.org                      |
|    \\/     M anipulation  |                                                 |
\*---------------------------------------------------------------------------*/
FoamFile
{
    version     2.0;
    format      ascii;
    class       volScalarField;
    location    "0.2";
    object      H2O2;
}
// * * * * * * * * * * * * * * * * * * * * * * * * * * * * * * * * * * * * * //

dimensions      [0 0 0 0 0 0 0];

internalField   nonuniform List<scalar> 
250
(
4.74355e-11
4.75508e-11
4.75372e-11
4.76657e-11
4.75633e-11
4.78959e-11
4.67367e-11
4.39298e-11
3.73637e-11
5.49955e-10
4.39262e-11
4.40516e-11
4.40117e-11
4.41715e-11
4.40673e-11
4.44503e-11
4.33595e-11
4.11844e-11
3.39806e-11
4.02443e-10
3.60869e-11
3.05808e-11
3.85499e-11
4.16073e-11
4.08276e-11
4.06905e-11
4.06484e-11
4.03465e-11
4.05248e-11
4.0238e-11
4.02571e-11
4.0384e-11
4.03277e-11
4.05142e-11
4.041e-11
4.08364e-11
3.98313e-11
3.82594e-11
3.08499e-11
2.88887e-10
2.73573e-11
2.90684e-11
3.5368e-11
3.79202e-11
3.70332e-11
3.68988e-11
3.68509e-11
3.65324e-11
3.67289e-11
3.6428e-11
3.64532e-11
3.65765e-11
3.65108e-11
3.67179e-11
3.6615e-11
3.7076e-11
3.61697e-11
3.51584e-11
2.78882e-11
2.03219e-10
2.24705e-11
2.71031e-11
3.20022e-11
3.40999e-11
3.31362e-11
3.30034e-11
3.29489e-11
3.26238e-11
3.28338e-11
3.25238e-11
3.25537e-11
3.26701e-11
3.26004e-11
3.28214e-11
3.27204e-11
3.3205e-11
3.24019e-11
3.18999e-11
2.50241e-11
1.45088e-10
1.95214e-11
2.50481e-11
2.85031e-11
3.01929e-11
2.91898e-11
2.90578e-11
2.89949e-11
2.86755e-11
2.88935e-11
2.85806e-11
2.86135e-11
2.87197e-11
2.86518e-11
2.88791e-11
2.87804e-11
2.92757e-11
2.85734e-11
2.85194e-11
2.23566e-11
1.02066e-10
1.74246e-11
2.26974e-11
2.49404e-11
2.62625e-11
2.52631e-11
2.51315e-11
2.5057e-11
2.4758e-11
2.49773e-11
2.46689e-11
2.47031e-11
2.47944e-11
2.4736e-11
2.49615e-11
2.4865e-11
2.53566e-11
2.47478e-11
2.50703e-11
1.96999e-11
6.92778e-11
1.56013e-11
2.01098e-11
2.14048e-11
2.23866e-11
2.14392e-11
2.13076e-11
2.1216e-11
2.09547e-11
2.11676e-11
2.08723e-11
2.09058e-11
2.09745e-11
2.09366e-11
2.11514e-11
2.10568e-11
2.15295e-11
2.10028e-11
2.1627e-11
1.7081e-11
4.9751e-11
1.37851e-11
1.73713e-11
1.77798e-11
1.86574e-11
1.7666e-11
1.75553e-11
1.756e-11
1.72104e-11
1.74272e-11
1.71393e-11
1.71823e-11
1.73468e-11
1.72026e-11
1.7417e-11
1.73318e-11
1.77669e-11
1.7424e-11
1.82847e-11
1.45244e-11
3.55446e-11
1.18984e-11
1.45986e-11
1.43419e-11
1.51731e-11
1.4285e-11
1.41839e-11
1.41811e-11
1.38767e-11
1.40751e-11
1.38145e-11
1.38544e-11
1.39991e-11
1.38738e-11
1.40655e-11
1.39862e-11
1.43746e-11
1.41031e-11
1.48271e-11
1.19565e-11
2.59202e-11
9.9718e-12
1.19173e-11
1.1385e-11
1.20192e-11
1.12514e-11
1.11631e-11
1.11562e-11
1.08993e-11
1.10746e-11
1.08466e-11
1.08822e-11
1.10058e-11
1.08991e-11
1.10653e-11
1.09941e-11
1.13295e-11
1.11189e-11
1.18762e-11
9.67398e-12
1.90721e-11
8.08756e-12
9.43587e-12
8.78326e-12
9.26195e-12
8.62273e-12
8.54899e-12
8.54095e-12
8.33088e-12
8.48025e-12
8.28773e-12
8.31818e-12
8.42068e-12
8.33148e-12
8.47079e-12
8.40978e-12
8.68868e-12
8.52946e-12
9.24648e-12
7.61855e-12
1.40994e-11
6.34033e-12
7.24199e-12
6.58367e-12
6.94055e-12
6.42907e-12
6.37005e-12
6.36283e-12
6.19647e-12
6.31906e-12
6.16243e-12
6.1874e-12
6.26948e-12
6.19693e-12
6.30938e-12
6.25945e-12
6.4822e-12
6.36545e-12
6.99272e-12
5.83577e-12
1.04151e-11
4.48378e-12
4.5472e-12
4.49015e-12
4.57736e-12
4.53838e-12
4.70877e-12
4.6267e-12
5.1383e-12
4.35123e-12
7.64476e-12
)
;

boundaryField
{
    fuel
    {
        type            fixedValue;
        value           nonuniform 0();
    }
    wall
    {
        type            zeroGradient;
    }
    outlet
    {
        type            zeroGradient;
    }
    frontAndBack
    {
        type            empty;
    }
    procBoundary0to1
    {
        type            processor;
        value           nonuniform List<scalar> 
21
(
4.80656e-12
5.38897e-12
4.79934e-12
5.06115e-12
4.66805e-12
4.62271e-12
4.61705e-12
4.48977e-12
4.58647e-12
4.46384e-12
4.46384e-12
3.17274e-12
3.22013e-12
3.17678e-12
3.24201e-12
3.21262e-12
3.33852e-12
3.28233e-12
3.67685e-12
3.16388e-12
5.56758e-12
)
;
    }
    procBoundary0to2
    {
        type            processor;
        value           nonuniform List<scalar> 
12
(
4.74314e-11
5.22933e-11
3.17563e-11
4.15129e-11
4.51286e-11
4.44808e-11
4.43401e-11
4.43027e-11
4.4027e-11
4.41827e-11
4.39142e-11
4.39142e-11
)
;
    }
    procBoundary0to3
    {
        type            processor;
        value           nonuniform List<scalar> 10(5.07722e-11 5.08672e-11 5.08867e-11 5.09856e-11 5.08853e-11 5.117e-11 4.99357e-11 4.69714e-11 4.10959e-11 7.39227e-10);
    }
}


// ************************************************************************* //
