/*--------------------------------*- C++ -*----------------------------------*\
| =========                 |                                                 |
| \\      /  F ield         | OpenFOAM: The Open Source CFD Toolbox           |
|  \\    /   O peration     | Version:  dev                                   |
|   \\  /    A nd           | Web:      www.OpenFOAM.org                      |
|    \\/     M anipulation  |                                                 |
\*---------------------------------------------------------------------------*/
FoamFile
{
    version     2.0;
    format      ascii;
    class       volScalarField;
    location    "0.2";
    object      HCCOH;
}
// * * * * * * * * * * * * * * * * * * * * * * * * * * * * * * * * * * * * * //

dimensions      [0 0 0 0 0 0 0];

internalField   nonuniform List<scalar> 
50
(
4.24334e-05
4.69169e-05
4.02057e-05
3.19929e-05
2.46575e-05
1.87364e-05
1.41522e-05
1.06425e-05
8.00146e-06
6.01709e-06
4.54031e-06
3.42197e-06
2.58071e-06
1.9472e-06
1.46954e-06
1.11214e-06
8.41248e-07
6.37467e-07
4.82487e-07
3.65202e-07
2.77316e-07
2.10251e-07
1.59891e-07
1.21687e-07
9.27128e-08
7.07112e-08
5.39849e-08
4.12083e-08
3.14272e-08
2.40403e-08
1.8364e-08
1.40274e-08
1.07477e-08
8.22691e-09
6.29752e-09
4.82394e-09
3.69818e-09
2.83786e-09
2.18009e-09
1.67693e-09
1.29176e-09
9.96685e-10
7.70403e-10
5.96678e-10
4.63126e-10
3.60303e-10
2.81003e-10
2.19727e-10
1.72277e-10
1.35456e-10
)
;

boundaryField
{
    wall
    {
        type            zeroGradient;
    }
    fuel
    {
        type            fixedValue;
        value           uniform 0;
    }
    outlet
    {
        type            inletOutlet;
        inletValue      nonuniform 0();
        value           nonuniform 0();
    }
    procBoundary0to1
    {
        type            processor;
        value           uniform 1.06799e-10;
    }
}


// ************************************************************************* //
