/*--------------------------------*- C++ -*----------------------------------*\
| =========                 |                                                 |
| \\      /  F ield         | OpenFOAM: The Open Source CFD Toolbox           |
|  \\    /   O peration     | Version:  dev                                   |
|   \\  /    A nd           | Web:      www.OpenFOAM.org                      |
|    \\/     M anipulation  |                                                 |
\*---------------------------------------------------------------------------*/
FoamFile
{
    version     2.0;
    format      ascii;
    class       volScalarField;
    location    "0.2";
    object      HCCOH;
}
// * * * * * * * * * * * * * * * * * * * * * * * * * * * * * * * * * * * * * //

dimensions      [0 0 0 0 0 0 0];

internalField   nonuniform List<scalar> 
250
(
6.29533e-06
6.30413e-06
6.3062e-06
6.31278e-06
6.30639e-06
6.3603e-06
6.38976e-06
6.65019e-06
6.23934e-06
4.48246e-06
6.01408e-06
6.02348e-06
6.02317e-06
6.0322e-06
6.02587e-06
6.07971e-06
6.10535e-06
6.36339e-06
5.99228e-06
4.47869e-06
4.86709e-06
6.15846e-06
6.02439e-06
5.96228e-06
5.80135e-06
5.7696e-06
5.76394e-06
5.74343e-06
5.75344e-06
5.73351e-06
5.73304e-06
5.74239e-06
5.74048e-06
5.75172e-06
5.74556e-06
5.79914e-06
5.82149e-06
6.0748e-06
5.73921e-06
4.46777e-06
4.93177e-06
5.91533e-06
5.73708e-06
5.67379e-06
5.51646e-06
5.48695e-06
5.48107e-06
5.45891e-06
5.47035e-06
5.44939e-06
5.44968e-06
5.45867e-06
5.45575e-06
5.46889e-06
5.4629e-06
5.51611e-06
5.53565e-06
5.7827e-06
5.47723e-06
4.44176e-06
4.92464e-06
5.6349e-06
5.44271e-06
5.37989e-06
5.22694e-06
5.19926e-06
5.19302e-06
5.16964e-06
5.18247e-06
5.16045e-06
5.16143e-06
5.16997e-06
5.16644e-06
5.18115e-06
5.17529e-06
5.22804e-06
5.24489e-06
5.48515e-06
5.20359e-06
4.39867e-06
4.85111e-06
5.36402e-06
5.13917e-06
5.07797e-06
4.93022e-06
4.90396e-06
4.8972e-06
4.87305e-06
4.88721e-06
4.86413e-06
4.86573e-06
4.87382e-06
4.86997e-06
4.88597e-06
4.88011e-06
4.93237e-06
4.94638e-06
5.18014e-06
4.93174e-06
4.32212e-06
4.71579e-06
5.07203e-06
4.82444e-06
4.76552e-06
4.6239e-06
4.59867e-06
4.59117e-06
4.56677e-06
4.5822e-06
4.55808e-06
4.56021e-06
4.56785e-06
4.56397e-06
4.58101e-06
4.57499e-06
4.62669e-06
4.63763e-06
4.86565e-06
4.64544e-06
4.19403e-06
4.52366e-06
4.75808e-06
4.49729e-06
4.4403e-06
4.30616e-06
4.28157e-06
4.27292e-06
4.24903e-06
4.2656e-06
4.24052e-06
4.24309e-06
4.25003e-06
4.24664e-06
4.26442e-06
4.25807e-06
4.30909e-06
4.31656e-06
4.54005e-06
4.34341e-06
4.04852e-06
4.27984e-06
4.42151e-06
4.14039e-06
4.10115e-06
3.96559e-06
3.94296e-06
3.94103e-06
3.90848e-06
3.92733e-06
3.90039e-06
3.90417e-06
3.91893e-06
3.90694e-06
3.92652e-06
3.92017e-06
3.97012e-06
3.98175e-06
4.20288e-06
4.02487e-06
3.85462e-06
3.98975e-06
4.06301e-06
3.76571e-06
3.74771e-06
3.61934e-06
3.59783e-06
3.59531e-06
3.56336e-06
3.58315e-06
3.55548e-06
3.5596e-06
3.57422e-06
3.5623e-06
3.58224e-06
3.57548e-06
3.62427e-06
3.63291e-06
3.82694e-06
3.67626e-06
3.6276e-06
3.65935e-06
3.68454e-06
3.3929e-06
3.3805e-06
3.25941e-06
3.23926e-06
3.2365e-06
3.20524e-06
3.22579e-06
3.19764e-06
3.20201e-06
3.21658e-06
3.20455e-06
3.2247e-06
3.21756e-06
3.26497e-06
3.27089e-06
3.45904e-06
3.32422e-06
3.36262e-06
3.29555e-06
3.28869e-06
3.00738e-06
3.00142e-06
2.88816e-06
2.86958e-06
2.86679e-06
2.83653e-06
2.85754e-06
2.82927e-06
2.8338e-06
2.84822e-06
2.83609e-06
2.85616e-06
2.84878e-06
2.89439e-06
2.89784e-06
3.07759e-06
2.95814e-06
3.06249e-06
2.90653e-06
2.87987e-06
2.61386e-06
2.6142e-06
2.50966e-06
2.49281e-06
2.49018e-06
2.46131e-06
2.48236e-06
2.45448e-06
2.45906e-06
2.47312e-06
2.46104e-06
2.48066e-06
2.47318e-06
2.51641e-06
2.51779e-06
2.68652e-06
2.58217e-06
2.73198e-06
2.08396e-06
2.09738e-06
2.08559e-06
2.10429e-06
2.09693e-06
2.137e-06
2.13683e-06
2.29159e-06
2.20237e-06
2.37822e-06
)
;

boundaryField
{
    fuel
    {
        type            fixedValue;
        value           nonuniform 0();
    }
    wall
    {
        type            zeroGradient;
    }
    outlet
    {
        type            zeroGradient;
    }
    frontAndBack
    {
        type            empty;
    }
    procBoundary0to1
    {
        type            processor;
        value           nonuniform List<scalar> 
21
(
2.5016e-06
2.46423e-06
2.2189e-06
2.22469e-06
2.13002e-06
2.11509e-06
2.11269e-06
2.0858e-06
2.10633e-06
2.07951e-06
2.07951e-06
1.71689e-06
1.72936e-06
1.71816e-06
1.7355e-06
1.72836e-06
1.76476e-06
1.76305e-06
1.90186e-06
1.82639e-06
2.0125e-06
)
;
    }
    procBoundary0to2
    {
        type            processor;
        value           nonuniform List<scalar> 
12
(
6.29813e-06
4.7226e-06
6.36629e-06
6.30674e-06
6.24782e-06
6.08417e-06
6.04991e-06
6.04429e-06
6.02598e-06
6.03443e-06
6.01559e-06
6.01559e-06
)
;
    }
    procBoundary0to3
    {
        type            processor;
        value           nonuniform List<scalar> 10(6.57914e-06 6.5866e-06 6.59145e-06 6.59586e-06 6.58943e-06 6.6438e-06 6.67566e-06 6.98345e-06 6.48342e-06 4.50287e-06);
    }
}


// ************************************************************************* //
