/*--------------------------------*- C++ -*----------------------------------*\
| =========                 |                                                 |
| \\      /  F ield         | OpenFOAM: The Open Source CFD Toolbox           |
|  \\    /   O peration     | Version:  dev                                   |
|   \\  /    A nd           | Web:      www.OpenFOAM.org                      |
|    \\/     M anipulation  |                                                 |
\*---------------------------------------------------------------------------*/
FoamFile
{
    version     2.0;
    format      ascii;
    class       volScalarField;
    location    "0.2";
    object      i-A1C2H2;
}
// * * * * * * * * * * * * * * * * * * * * * * * * * * * * * * * * * * * * * //

dimensions      [0 0 0 0 0 0 0];

internalField   nonuniform List<scalar> 
50
(
2.33113e-09
1.11272e-09
5.18143e-10
2.42592e-10
1.14167e-10
5.39121e-11
2.55384e-11
1.20595e-11
5.7104e-12
2.6973e-12
1.28031e-12
6.04727e-13
2.85414e-13
1.34605e-13
6.33792e-14
2.9976e-14
1.41374e-14
6.68367e-15
3.14679e-15
1.47835e-15
6.98442e-16
3.28327e-16
1.5535e-16
7.38139e-17
3.53673e-17
1.7217e-17
8.62539e-18
4.5231e-18
2.5394e-18
1.57071e-18
1.07166e-18
7.9987e-19
6.40045e-19
5.34509e-19
4.58002e-19
3.98185e-19
3.48875e-19
3.06904e-19
2.70536e-19
2.38725e-19
2.10767e-19
1.86138e-19
1.6442e-19
1.45261e-19
1.28354e-19
1.13433e-19
1.0026e-19
8.86254e-20
7.83413e-20
6.92427e-20
)
;

boundaryField
{
    wall
    {
        type            zeroGradient;
    }
    fuel
    {
        type            fixedValue;
        value           uniform 0;
    }
    outlet
    {
        type            inletOutlet;
        inletValue      nonuniform 0();
        value           nonuniform 0();
    }
    procBoundary0to1
    {
        type            processor;
        value           uniform 6.12642e-20;
    }
}


// ************************************************************************* //
