/*--------------------------------*- C++ -*----------------------------------*\
| =========                 |                                                 |
| \\      /  F ield         | OpenFOAM: The Open Source CFD Toolbox           |
|  \\    /   O peration     | Version:  dev                                   |
|   \\  /    A nd           | Web:      www.OpenFOAM.org                      |
|    \\/     M anipulation  |                                                 |
\*---------------------------------------------------------------------------*/
FoamFile
{
    version     2.0;
    format      ascii;
    class       volScalarField;
    location    "0.2";
    object      PC3H4;
}
// * * * * * * * * * * * * * * * * * * * * * * * * * * * * * * * * * * * * * //

dimensions      [0 0 0 0 0 0 0];

internalField   nonuniform List<scalar> 
50
(
3.4066e-07
2.32031e-07
1.50587e-07
9.68264e-08
6.23402e-08
4.03346e-08
2.62427e-08
1.70716e-08
1.11055e-08
7.20437e-09
4.67062e-09
3.00098e-09
1.91445e-09
1.21204e-09
7.61202e-10
4.76389e-10
2.95687e-10
1.82787e-10
1.1205e-10
6.82596e-11
4.15753e-11
2.51233e-11
1.51882e-11
9.15644e-12
5.50934e-12
3.30984e-12
1.98644e-12
1.18911e-12
7.09035e-13
4.24284e-13
2.52891e-13
1.50479e-13
8.99247e-14
5.36015e-14
3.19244e-14
1.90223e-14
1.13432e-14
6.7715e-15
4.04827e-15
2.42467e-15
1.45547e-15
8.75999e-16
5.28848e-16
3.20384e-16
1.94854e-16
1.19022e-16
7.30474e-17
4.50609e-17
2.7948e-17
1.74335e-17
)
;

boundaryField
{
    wall
    {
        type            zeroGradient;
    }
    fuel
    {
        type            fixedValue;
        value           uniform 0;
    }
    outlet
    {
        type            inletOutlet;
        inletValue      nonuniform 0();
        value           nonuniform 0();
    }
    procBoundary0to1
    {
        type            processor;
        value           uniform 1.0946e-17;
    }
}


// ************************************************************************* //
