# Probe 0 (0.5 0.5 0.5)
#       Probe             0
#        Time
        0.001         1.003
        0.002       1.00601
        0.003       1.00903
        0.004       1.01205
        0.005       1.01508
        0.006       1.01811
        0.007       1.02115
        0.008       1.02419
        0.009       1.02724
         0.01        1.0303
        0.011       1.03336
        0.012       1.03643
        0.013       1.03951
        0.014       1.04259
        0.015       1.04568
        0.016       1.04877
        0.017       1.05187
        0.018       1.05498
        0.019       1.05809
         0.02       1.06121
        0.021       1.06433
        0.022       1.06746
        0.023        1.0706
        0.024       1.07374
        0.025       1.07689
        0.026       1.08005
        0.027       1.08321
        0.028       1.08637
        0.029       1.08955
         0.03       1.09273
        0.031       1.09591
        0.032        1.0991
        0.033        1.1023
        0.034       1.10551
        0.035       1.10872
        0.036       1.11193
        0.037       1.11516
        0.038       1.11839
        0.039       1.12162
         0.04       1.12486
        0.041       1.12811
        0.042       1.13137
        0.043       1.13463
        0.044       1.13789
        0.045       1.14117
        0.046       1.14445
        0.047       1.14773
        0.048       1.15102
        0.049       1.15432
         0.05       1.15762
        0.051       1.16094
        0.052       1.16425
        0.053       1.16758
        0.054       1.17091
        0.055       1.17424
        0.056       1.17758
        0.057       1.18093
        0.058       1.18429
        0.059       1.18765
         0.06       1.19102
        0.061       1.19439
        0.062       1.19777
        0.063       1.20116
        0.064       1.20455
        0.065       1.20795
        0.066       1.21136
        0.067       1.21477
        0.068       1.21819
        0.069       1.22161
         0.07       1.22504
        0.071       1.22848
        0.072       1.23193
        0.073       1.23538
        0.074       1.23883
        0.075        1.2423
        0.076       1.24577
        0.077       1.24924
        0.078       1.25273
        0.079       1.25622
         0.08       1.25971
        0.081       1.26321
        0.082       1.26672
        0.083       1.27024
        0.084       1.27376
        0.085       1.27729
        0.086       1.28082
        0.087       1.28437
        0.088       1.28791
        0.089       1.29147
         0.09       1.29503
        0.091        1.2986
        0.092       1.30217
        0.093       1.30575
        0.094       1.30934
        0.095       1.31293
        0.096       1.31653
        0.097       1.32014
        0.098       1.32375
        0.099       1.32737
          0.1         1.331
        0.101       1.33463
        0.102       1.33827
        0.103       1.34192
        0.104       1.34557
        0.105       1.34923
        0.106        1.3529
        0.107       1.35657
        0.108       1.36025
        0.109       1.36394
         0.11       1.36763
        0.111       1.37133
        0.112       1.37504
        0.113       1.37875
        0.114       1.38247
        0.115        1.3862
        0.116       1.38993
        0.117       1.39367
        0.118       1.39742
        0.119       1.40117
         0.12       1.40493
        0.121       1.40869
        0.122       1.41247
        0.123       1.41625
        0.124       1.42003
        0.125       1.42383
        0.126       1.42763
        0.127       1.43144
        0.128       1.43525
        0.129       1.43907
         0.13        1.4429
        0.131       1.44673
        0.132       1.45057
        0.133       1.45442
        0.134       1.45827
        0.135       1.46214
        0.136         1.466
        0.137       1.46988
        0.138       1.47376
        0.139       1.47765
         0.14       1.48154
        0.141       1.48545
        0.142       1.48936
        0.143       1.49327
        0.144       1.49719
        0.145       1.50112
        0.146       1.50506
        0.147         1.509
        0.148       1.51295
        0.149       1.51691
         0.15       1.52087
        0.151       1.52485
        0.152       1.52882
        0.153       1.53281
        0.154        1.5368
        0.155        1.5408
        0.156        1.5448
        0.157       1.54882
        0.158       1.55284
        0.159       1.55686
         0.16        1.5609
        0.161       1.56494
        0.162       1.56898
        0.163       1.57304
        0.164        1.5771
        0.165       1.58117
        0.166       1.58524
        0.167       1.58932
        0.168       1.59341
        0.169       1.59751
         0.17       1.60161
        0.171       1.60572
        0.172       1.60984
        0.173       1.61396
        0.174        1.6181
        0.175       1.62223
        0.176       1.62638
        0.177       1.63053
        0.178       1.63469
        0.179       1.63886
         0.18       1.64303
        0.181       1.64721
        0.182        1.6514
        0.183        1.6556
        0.184        1.6598
        0.185       1.66401
        0.186       1.66822
        0.187       1.67245
        0.188       1.67668
        0.189       1.68091
         0.19       1.68516
        0.191       1.68941
        0.192       1.69367
        0.193       1.69794
        0.194       1.70221
        0.195       1.70649
        0.196       1.71078
        0.197       1.71507
        0.198       1.71937
        0.199       1.72368
          0.2         1.728
        0.201       1.73232
        0.202       1.73665
        0.203       1.74099
        0.204       1.74534
        0.205       1.74969
        0.206       1.75405
        0.207       1.75842
        0.208       1.76279
        0.209       1.76717
         0.21       1.77156
        0.211       1.77596
        0.212       1.78036
        0.213       1.78477
        0.214       1.78919
        0.215       1.79361
        0.216       1.79805
        0.217       1.80249
        0.218       1.80693
        0.219       1.81139
         0.22       1.81585
        0.221       1.82032
        0.222       1.82479
        0.223       1.82928
        0.224       1.83377
        0.225       1.83827
        0.226       1.84277
        0.227       1.84728
        0.228        1.8518
        0.229       1.85633
         0.23       1.86087
        0.231       1.86541
        0.232       1.86996
        0.233       1.87452
        0.234       1.87908
        0.235       1.88365
        0.236       1.88823
        0.237       1.89282
        0.238       1.89741
        0.239       1.90201
         0.24       1.90662
        0.241       1.91124
        0.242       1.91586
        0.243        1.9205
        0.244       1.92513
        0.245       1.92978
        0.246       1.93443
        0.247        1.9391
        0.248       1.94376
        0.249       1.94844
         0.25       1.95312
        0.251       1.95782
        0.252       1.96252
        0.253       1.96722
        0.254       1.97194
        0.255       1.97666
        0.256       1.98139
        0.257       1.98612
        0.258       1.99087
        0.259       1.99562
         0.26       2.00038
        0.261       2.00514
        0.262       2.00992
        0.263        2.0147
        0.264       2.01949
        0.265       2.02428
        0.266       2.02909
        0.267        2.0339
        0.268       2.03872
        0.269       2.04355
         0.27       2.04838
        0.271       2.05323
        0.272       2.05808
        0.273       2.06293
        0.274        2.0678
        0.275       2.07267
        0.276       2.07755
        0.277       2.08244
        0.278       2.08734
        0.279       2.09224
         0.28       2.09715
        0.281       2.10207
        0.282         2.107
        0.283       2.11193
        0.284       2.11687
        0.285       2.12182
        0.286       2.12678
        0.287       2.13175
        0.288       2.13672
        0.289        2.1417
         0.29       2.14669
        0.291       2.15169
        0.292       2.15669
        0.293        2.1617
        0.294       2.16672
        0.295       2.17175
        0.296       2.17678
        0.297       2.18183
        0.298       2.18688
        0.299       2.19193
          0.3         2.197
        0.301       2.20207
        0.302       2.20716
        0.303       2.21225
        0.304       2.21734
        0.305       2.22245
        0.306       2.22756
        0.307       2.23268
        0.308       2.23781
        0.309       2.24295
         0.31       2.24809
        0.311       2.25324
        0.312        2.2584
        0.313       2.26357
        0.314       2.26875
        0.315       2.27393
        0.316       2.27912
        0.317       2.28432
        0.318       2.28953
        0.319       2.29474
         0.32       2.29997
        0.321        2.3052
        0.322       2.31044
        0.323       2.31569
        0.324       2.32094
        0.325        2.3262
        0.326       2.33147
        0.327       2.33675
        0.328       2.34204
        0.329       2.34733
         0.33       2.35264
        0.331       2.35795
        0.332       2.36327
        0.333       2.36859
        0.334       2.37393
        0.335       2.37927
        0.336       2.38462
        0.337       2.38998
        0.338       2.39535
        0.339       2.40072
         0.34        2.4061
        0.341       2.41149
        0.342       2.41689
        0.343        2.4223
        0.344       2.42772
        0.345       2.43314
        0.346       2.43857
        0.347       2.44401
        0.348       2.44946
        0.349       2.45491
         0.35       2.46037
        0.351       2.46585
        0.352       2.47133
        0.353       2.47681
        0.354       2.48231
        0.355       2.48781
        0.356       2.49333
        0.357       2.49885
        0.358       2.50437
        0.359       2.50991
         0.36       2.51546
        0.361       2.52101
        0.362       2.52657
        0.363       2.53214
        0.364       2.53772
        0.365        2.5433
        0.366        2.5489
        0.367        2.5545
        0.368       2.56011
        0.369       2.56573
         0.37       2.57135
        0.371       2.57699
        0.372       2.58263
        0.373       2.58828
        0.374       2.59394
        0.375       2.59961
        0.376       2.60529
        0.377       2.61097
        0.378       2.61666
        0.379       2.62236
         0.38       2.62807
        0.381       2.63379
        0.382       2.63951
        0.383       2.64525
        0.384       2.65099
        0.385       2.65674
        0.386        2.6625
        0.387       2.66827
        0.388       2.67404
        0.389       2.67983
         0.39       2.68562
        0.391       2.69142
        0.392       2.69723
        0.393       2.70305
        0.394       2.70887
        0.395        2.7147
        0.396       2.72055
        0.397        2.7264
        0.398       2.73226
        0.399       2.73812
          0.4         2.744
        0.401       2.74988
        0.402       2.75578
        0.403       2.76168
        0.404       2.76759
        0.405       2.77351
        0.406       2.77943
        0.407       2.78537
        0.408       2.79131
        0.409       2.79726
         0.41       2.80322
        0.411       2.80919
        0.412       2.81517
        0.413       2.82115
        0.414       2.82715
        0.415       2.83315
        0.416       2.83916
        0.417       2.84518
        0.418       2.85121
        0.419       2.85724
         0.42       2.86329
        0.421       2.86934
        0.422        2.8754
        0.423       2.88147
        0.424       2.88755
        0.425       2.89364
        0.426       2.89974
        0.427       2.90584
        0.428       2.91195
        0.429       2.91808
         0.43       2.92421
        0.431       2.93035
        0.432       2.93649
        0.433       2.94265
        0.434       2.94881
        0.435       2.95499
        0.436       2.96117
        0.437       2.96736
        0.438       2.97356
        0.439       2.97977
         0.44       2.98598
        0.441       2.99221
        0.442       2.99844
        0.443       3.00469
        0.444       3.01094
        0.445        3.0172
        0.446       3.02346
        0.447       3.02974
        0.448       3.03603
        0.449       3.04232
         0.45       3.04862
        0.451       3.05494
        0.452       3.06126
        0.453       3.06759
        0.454       3.07392
        0.455       3.08027
        0.456       3.08663
        0.457       3.09299
        0.458       3.09936
        0.459       3.10575
         0.46       3.11214
        0.461       3.11854
        0.462       3.12494
        0.463       3.13136
        0.464       3.13779
        0.465       3.14422
        0.466       3.15066
        0.467       3.15711
        0.468       3.16358
        0.469       3.17004
         0.47       3.17652
        0.471       3.18301
        0.472       3.18951
        0.473       3.19601
        0.474       3.20252
        0.475       3.20905
        0.476       3.21558
        0.477       3.22212
        0.478       3.22867
        0.479       3.23523
         0.48       3.24179
        0.481       3.24837
        0.482       3.25495
        0.483       3.26155
        0.484       3.26815
        0.485       3.27476
        0.486       3.28138
        0.487       3.28801
        0.488       3.29465
        0.489       3.30129
         0.49       3.30795
        0.491       3.31461
        0.492       3.32129
        0.493       3.32797
        0.494       3.33466
        0.495       3.34136
        0.496       3.34807
        0.497       3.35479
        0.498       3.36152
        0.499       3.36825
          0.5         3.375
        0.501       3.38175
        0.502       3.38852
        0.503       3.39529
        0.504       3.40207
        0.505       3.40886
        0.506       3.41566
        0.507       3.42247
        0.508       3.42929
        0.509       3.43612
         0.51       3.44295
        0.511        3.4498
        0.512       3.45665
        0.513       3.46351
        0.514       3.47038
        0.515       3.47727
        0.516       3.48416
        0.517       3.49106
        0.518       3.49796
        0.519       3.50488
         0.52       3.51181
        0.521       3.51874
        0.522       3.52569
        0.523       3.53264
        0.524       3.53961
        0.525       3.54658
        0.526       3.55356
        0.527       3.56055
        0.528       3.56755
        0.529       3.57456
         0.53       3.58158
        0.531        3.5886
        0.532       3.59564
        0.533       3.60269
        0.534       3.60974
        0.535       3.61681
        0.536       3.62388
        0.537       3.63096
        0.538       3.63805
        0.539       3.64515
         0.54       3.65226
        0.541       3.65938
        0.542       3.66651
        0.543       3.67365
        0.544        3.6808
        0.545       3.68795
        0.546       3.69512
        0.547       3.70229
        0.548       3.70948
        0.549       3.71667
         0.55       3.72387
        0.551       3.73109
        0.552       3.73831
        0.553       3.74554
        0.554       3.75278
        0.555       3.76003
        0.556       3.76729
        0.557       3.77456
        0.558       3.78183
        0.559       3.78912
         0.56       3.79642
        0.561       3.80372
        0.562       3.81104
        0.563       3.81836
        0.564       3.82569
        0.565       3.83304
        0.566       3.84039
        0.567       3.84775
        0.568       3.85512
        0.569        3.8625
         0.57       3.86989
        0.571       3.87729
        0.572        3.8847
        0.573       3.89212
        0.574       3.89955
        0.575       3.90698
        0.576       3.91443
        0.577       3.92189
        0.578       3.92935
        0.579       3.93683
         0.58       3.94431
        0.581       3.95181
        0.582       3.95931
        0.583       3.96682
        0.584       3.97434
        0.585       3.98188
        0.586       3.98942
        0.587       3.99697
        0.588       4.00453
        0.589        4.0121
         0.59       4.01968
        0.591       4.02727
        0.592       4.03487
        0.593       4.04247
        0.594       4.05009
        0.595       4.05772
        0.596       4.06536
        0.597         4.073
        0.598       4.08066
        0.599       4.08832
          0.6         4.096
        0.601       4.10368
        0.602       4.11138
        0.603       4.11908
        0.604        4.1268
        0.605       4.13452
        0.606       4.14225
        0.607          4.15
        0.608       4.15775
        0.609       4.16551
         0.61       4.17328
        0.611       4.18106
        0.612       4.18885
        0.613       4.19665
        0.614       4.20446
        0.615       4.21228
        0.616       4.22011
        0.617       4.22795
        0.618        4.2358
        0.619       4.24366
         0.62       4.25153
        0.621       4.25941
        0.622       4.26729
        0.623       4.27519
        0.624        4.2831
        0.625       4.29102
        0.626       4.29894
        0.627       4.30688
        0.628       4.31483
        0.629       4.32278
         0.63       4.33075
        0.631       4.33872
        0.632       4.34671
        0.633        4.3547
        0.634       4.36271
        0.635       4.37072
        0.636       4.37875
        0.637       4.38678
        0.638       4.39483
        0.639       4.40288
         0.64       4.41094
        0.641       4.41902
        0.642        4.4271
        0.643       4.43519
        0.644        4.4433
        0.645       4.45141
        0.646       4.45953
        0.647       4.46767
        0.648       4.47581
        0.649       4.48396
         0.65       4.49212
        0.651        4.5003
        0.652       4.50848
        0.653       4.51667
        0.654       4.52487
        0.655       4.53309
        0.656       4.54131
        0.657       4.54954
        0.658       4.55778
        0.659       4.56603
         0.66        4.5743
        0.661       4.58257
        0.662       4.59085
        0.663       4.59914
        0.664       4.60744
        0.665       4.61575
        0.666       4.62408
        0.667       4.63241
        0.668       4.64075
        0.669        4.6491
         0.67       4.65746
        0.671       4.66583
        0.672       4.67422
        0.673       4.68261
        0.674       4.69101
        0.675       4.69942
        0.676       4.70784
        0.677       4.71628
        0.678       4.72472
        0.679       4.73317
         0.68       4.74163
        0.681        4.7501
        0.682       4.75859
        0.683       4.76708
        0.684       4.77558
        0.685       4.78409
        0.686       4.79262
        0.687       4.80115
        0.688       4.80969
        0.689       4.81825
         0.69       4.82681
        0.691       4.83538
        0.692       4.84397
        0.693       4.85256
        0.694       4.86116
        0.695       4.86978
        0.696        4.8784
        0.697       4.88704
        0.698       4.89568
        0.699       4.90434
          0.7         4.913
        0.701       4.92168
        0.702       4.93036
        0.703       4.93906
        0.704       4.94776
        0.705       4.95648
        0.706        4.9652
        0.707       4.97394
        0.708       4.98269
        0.709       4.99144
         0.71       5.00021
        0.711       5.00899
        0.712       5.01778
        0.713       5.02657
        0.714       5.03538
        0.715        5.0442
        0.716       5.05303
        0.717       5.06187
        0.718       5.07072
        0.719       5.07958
         0.72       5.08845
        0.721       5.09733
        0.722       5.10622
        0.723       5.11512
        0.724       5.12403
        0.725       5.13295
        0.726       5.14189
        0.727       5.15083
        0.728       5.15978
        0.729       5.16874
         0.73       5.17772
        0.731        5.1867
        0.732        5.1957
        0.733        5.2047
        0.734       5.21371
        0.735       5.22274
        0.736       5.23178
        0.737       5.24082
        0.738       5.24988
        0.739       5.25895
         0.74       5.26802
        0.741       5.27711
        0.742       5.28621
        0.743       5.29532
        0.744       5.30444
        0.745       5.31357
        0.746       5.32271
        0.747       5.33186
        0.748       5.34102
        0.749       5.35019
         0.75       5.35937
        0.751       5.36857
        0.752       5.37777
        0.753       5.38698
        0.754       5.39621
        0.755       5.40544
        0.756       5.41469
        0.757       5.42395
        0.758       5.43321
        0.759       5.44249
         0.76       5.45178
        0.761       5.46107
        0.762       5.47038
        0.763        5.4797
        0.764       5.48903
        0.765       5.49837
        0.766       5.50772
        0.767       5.51708
        0.768       5.52646
        0.769       5.53584
         0.77       5.54523
        0.771       5.55464
        0.772       5.56405
        0.773       5.57348
        0.774       5.58291
        0.775       5.59236
        0.776       5.60182
        0.777       5.61128
        0.778       5.62076
        0.779       5.63025
         0.78       5.63975
        0.781       5.64926
        0.782       5.65878
        0.783       5.66832
        0.784       5.67786
        0.785       5.68741
        0.786       5.69698
        0.787       5.70655
        0.788       5.71614
        0.789       5.72573
         0.79       5.73534
        0.791       5.74496
        0.792       5.75459
        0.793       5.76422
        0.794       5.77387
        0.795       5.78353
        0.796       5.79321
        0.797       5.80289
        0.798       5.81258
        0.799       5.82229
          0.8         5.832
        0.801       5.84173
        0.802       5.85146
        0.803       5.86121
        0.804       5.87097
        0.805       5.88074
        0.806       5.89051
        0.807        5.9003
        0.808       5.91011
        0.809       5.91992
         0.81       5.92974
        0.811       5.93957
        0.812       5.94942
        0.813       5.95927
        0.814       5.96914
        0.815       5.97902
        0.816       5.98891
        0.817       5.99881
        0.818       6.00872
        0.819       6.01864
         0.82       6.02857
        0.821       6.03851
        0.822       6.04846
        0.823       6.05843
        0.824        6.0684
        0.825       6.07839
        0.826       6.08839
        0.827        6.0984
        0.828       6.10842
        0.829       6.11845
         0.83       6.12849
        0.831       6.13854
        0.832        6.1486
        0.833       6.15868
        0.834       6.16876
        0.835       6.17886
        0.836       6.18897
        0.837       6.19908
        0.838       6.20921
        0.839       6.21935
         0.84        6.2295
        0.841       6.23967
        0.842       6.24984
        0.843       6.26002
        0.844       6.27022
        0.845       6.28043
        0.846       6.29064
        0.847       6.30087
        0.848       6.31111
        0.849       6.32136
         0.85       6.33162
        0.851        6.3419
        0.852       6.35218
        0.853       6.36248
        0.854       6.37278
        0.855        6.3831
        0.856       6.39343
        0.857       6.40377
        0.858       6.41412
        0.859       6.42448
         0.86       6.43486
        0.861       6.44524
        0.862       6.45564
        0.863       6.46604
        0.864       6.47646
        0.865       6.48689
        0.866       6.49733
        0.867       6.50778
        0.868       6.51824
        0.869       6.52872
         0.87        6.5392
        0.871        6.5497
        0.872       6.56021
        0.873       6.57073
        0.874       6.58126
        0.875        6.5918
        0.876       6.60235
        0.877       6.61291
        0.878       6.62349
        0.879       6.63407
         0.88       6.64467
        0.881       6.65528
        0.882        6.6659
        0.883       6.67653
        0.884       6.68718
        0.885       6.69783
        0.886       6.70849
        0.887       6.71917
        0.888       6.72986
        0.889       6.74056
         0.89       6.75127
        0.891       6.76199
        0.892       6.77272
        0.893       6.78347
        0.894       6.79422
        0.895       6.80499
        0.896       6.81577
        0.897       6.82656
        0.898       6.83736
        0.899       6.84818
          0.9         6.859
        0.901       6.86984
        0.902       6.88068
        0.903       6.89154
        0.904       6.90241
        0.905       6.91329
        0.906       6.92419
        0.907       6.93509
        0.908       6.94601
        0.909       6.95693
         0.91       6.96787
        0.911       6.97882
        0.912       6.98978
        0.913       7.00076
        0.914       7.01174
        0.915       7.02274
        0.916       7.03374
        0.917       7.04476
        0.918       7.05579
        0.919       7.06683
         0.92       7.07789
        0.921       7.08895
        0.922       7.10003
        0.923       7.11112
        0.924       7.12222
        0.925       7.13333
        0.926       7.14445
        0.927       7.15558
        0.928       7.16673
        0.929       7.17789
         0.93       7.18906
        0.931       7.20024
        0.932       7.21143
        0.933       7.22263
        0.934       7.23385
        0.935       7.24508
        0.936       7.25631
        0.937       7.26756
        0.938       7.27883
        0.939        7.2901
         0.94       7.30138
        0.941       7.31268
        0.942       7.32399
        0.943       7.33531
        0.944       7.34664
        0.945       7.35798
        0.946       7.36934
        0.947       7.38071
        0.948       7.39208
        0.949       7.40347
         0.95       7.41487
        0.951       7.42629
        0.952       7.43771
        0.953       7.44915
        0.954        7.4606
        0.955       7.47206
        0.956       7.48353
        0.957       7.49501
        0.958       7.50651
        0.959       7.51802
         0.96       7.52954
        0.961       7.54107
        0.962       7.55261
        0.963       7.56416
        0.964       7.57573
        0.965       7.58731
        0.966        7.5989
        0.967        7.6105
        0.968       7.62211
        0.969       7.63374
         0.97       7.64537
        0.971       7.65702
        0.972       7.66868
        0.973       7.68035
        0.974       7.69204
        0.975       7.70373
        0.976       7.71544
        0.977       7.72716
        0.978       7.73889
        0.979       7.75064
         0.98       7.76239
        0.981       7.77416
        0.982       7.78594
        0.983       7.79773
        0.984       7.80953
        0.985       7.82135
        0.986       7.83317
        0.987       7.84501
        0.988       7.85686
        0.989       7.86872
         0.99        7.8806
        0.991       7.89249
        0.992       7.90438
        0.993       7.91629
        0.994       7.92822
        0.995       7.94015
        0.996        7.9521
        0.997       7.96405
        0.998       7.97602
        0.999       7.98801
            1             8
