# Probe 0 (0.5 0.5 0.5)
#       Probe             0
#        Time
        0.001       1.00401
        0.002       1.00802
        0.003       1.01205
        0.004        1.0161
        0.005       1.02015
        0.006       1.02422
        0.007        1.0283
        0.008       1.03239
        0.009       1.03649
         0.01        1.0406
        0.011       1.04473
        0.012       1.04887
        0.013       1.05302
        0.014       1.05719
        0.015       1.06136
        0.016       1.06555
        0.017       1.06975
        0.018       1.07397
        0.019       1.07819
         0.02       1.08243
        0.021       1.08668
        0.022       1.09095
        0.023       1.09522
        0.024       1.09951
        0.025       1.10381
        0.026       1.10813
        0.027       1.11245
        0.028       1.11679
        0.029       1.12114
         0.03       1.12551
        0.031       1.12989
        0.032       1.13428
        0.033       1.13868
        0.034       1.14309
        0.035       1.14752
        0.036       1.15196
        0.037       1.15642
        0.038       1.16089
        0.039       1.16537
         0.04       1.16986
        0.041       1.17436
        0.042       1.17888
        0.043       1.18342
        0.044       1.18796
        0.045       1.19252
        0.046       1.19709
        0.047       1.20167
        0.048       1.20627
        0.049       1.21088
         0.05       1.21551
        0.051       1.22014
        0.052       1.22479
        0.053       1.22946
        0.054       1.23413
        0.055       1.23882
        0.056       1.24353
        0.057       1.24825
        0.058       1.25298
        0.059       1.25772
         0.06       1.26248
        0.061       1.26725
        0.062       1.27203
        0.063       1.27683
        0.064       1.28164
        0.065       1.28647
        0.066        1.2913
        0.067       1.29616
        0.068       1.30102
        0.069        1.3059
         0.07        1.3108
        0.071        1.3157
        0.072       1.32062
        0.073       1.32556
        0.074       1.33051
        0.075       1.33547
        0.076       1.34045
        0.077       1.34544
        0.078       1.35044
        0.079       1.35546
         0.08       1.36049
        0.081       1.36553
        0.082       1.37059
        0.083       1.37567
        0.084       1.38076
        0.085       1.38586
        0.086       1.39097
        0.087       1.39611
        0.088       1.40125
        0.089       1.40641
         0.09       1.41158
        0.091       1.41677
        0.092       1.42197
        0.093       1.42719
        0.094       1.43242
        0.095       1.43766
        0.096       1.44292
        0.097       1.44819
        0.098       1.45348
        0.099       1.45878
          0.1        1.4641
        0.101       1.46943
        0.102       1.47478
        0.103       1.48014
        0.104       1.48551
        0.105        1.4909
        0.106       1.49631
        0.107       1.50173
        0.108       1.50716
        0.109       1.51261
         0.11       1.51807
        0.111       1.52355
        0.112       1.52904
        0.113       1.53455
        0.114       1.54007
        0.115       1.54561
        0.116       1.55116
        0.117       1.55673
        0.118       1.56231
        0.119       1.56791
         0.12       1.57352
        0.121       1.57915
        0.122       1.58479
        0.123       1.59045
        0.124       1.59612
        0.125       1.60181
        0.126       1.60751
        0.127       1.61323
        0.128       1.61896
        0.129       1.62471
         0.13       1.63047
        0.131       1.63625
        0.132       1.64205
        0.133       1.64786
        0.134       1.65368
        0.135       1.65952
        0.136       1.66538
        0.137       1.67125
        0.138       1.67714
        0.139       1.68304
         0.14       1.68896
        0.141       1.69489
        0.142       1.70084
        0.143       1.70681
        0.144       1.71279
        0.145       1.71879
        0.146        1.7248
        0.147       1.73083
        0.148       1.73687
        0.149       1.74293
         0.15       1.74901
        0.151        1.7551
        0.152       1.76121
        0.153       1.76733
        0.154       1.77347
        0.155       1.77962
        0.156       1.78579
        0.157       1.79198
        0.158       1.79818
        0.159        1.8044
         0.16       1.81064
        0.161       1.81689
        0.162       1.82316
        0.163       1.82944
        0.164       1.83574
        0.165       1.84206
        0.166       1.84839
        0.167       1.85474
        0.168       1.86111
        0.169       1.86749
         0.17       1.87389
        0.171        1.8803
        0.172       1.88673
        0.173       1.89318
        0.174       1.89964
        0.175       1.90613
        0.176       1.91262
        0.177       1.91914
        0.178       1.92567
        0.179       1.93221
         0.18       1.93878
        0.181       1.94536
        0.182       1.95196
        0.183       1.95857
        0.184        1.9652
        0.185       1.97185
        0.186       1.97851
        0.187       1.98519
        0.188       1.99189
        0.189       1.99861
         0.19       2.00534
        0.191       2.01209
        0.192       2.01885
        0.193       2.02564
        0.194       2.03244
        0.195       2.03926
        0.196       2.04609
        0.197       2.05294
        0.198       2.05981
        0.199        2.0667
          0.2        2.0736
        0.201       2.08052
        0.202       2.08746
        0.203       2.09441
        0.204       2.10139
        0.205       2.10838
        0.206       2.11538
        0.207       2.12241
        0.208       2.12945
        0.209       2.13651
         0.21       2.14359
        0.211       2.15068
        0.212        2.1578
        0.213       2.16493
        0.214       2.17207
        0.215       2.17924
        0.216       2.18642
        0.217       2.19362
        0.218       2.20084
        0.219       2.20808
         0.22       2.21533
        0.221       2.22261
        0.222        2.2299
        0.223       2.23721
        0.224       2.24453
        0.225       2.25188
        0.226       2.25924
        0.227       2.26662
        0.228       2.27402
        0.229       2.28143
         0.23       2.28887
        0.231       2.29632
        0.232       2.30379
        0.233       2.31128
        0.234       2.31879
        0.235       2.32631
        0.236       2.33386
        0.237       2.34142
        0.238         2.349
        0.239        2.3566
         0.24       2.36421
        0.241       2.37185
        0.242        2.3795
        0.243       2.38718
        0.244       2.39487
        0.245       2.40258
        0.246       2.41031
        0.247       2.41805
        0.248       2.42582
        0.249        2.4336
         0.25       2.44141
        0.251       2.44923
        0.252       2.45707
        0.253       2.46493
        0.254       2.47281
        0.255        2.4807
        0.256       2.48862
        0.257       2.49655
        0.258       2.50451
        0.259       2.51248
         0.26       2.52047
        0.261       2.52848
        0.262       2.53651
        0.263       2.54456
        0.264       2.55263
        0.265       2.56072
        0.266       2.56883
        0.267       2.57695
        0.268        2.5851
        0.269       2.59326
         0.27       2.60145
        0.271       2.60965
        0.272       2.61787
        0.273       2.62611
        0.274       2.63438
        0.275       2.64266
        0.276       2.65096
        0.277       2.65928
        0.278       2.66762
        0.279       2.67598
         0.28       2.68435
        0.281       2.69275
        0.282       2.70117
        0.283       2.70961
        0.284       2.71807
        0.285       2.72654
        0.286       2.73504
        0.287       2.74356
        0.288        2.7521
        0.289       2.76065
         0.29       2.76923
        0.291       2.77783
        0.292       2.78644
        0.293       2.79508
        0.294       2.80374
        0.295       2.81241
        0.296       2.82111
        0.297       2.82983
        0.298       2.83856
        0.299       2.84732
          0.3        2.8561
        0.301        2.8649
        0.302       2.87372
        0.303       2.88256
        0.304       2.89141
        0.305       2.90029
        0.306       2.90919
        0.307       2.91811
        0.308       2.92706
        0.309       2.93602
         0.31         2.945
        0.311         2.954
        0.312       2.96303
        0.313       2.97207
        0.314       2.98113
        0.315       2.99022
        0.316       2.99933
        0.317       3.00845
        0.318        3.0176
        0.319       3.02677
         0.32       3.03596
        0.321       3.04517
        0.322        3.0544
        0.323       3.06365
        0.324       3.07292
        0.325       3.08222
        0.326       3.09153
        0.327       3.10087
        0.328       3.11023
        0.329       3.11961
         0.33       3.12901
        0.331       3.13843
        0.332       3.14787
        0.333       3.15733
        0.334       3.16682
        0.335       3.17633
        0.336       3.18585
        0.337        3.1954
        0.338       3.20497
        0.339       3.21457
         0.34       3.22418
        0.341       3.23381
        0.342       3.24347
        0.343       3.25315
        0.344       3.26285
        0.345       3.27257
        0.346       3.28231
        0.347       3.29208
        0.348       3.30187
        0.349       3.31168
         0.35       3.32151
        0.351       3.33136
        0.352       3.34123
        0.353       3.35113
        0.354       3.36105
        0.355       3.37099
        0.356       3.38095
        0.357       3.39093
        0.358       3.40094
        0.359       3.41097
         0.36       3.42102
        0.361       3.43109
        0.362       3.44119
        0.363       3.45131
        0.364       3.46145
        0.365       3.47161
        0.366       3.48179
        0.367         3.492
        0.368       3.50223
        0.369       3.51248
         0.37       3.52275
        0.371       3.53305
        0.372       3.54337
        0.373       3.55371
        0.374       3.56408
        0.375       3.57446
        0.376       3.58487
        0.377       3.59531
        0.378       3.60576
        0.379       3.61624
         0.38       3.62674
        0.381       3.63726
        0.382       3.64781
        0.383       3.65838
        0.384       3.66897
        0.385       3.67959
        0.386       3.69023
        0.387       3.70089
        0.388       3.71157
        0.389       3.72228
         0.39       3.73301
        0.391       3.74376
        0.392       3.75454
        0.393       3.76534
        0.394       3.77617
        0.395       3.78701
        0.396       3.79788
        0.397       3.80878
        0.398       3.81969
        0.399       3.83064
          0.4        3.8416
        0.401       3.85259
        0.402        3.8636
        0.403       3.87463
        0.404       3.88569
        0.405       3.89677
        0.406       3.90788
        0.407       3.91901
        0.408       3.93016
        0.409       3.94134
         0.41       3.95254
        0.411       3.96377
        0.412       3.97502
        0.413       3.98629
        0.414       3.99758
        0.415        4.0089
        0.416       4.02025
        0.417       4.03162
        0.418       4.04301
        0.419       4.05443
         0.42       4.06587
        0.421       4.07733
        0.422       4.08882
        0.423       4.10034
        0.424       4.11188
        0.425       4.12344
        0.426       4.13502
        0.427       4.14664
        0.428       4.15827
        0.429       4.16993
         0.43       4.18162
        0.431       4.19333
        0.432       4.20506
        0.433       4.21682
        0.434        4.2286
        0.435       4.24041
        0.436       4.25224
        0.437        4.2641
        0.438       4.27598
        0.439       4.28789
         0.44       4.29982
        0.441       4.31177
        0.442       4.32375
        0.443       4.33576
        0.444       4.34779
        0.445       4.35985
        0.446       4.37193
        0.447       4.38404
        0.448       4.39617
        0.449       4.40832
         0.45       4.42051
        0.451       4.43271
        0.452       4.44495
        0.453        4.4572
        0.454       4.46949
        0.455       4.48179
        0.456       4.49413
        0.457       4.50649
        0.458       4.51887
        0.459       4.53128
         0.46       4.54372
        0.461       4.55618
        0.462       4.56867
        0.463       4.58118
        0.464       4.59372
        0.465       4.60628
        0.466       4.61887
        0.467       4.63149
        0.468       4.64413
        0.469        4.6568
         0.47       4.66949
        0.471       4.68221
        0.472       4.69495
        0.473       4.70772
        0.474       4.72052
        0.475       4.73334
        0.476       4.74619
        0.477       4.75907
        0.478       4.77197
        0.479        4.7849
         0.48       4.79785
        0.481       4.81083
        0.482       4.82384
        0.483       4.83687
        0.484       4.84993
        0.485       4.86302
        0.486       4.87613
        0.487       4.88927
        0.488       4.90243
        0.489       4.91563
         0.49       4.92884
        0.491       4.94209
        0.492       4.95536
        0.493       4.96866
        0.494       4.98198
        0.495       4.99534
        0.496       5.00872
        0.497       5.02212
        0.498       5.03555
        0.499       5.04901
          0.5        5.0625
        0.501       5.07601
        0.502       5.08955
        0.503       5.10312
        0.504       5.11672
        0.505       5.13034
        0.506       5.14399
        0.507       5.15766
        0.508       5.17137
        0.509        5.1851
         0.51       5.19886
        0.511       5.21264
        0.512       5.22645
        0.513       5.24029
        0.514       5.25416
        0.515       5.26806
        0.516       5.28198
        0.517       5.29593
        0.518       5.30991
        0.519       5.32391
         0.52       5.33795
        0.521       5.35201
        0.522        5.3661
        0.523       5.38021
        0.524       5.39436
        0.525       5.40853
        0.526       5.42273
        0.527       5.43696
        0.528       5.45122
        0.529        5.4655
         0.53       5.47981
        0.531       5.49415
        0.532       5.50852
        0.533       5.52292
        0.534       5.53734
        0.535        5.5518
        0.536       5.56628
        0.537       5.58079
        0.538       5.59533
        0.539       5.60989
         0.54       5.62449
        0.541       5.63911
        0.542       5.65376
        0.543       5.66844
        0.544       5.68315
        0.545       5.69789
        0.546       5.71265
        0.547       5.72745
        0.548       5.74227
        0.549       5.75713
         0.55       5.77201
        0.551       5.78692
        0.552       5.80185
        0.553       5.81682
        0.554       5.83182
        0.555       5.84684
        0.556        5.8619
        0.557       5.87698
        0.558        5.8921
        0.559       5.90724
         0.56       5.92241
        0.561       5.93761
        0.562       5.95284
        0.563        5.9681
        0.564       5.98339
        0.565        5.9987
        0.566       6.01405
        0.567       6.02943
        0.568       6.04483
        0.569       6.06027
         0.57       6.07573
        0.571       6.09123
        0.572       6.10675
        0.573        6.1223
        0.574       6.13789
        0.575        6.1535
        0.576       6.16914
        0.577       6.18482
        0.578       6.20052
        0.579       6.21625
         0.58       6.23201
        0.581       6.24781
        0.582       6.26363
        0.583       6.27948
        0.584       6.29536
        0.585       6.31127
        0.586       6.32722
        0.587       6.34319
        0.588       6.35919
        0.589       6.37523
         0.59       6.39129
        0.591       6.40738
        0.592       6.42351
        0.593       6.43966
        0.594       6.45585
        0.595       6.47206
        0.596       6.48831
        0.597       6.50459
        0.598       6.52089
        0.599       6.53723
          0.6        6.5536
        0.601          6.57
        0.602       6.58643
        0.603       6.60289
        0.604       6.61938
        0.605        6.6359
        0.606       6.65246
        0.607       6.66904
        0.608       6.68566
        0.609        6.7023
         0.61       6.71898
        0.611       6.73569
        0.612       6.75243
        0.613        6.7692
        0.614         6.786
        0.615       6.80284
        0.616        6.8197
        0.617        6.8366
        0.618       6.85353
        0.619       6.87048
         0.62       6.88748
        0.621        6.9045
        0.622       6.92155
        0.623       6.93864
        0.624       6.95575
        0.625        6.9729
        0.626       6.99008
        0.627       7.00729
        0.628       7.02454
        0.629       7.04181
         0.63       7.05912
        0.631       7.07646
        0.632       7.09383
        0.633       7.11123
        0.634       7.12867
        0.635       7.14613
        0.636       7.16363
        0.637       7.18116
        0.638       7.19873
        0.639       7.21632
         0.64       7.23395
        0.641       7.25161
        0.642        7.2693
        0.643       7.28702
        0.644       7.30478
        0.645       7.32257
        0.646       7.34039
        0.647       7.35825
        0.648       7.37613
        0.649       7.39405
         0.65       7.41201
        0.651       7.42999
        0.652       7.44801
        0.653       7.46606
        0.654       7.48414
        0.655       7.50226
        0.656       7.52041
        0.657       7.53859
        0.658        7.5568
        0.659       7.57505
         0.66       7.59333
        0.661       7.61165
        0.662       7.62999
        0.663       7.64837
        0.664       7.66679
        0.665       7.68523
        0.666       7.70371
        0.667       7.72222
        0.668       7.74077
        0.669       7.75935
         0.67       7.77796
        0.671       7.79661
        0.672       7.81529
        0.673         7.834
        0.674       7.85275
        0.675       7.87153
        0.676       7.89035
        0.677       7.90919
        0.678       7.92808
        0.679       7.94699
         0.68       7.96594
        0.681       7.98493
        0.682       8.00394
        0.683       8.02299
        0.684       8.04208
        0.685        8.0612
        0.686       8.08035
        0.687       8.09954
        0.688       8.11876
        0.689       8.13802
         0.69       8.15731
        0.691       8.17663
        0.692       8.19599
        0.693       8.21538
        0.694       8.23481
        0.695       8.25427
        0.696       8.27377
        0.697        8.2933
        0.698       8.31287
        0.699       8.33247
          0.7        8.3521
        0.701       8.37177
        0.702       8.39147
        0.703       8.41121
        0.704       8.43099
        0.705       8.45079
        0.706       8.47064
        0.707       8.49052
        0.708       8.51043
        0.709       8.53038
         0.71       8.55036
        0.711       8.57038
        0.712       8.59043
        0.713       8.61052
        0.714       8.63065
        0.715        8.6508
        0.716         8.671
        0.717       8.69123
        0.718       8.71149
        0.719       8.73179
         0.72       8.75213
        0.721        8.7725
        0.722       8.79291
        0.723       8.81335
        0.724       8.83383
        0.725       8.85434
        0.726       8.87489
        0.727       8.89548
        0.728        8.9161
        0.729       8.93676
         0.73       8.95745
        0.731       8.97818
        0.732       8.99894
        0.733       9.01974
        0.734       9.04058
        0.735       9.06145
        0.736       9.08236
        0.737       9.10331
        0.738       9.12429
        0.739       9.14531
         0.74       9.16636
        0.741       9.18745
        0.742       9.20858
        0.743       9.22974
        0.744       9.25094
        0.745       9.27218
        0.746       9.29345
        0.747       9.31476
        0.748        9.3361
        0.749       9.35749
         0.75       9.37891
        0.751       9.40036
        0.752       9.42185
        0.753       9.44338
        0.754       9.46495
        0.755       9.48655
        0.756       9.50819
        0.757       9.52987
        0.758       9.55159
        0.759       9.57334
         0.76       9.59513
        0.761       9.61695
        0.762       9.63881
        0.763       9.66071
        0.764       9.68265
        0.765       9.70463
        0.766       9.72664
        0.767       9.74869
        0.768       9.77078
        0.769        9.7929
         0.77       9.81506
        0.771       9.83726
        0.772        9.8595
        0.773       9.88177
        0.774       9.90409
        0.775       9.92644
        0.776       9.94883
        0.777       9.97125
        0.778       9.99372
        0.779       10.0162
         0.78       10.0388
        0.781       10.0613
        0.782        10.084
        0.783       10.1066
        0.784       10.1293
        0.785        10.152
        0.786       10.1748
        0.787       10.1976
        0.788       10.2205
        0.789       10.2433
         0.79       10.2663
        0.791       10.2892
        0.792       10.3122
        0.793       10.3353
        0.794       10.3583
        0.795       10.3814
        0.796       10.4046
        0.797       10.4278
        0.798        10.451
        0.799       10.4743
          0.8       10.4976
        0.801       10.5209
        0.802       10.5443
        0.803       10.5678
        0.804       10.5912
        0.805       10.6147
        0.806       10.6383
        0.807       10.6619
        0.808       10.6855
        0.809       10.7091
         0.81       10.7328
        0.811       10.7566
        0.812       10.7803
        0.813       10.8042
        0.814        10.828
        0.815       10.8519
        0.816       10.8759
        0.817       10.8998
        0.818       10.9238
        0.819       10.9479
         0.82        10.972
        0.821       10.9961
        0.822       11.0203
        0.823       11.0445
        0.824       11.0688
        0.825       11.0931
        0.826       11.1174
        0.827       11.1418
        0.828       11.1662
        0.829       11.1906
         0.83       11.2151
        0.831       11.2397
        0.832       11.2642
        0.833       11.2889
        0.834       11.3135
        0.835       11.3382
        0.836       11.3629
        0.837       11.3877
        0.838       11.4125
        0.839       11.4374
         0.84       11.4623
        0.841       11.4872
        0.842       11.5122
        0.843       11.5372
        0.844       11.5623
        0.845       11.5874
        0.846       11.6125
        0.847       11.6377
        0.848       11.6629
        0.849       11.6882
         0.85       11.7135
        0.851       11.7389
        0.852       11.7642
        0.853       11.7897
        0.854       11.8151
        0.855       11.8407
        0.856       11.8662
        0.857       11.8918
        0.858       11.9174
        0.859       11.9431
         0.86       11.9688
        0.861       11.9946
        0.862       12.0204
        0.863       12.0462
        0.864       12.0721
        0.865        12.098
        0.866        12.124
        0.867         12.15
        0.868       12.1761
        0.869       12.2022
         0.87       12.2283
        0.871       12.2545
        0.872       12.2807
        0.873        12.307
        0.874       12.3333
        0.875       12.3596
        0.876        12.386
        0.877       12.4124
        0.878       12.4389
        0.879       12.4654
         0.88        12.492
        0.881       12.5186
        0.882       12.5452
        0.883       12.5719
        0.884       12.5986
        0.885       12.6254
        0.886       12.6522
        0.887       12.6791
        0.888        12.706
        0.889       12.7329
         0.89       12.7599
        0.891       12.7869
        0.892        12.814
        0.893       12.8411
        0.894       12.8683
        0.895       12.8955
        0.896       12.9227
        0.897         12.95
        0.898       12.9773
        0.899       13.0047
          0.9       13.0321
        0.901       13.0596
        0.902       13.0871
        0.903       13.1146
        0.904       13.1422
        0.905       13.1698
        0.906       13.1975
        0.907       13.2252
        0.908        13.253
        0.909       13.2808
         0.91       13.3086
        0.911       13.3365
        0.912       13.3645
        0.913       13.3924
        0.914       13.4205
        0.915       13.4485
        0.916       13.4767
        0.917       13.5048
        0.918        13.533
        0.919       13.5613
         0.92       13.5895
        0.921       13.6179
        0.922       13.6463
        0.923       13.6747
        0.924       13.7031
        0.925       13.7317
        0.926       13.7602
        0.927       13.7888
        0.928       13.8175
        0.929       13.8461
         0.93       13.8749
        0.931       13.9037
        0.932       13.9325
        0.933       13.9614
        0.934       13.9903
        0.935       14.0192
        0.936       14.0482
        0.937       14.0773
        0.938       14.1064
        0.939       14.1355
         0.94       14.1647
        0.941       14.1939
        0.942       14.2232
        0.943       14.2525
        0.944       14.2819
        0.945       14.3113
        0.946       14.3407
        0.947       14.3702
        0.948       14.3998
        0.949       14.4294
         0.95        14.459
        0.951       14.4887
        0.952       14.5184
        0.953       14.5482
        0.954        14.578
        0.955       14.6079
        0.956       14.6378
        0.957       14.6677
        0.958       14.6977
        0.959       14.7278
         0.96       14.7579
        0.961        14.788
        0.962       14.8182
        0.963       14.8485
        0.964       14.8787
        0.965       14.9091
        0.966       14.9394
        0.967       14.9698
        0.968       15.0003
        0.969       15.0308
         0.97       15.0614
        0.971        15.092
        0.972       15.1226
        0.973       15.1533
        0.974       15.1841
        0.975       15.2149
        0.976       15.2457
        0.977       15.2766
        0.978       15.3075
        0.979       15.3385
         0.98       15.3695
        0.981       15.4006
        0.982       15.4317
        0.983       15.4629
        0.984       15.4941
        0.985       15.5254
        0.986       15.5567
        0.987        15.588
        0.988       15.6194
        0.989       15.6509
         0.99       15.6824
        0.991       15.7139
        0.992       15.7455
        0.993       15.7772
        0.994       15.8089
        0.995       15.8406
        0.996       15.8724
        0.997       15.9042
        0.998       15.9361
        0.999        15.968
            1            16
