/*--------------------------------*- C++ -*----------------------------------*\
| =========                 |                                                 |
| \\      /  F ield         | OpenFOAM: The Open Source CFD Toolbox           |
|  \\    /   O peration     | Version:  dev                                   |
|   \\  /    A nd           | Web:      www.OpenFOAM.org                      |
|    \\/     M anipulation  |                                                 |
\*---------------------------------------------------------------------------*/
FoamFile
{
    version     2.0;
    format      ascii;
    class       volScalarField;
    location    "0.065";
    object      A3-4;
}
// * * * * * * * * * * * * * * * * * * * * * * * * * * * * * * * * * * * * * //

dimensions      [0 0 0 0 0 0 0];

internalField   nonuniform List<scalar> 
100
(
7.59363e-15
5.51721e-15
4.2259e-15
3.43436e-15
2.81428e-15
2.2911e-15
1.85841e-15
1.51732e-15
1.25845e-15
1.06933e-15
9.37391e-16
8.52204e-16
8.0781e-16
8.01658e-16
8.3286e-16
9.01188e-16
1.00546e-15
1.14263e-15
1.30739e-15
1.49251e-15
1.6894e-15
1.88898e-15
2.08232e-15
2.2617e-15
2.42082e-15
2.55509e-15
2.66164e-15
2.73921e-15
2.78791e-15
2.80893e-15
2.80424e-15
2.77629e-15
2.72783e-15
2.66172e-15
2.58078e-15
2.48754e-15
2.38483e-15
2.27483e-15
2.15972e-15
2.04136e-15
1.92038e-15
1.80012e-15
1.68083e-15
1.56284e-15
1.44841e-15
1.33756e-15
1.23038e-15
1.12828e-15
1.03011e-15
9.3782e-16
8.50562e-16
7.68393e-16
6.91318e-16
6.18672e-16
5.506e-16
4.87505e-16
4.30363e-16
3.77714e-16
3.28934e-16
2.85565e-16
2.46375e-16
2.11163e-16
1.79717e-16
1.51825e-16
1.27253e-16
1.0578e-16
8.70468e-17
7.11019e-17
5.75764e-17
4.60427e-17
3.66076e-17
2.88482e-17
2.25413e-17
1.74735e-17
1.34461e-17
1.0279e-17
7.81209e-18
5.91123e-18
4.45861e-18
3.33664e-18
2.54032e-18
1.95299e-18
1.52603e-18
1.21361e-18
9.96519e-19
8.42527e-19
7.32971e-19
6.53641e-19
5.93677e-19
5.45004e-19
5.01167e-19
4.58636e-19
4.1507e-19
3.68042e-19
3.21567e-19
2.68953e-19
2.1431e-19
1.52799e-19
9.27182e-20
4.34176e-20
)
;

boundaryField
{
    wall
    {
        type            zeroGradient;
    }
    fuel
    {
        type            fixedValue;
        value           uniform 0;
    }
    outlet
    {
        type            inletOutlet;
        inletValue      uniform 0;
        value           uniform 4.34176e-20;
    }
}


// ************************************************************************* //
