/*--------------------------------*- C++ -*----------------------------------*\
| =========                 |                                                 |
| \\      /  F ield         | OpenFOAM: The Open Source CFD Toolbox           |
|  \\    /   O peration     | Version:  dev                                   |
|   \\  /    A nd           | Web:      www.OpenFOAM.org                      |
|    \\/     M anipulation  |                                                 |
\*---------------------------------------------------------------------------*/
FoamFile
{
    version     2.0;
    format      ascii;
    class       volScalarField;
    location    "0.065";
    object      C6H8;
}
// * * * * * * * * * * * * * * * * * * * * * * * * * * * * * * * * * * * * * //

dimensions      [0 0 0 0 0 0 0];

internalField   nonuniform List<scalar> 
100
(
1.30982e-15
3.97769e-15
5.54402e-15
5.92508e-15
5.35516e-15
4.25416e-15
3.07124e-15
2.07839e-15
1.32354e-15
7.45681e-16
5.22622e-16
3.55943e-16
2.65635e-16
2.0794e-16
1.69664e-16
1.44941e-16
1.30239e-16
1.23053e-16
1.21463e-16
1.23899e-16
1.29005e-16
1.35582e-16
1.42574e-16
1.49107e-16
1.54509e-16
1.58313e-16
1.60327e-16
1.60574e-16
1.59319e-16
1.57083e-16
1.54693e-16
1.53409e-16
1.55182e-16
1.63155e-16
1.82605e-16
2.22717e-16
2.99467e-16
4.41673e-16
7.00024e-16
1.16584e-15
2.00685e-15
3.49011e-15
6.09809e-15
1.06491e-14
1.83683e-14
3.12693e-14
5.2435e-14
8.60014e-14
1.38541e-13
2.17001e-13
3.31725e-13
4.94156e-13
7.16946e-13
1.01571e-12
1.40352e-12
1.88811e-12
2.46321e-12
3.13972e-12
3.92055e-12
4.76337e-12
5.66624e-12
6.60535e-12
7.55362e-12
8.48266e-12
9.36455e-12
1.01737e-11
1.08941e-11
1.14984e-11
1.19814e-11
1.23444e-11
1.25769e-11
1.26898e-11
1.26916e-11
1.2593e-11
1.24057e-11
1.21415e-11
1.1812e-11
1.14294e-11
1.10044e-11
1.05341e-11
1.00612e-11
9.57019e-12
9.06845e-12
8.55033e-12
8.04043e-12
7.52832e-12
7.01614e-12
6.50507e-12
5.9949e-12
5.48405e-12
4.96501e-12
4.44433e-12
3.92584e-12
3.3992e-12
2.91282e-12
2.39597e-12
1.88566e-12
1.33152e-12
8.03001e-13
3.74851e-13
)
;

boundaryField
{
    wall
    {
        type            zeroGradient;
    }
    fuel
    {
        type            fixedValue;
        value           uniform 0;
    }
    outlet
    {
        type            inletOutlet;
        inletValue      uniform 0;
        value           uniform 3.74851e-13;
    }
}


// ************************************************************************* //
