/*--------------------------------*- C++ -*----------------------------------*\
| =========                 |                                                 |
| \\      /  F ield         | OpenFOAM: The Open Source CFD Toolbox           |
|  \\    /   O peration     | Version:  dev                                   |
|   \\  /    A nd           | Web:      www.OpenFOAM.org                      |
|    \\/     M anipulation  |                                                 |
\*---------------------------------------------------------------------------*/
FoamFile
{
    version     2.0;
    format      ascii;
    class       volScalarField;
    location    "0.065";
    object      n-C4H5;
}
// * * * * * * * * * * * * * * * * * * * * * * * * * * * * * * * * * * * * * //

dimensions      [0 0 0 0 0 0 0];

internalField   nonuniform List<scalar> 
100
(
9.22147e-11
1.11829e-10
8.65395e-11
6.00362e-11
3.93912e-11
2.48627e-11
1.52398e-11
9.18246e-12
5.46492e-12
3.22926e-12
1.87877e-12
1.03662e-12
7.00371e-13
4.49193e-13
2.95284e-13
2.0357e-13
1.48679e-13
1.15414e-13
9.50158e-14
8.24447e-14
7.47872e-14
7.03573e-14
6.81946e-14
6.77709e-14
6.88308e-14
7.12778e-14
7.51599e-14
8.06463e-14
8.79854e-14
9.75317e-14
1.09762e-13
1.25298e-13
1.44947e-13
1.69734e-13
2.00962e-13
2.4032e-13
2.89717e-13
3.51593e-13
4.28921e-13
5.25419e-13
6.46456e-13
7.95439e-13
9.79609e-13
1.20781e-12
1.48643e-12
1.82736e-12
2.24496e-12
2.75061e-12
3.36936e-12
4.11114e-12
5.00403e-12
6.07388e-12
7.34897e-12
8.87367e-12
1.06874e-11
1.28244e-11
1.52883e-11
1.81768e-11
2.15927e-11
2.54958e-11
3.00339e-11
3.52993e-11
4.13966e-11
4.84501e-11
5.65761e-11
6.58867e-11
7.65667e-11
8.85524e-11
1.01926e-10
1.16862e-10
1.32838e-10
1.49852e-10
1.67598e-10
1.8573e-10
2.03896e-10
2.21779e-10
2.39106e-10
2.55603e-10
2.71232e-10
2.86386e-10
3.00051e-10
3.12825e-10
3.2443e-10
3.34707e-10
3.42727e-10
3.48107e-10
3.50168e-10
3.48263e-10
3.41829e-10
3.30431e-10
3.13642e-10
2.91869e-10
2.65845e-10
2.35515e-10
2.04715e-10
1.69863e-10
1.34172e-10
9.47888e-11
5.70921e-11
2.66145e-11
)
;

boundaryField
{
    wall
    {
        type            zeroGradient;
    }
    fuel
    {
        type            fixedValue;
        value           uniform 0;
    }
    outlet
    {
        type            inletOutlet;
        inletValue      uniform 0;
        value           uniform 2.66145e-11;
    }
}


// ************************************************************************* //
