/*--------------------------------*- C++ -*----------------------------------*\
| =========                 |                                                 |
| \\      /  F ield         | OpenFOAM: The Open Source CFD Toolbox           |
|  \\    /   O peration     | Version:  dev                                   |
|   \\  /    A nd           | Web:      www.OpenFOAM.org                      |
|    \\/     M anipulation  |                                                 |
\*---------------------------------------------------------------------------*/
FoamFile
{
    version     2.0;
    format      ascii;
    class       volScalarField;
    location    "0.065";
    object      n-C6H5;
}
// * * * * * * * * * * * * * * * * * * * * * * * * * * * * * * * * * * * * * //

dimensions      [0 0 0 0 0 0 0];

internalField   nonuniform List<scalar> 
100
(
4.28998e-12
1.26179e-11
1.56871e-11
1.49464e-11
1.21079e-11
8.69167e-12
5.72113e-12
3.57457e-12
2.16524e-12
1.29183e-12
7.69132e-13
4.60514e-13
2.79302e-13
1.73666e-13
1.11699e-13
7.51555e-14
5.34431e-14
4.03989e-14
3.24089e-14
2.73319e-14
2.38904e-14
2.13243e-14
1.91936e-14
1.72578e-14
1.54024e-14
1.35879e-14
1.18203e-14
1.01264e-14
8.53783e-15
7.08303e-15
5.78235e-15
4.64637e-15
3.67633e-15
2.86566e-15
2.20201e-15
1.66862e-15
1.24943e-15
9.25265e-16
6.78603e-16
4.94808e-16
3.59144e-16
2.62239e-16
1.93654e-16
1.45716e-16
1.13197e-16
9.14309e-17
7.70866e-17
6.78864e-17
6.19828e-17
5.82539e-17
5.57879e-17
5.39953e-17
5.24996e-17
5.10437e-17
4.94941e-17
4.78014e-17
4.59967e-17
4.40512e-17
4.19716e-17
3.9889e-17
3.77899e-17
3.57057e-17
3.36576e-17
3.16682e-17
2.97559e-17
2.79326e-17
2.61916e-17
2.45767e-17
2.30824e-17
2.16872e-17
2.04502e-17
1.93484e-17
1.83841e-17
1.75581e-17
1.68696e-17
1.63167e-17
1.58949e-17
1.55931e-17
1.54135e-17
1.53646e-17
1.54876e-17
1.57862e-17
1.62863e-17
1.70464e-17
1.81149e-17
1.95821e-17
2.15702e-17
2.42886e-17
2.80214e-17
3.30603e-17
3.94722e-17
4.61313e-17
5.10995e-17
5.23638e-17
4.95476e-17
4.3127e-17
3.47489e-17
2.4716e-17
1.49004e-17
6.94429e-18
)
;

boundaryField
{
    wall
    {
        type            zeroGradient;
    }
    fuel
    {
        type            fixedValue;
        value           uniform 0;
    }
    outlet
    {
        type            inletOutlet;
        inletValue      uniform 0;
        value           uniform 6.94429e-18;
    }
}


// ************************************************************************* //
