/*--------------------------------*- C++ -*----------------------------------*\
| =========                 |                                                 |
| \\      /  F ield         | OpenFOAM: The Open Source CFD Toolbox           |
|  \\    /   O peration     | Version:  dev                                   |
|   \\  /    A nd           | Web:      www.OpenFOAM.org                      |
|    \\/     M anipulation  |                                                 |
\*---------------------------------------------------------------------------*/
FoamFile
{
    version     2.0;
    format      ascii;
    class       volScalarField;
    location    "0.075";
    object      A2C2HA*;
}
// * * * * * * * * * * * * * * * * * * * * * * * * * * * * * * * * * * * * * //

dimensions      [0 0 0 0 0 0 0];

internalField   nonuniform List<scalar> 
100
(
2.74752e-15
2.16004e-15
1.7125e-15
1.39178e-15
1.12671e-15
9.02365e-16
7.17535e-16
5.70891e-16
4.57078e-16
3.70142e-16
3.0431e-16
2.5435e-16
2.16324e-16
1.87599e-16
1.65882e-16
1.4949e-16
1.37072e-16
1.27528e-16
1.1997e-16
1.13711e-16
1.08245e-16
1.03228e-16
9.84486e-17
9.37813e-17
8.91604e-17
8.45465e-17
7.99184e-17
7.52638e-17
7.05759e-17
6.5858e-17
6.11228e-17
5.63943e-17
5.17055e-17
4.70954e-17
4.26063e-17
3.8272e-17
3.41457e-17
3.02471e-17
2.66023e-17
2.32359e-17
2.0131e-17
1.73405e-17
1.48357e-17
1.25951e-17
1.06329e-17
8.91981e-18
7.43086e-18
6.15925e-18
5.06688e-18
4.15258e-18
3.38443e-18
2.7426e-18
2.21202e-18
1.77268e-18
1.41223e-18
1.12048e-18
8.89967e-19
7.04677e-19
5.54915e-19
4.38568e-19
3.4639e-19
2.735e-19
2.1583e-19
1.70083e-19
1.33926e-19
1.05321e-19
8.24727e-20
6.44972e-20
5.02662e-20
3.88385e-20
2.99554e-20
2.29595e-20
1.74776e-20
1.3208e-20
9.90678e-21
7.36928e-21
5.42712e-21
3.96226e-21
2.86454e-21
2.03268e-21
1.4526e-21
1.03223e-21
7.31925e-22
5.15945e-22
3.68514e-22
2.66254e-22
1.96053e-22
1.4834e-22
1.16016e-22
9.42914e-23
7.92964e-23
6.85576e-23
6.01836e-23
5.27893e-23
4.6187e-23
3.8912e-23
3.12726e-23
2.24723e-23
1.37022e-23
6.4284e-24
)
;

boundaryField
{
    wall
    {
        type            zeroGradient;
    }
    fuel
    {
        type            fixedValue;
        value           uniform 0;
    }
    outlet
    {
        type            inletOutlet;
        inletValue      uniform 0;
        value           uniform 6.4284e-24;
    }
}


// ************************************************************************* //
