/*--------------------------------*- C++ -*----------------------------------*\
| =========                 |                                                 |
| \\      /  F ield         | OpenFOAM: The Open Source CFD Toolbox           |
|  \\    /   O peration     | Version:  dev                                   |
|   \\  /    A nd           | Web:      www.OpenFOAM.org                      |
|    \\/     M anipulation  |                                                 |
\*---------------------------------------------------------------------------*/
FoamFile
{
    version     2.0;
    format      ascii;
    class       volScalarField;
    location    "0.075";
    object      A2C2HA;
}
// * * * * * * * * * * * * * * * * * * * * * * * * * * * * * * * * * * * * * //

dimensions      [0 0 0 0 0 0 0];

internalField   nonuniform List<scalar> 
100
(
1.9899e-14
1.7887e-14
1.56036e-14
1.374e-14
1.21034e-14
1.0696e-14
9.53641e-15
8.61614e-15
7.90543e-15
7.37299e-15
6.99051e-15
6.73361e-15
6.5865e-15
6.54271e-15
6.59817e-15
6.75067e-15
6.99712e-15
7.33246e-15
7.74958e-15
8.24023e-15
8.79587e-15
9.40872e-15
1.00711e-14
1.07763e-14
1.15164e-14
1.22817e-14
1.30594e-14
1.38336e-14
1.4586e-14
1.52971e-14
1.59474e-14
1.65187e-14
1.69952e-14
1.73646e-14
1.76177e-14
1.77497e-14
1.77584e-14
1.76459e-14
1.74171e-14
1.70793e-14
1.66384e-14
1.61127e-14
1.5511e-14
1.48427e-14
1.41296e-14
1.33814e-14
1.26082e-14
1.18294e-14
1.10453e-14
1.02804e-14
9.53594e-15
8.81953e-15
8.13826e-15
7.49179e-15
6.88625e-15
6.32886e-15
5.83067e-15
5.37981e-15
4.97152e-15
4.61868e-15
4.30987e-15
4.04206e-15
3.81188e-15
3.61579e-15
3.45015e-15
3.31136e-15
3.19498e-15
3.09932e-15
3.02019e-15
2.95332e-15
2.89781e-15
2.84986e-15
2.80703e-15
2.76712e-15
2.72815e-15
2.68834e-15
2.64619e-15
2.60065e-15
2.55073e-15
2.49416e-15
2.4345e-15
2.36864e-15
2.29658e-15
2.21656e-15
2.13181e-15
2.04033e-15
1.94221e-15
1.83757e-15
1.72643e-15
1.6085e-15
1.48203e-15
1.3488e-15
1.2101e-15
1.06308e-15
9.21972e-16
7.66704e-16
6.08791e-16
4.33208e-16
2.62696e-16
1.23009e-16
)
;

boundaryField
{
    wall
    {
        type            zeroGradient;
    }
    fuel
    {
        type            fixedValue;
        value           uniform 0;
    }
    outlet
    {
        type            inletOutlet;
        inletValue      uniform 0;
        value           uniform 1.23009e-16;
    }
}


// ************************************************************************* //
