/*--------------------------------*- C++ -*----------------------------------*\
| =========                 |                                                 |
| \\      /  F ield         | OpenFOAM: The Open Source CFD Toolbox           |
|  \\    /   O peration     | Version:  dev                                   |
|   \\  /    A nd           | Web:      www.OpenFOAM.org                      |
|    \\/     M anipulation  |                                                 |
\*---------------------------------------------------------------------------*/
FoamFile
{
    version     2.0;
    format      ascii;
    class       volScalarField;
    location    "0.075";
    object      A3C2H;
}
// * * * * * * * * * * * * * * * * * * * * * * * * * * * * * * * * * * * * * //

dimensions      [0 0 0 0 0 0 0];

internalField   nonuniform List<scalar> 
100
(
1.20174e-16
9.25531e-17
7.0686e-17
5.55971e-17
4.38063e-17
3.44287e-17
2.71198e-17
2.16136e-17
1.75515e-17
1.46122e-17
1.25249e-17
1.1079e-17
1.01386e-17
9.63436e-18
9.53033e-18
9.81979e-18
1.05067e-17
1.15932e-17
1.30703e-17
1.49125e-17
1.70766e-17
1.95034e-17
2.21203e-17
2.48512e-17
2.76197e-17
3.03541e-17
3.29897e-17
3.54714e-17
3.77534e-17
3.97992e-17
4.15795e-17
4.3072e-17
4.42594e-17
4.51296e-17
4.56749e-17
4.58917e-17
4.57799e-17
4.53456e-17
4.45992e-17
4.35567e-17
4.22283e-17
4.06607e-17
3.88746e-17
3.68932e-17
3.47788e-17
3.25603e-17
3.02688e-17
2.79653e-17
2.56546e-17
2.34131e-17
2.12484e-17
1.91862e-17
1.72489e-17
1.54365e-17
1.37656e-17
1.22545e-17
1.09294e-17
9.75445e-18
8.71327e-18
7.8339e-18
7.08254e-18
6.44719e-18
5.91542e-18
5.47483e-18
5.11355e-18
4.8204e-18
4.58304e-18
4.39537e-18
4.24679e-18
4.12734e-18
4.03354e-18
3.95723e-18
3.89304e-18
3.83633e-18
3.78314e-18
3.73012e-18
3.67455e-18
3.61446e-18
3.54822e-18
3.47257e-18
3.39214e-18
3.30271e-18
3.20428e-18
3.09446e-18
2.97769e-18
2.85123e-18
2.71525e-18
2.56986e-18
2.41509e-18
2.25067e-18
2.07415e-18
1.88805e-18
1.69419e-18
1.48858e-18
1.29116e-18
1.07384e-18
8.5275e-19
6.06857e-19
3.68018e-19
1.72332e-19
)
;

boundaryField
{
    wall
    {
        type            zeroGradient;
    }
    fuel
    {
        type            fixedValue;
        value           uniform 0;
    }
    outlet
    {
        type            inletOutlet;
        inletValue      uniform 0;
        value           uniform 1.72332e-19;
    }
}


// ************************************************************************* //
