/*--------------------------------*- C++ -*----------------------------------*\
| =========                 |                                                 |
| \\      /  F ield         | OpenFOAM: The Open Source CFD Toolbox           |
|  \\    /   O peration     | Version:  dev                                   |
|   \\  /    A nd           | Web:      www.OpenFOAM.org                      |
|    \\/     M anipulation  |                                                 |
\*---------------------------------------------------------------------------*/
FoamFile
{
    version     2.0;
    format      ascii;
    class       volScalarField;
    location    "0.075";
    object      C2H3O;
}
// * * * * * * * * * * * * * * * * * * * * * * * * * * * * * * * * * * * * * //

dimensions      [0 0 0 0 0 0 0];

internalField   nonuniform List<scalar> 
100
(
2.07528e-10
4.6206e-10
6.20319e-10
6.9648e-10
6.94321e-10
6.33158e-10
5.4072e-10
4.43353e-10
3.55187e-10
2.81944e-10
2.24183e-10
1.79845e-10
1.46196e-10
1.21054e-10
1.02241e-10
8.81136e-11
7.74094e-11
6.91844e-11
6.27441e-11
5.75851e-11
5.33476e-11
4.97774e-11
4.67017e-11
4.39993e-11
4.15884e-11
3.94133e-11
3.74369e-11
3.5633e-11
3.39827e-11
3.24713e-11
3.10866e-11
2.98183e-11
2.86577e-11
2.75974e-11
2.66313e-11
2.57525e-11
2.4961e-11
2.4251e-11
2.36214e-11
2.30735e-11
2.26029e-11
2.22235e-11
2.19336e-11
2.17352e-11
2.16414e-11
2.16597e-11
2.18023e-11
2.20871e-11
2.25362e-11
2.31725e-11
2.40268e-11
2.51354e-11
2.65455e-11
2.83305e-11
3.05781e-11
3.33882e-11
3.68396e-11
4.11506e-11
4.66011e-11
5.32974e-11
6.16881e-11
7.22228e-11
8.55064e-11
1.02359e-10
1.2388e-10
1.51641e-10
1.8826e-10
2.36973e-10
3.03897e-10
3.99712e-10
5.34151e-10
7.21774e-10
9.71309e-10
1.28193e-09
1.64133e-09
2.02838e-09
2.4185e-09
2.78803e-09
3.11944e-09
3.40735e-09
3.62625e-09
3.78869e-09
3.8957e-09
3.95119e-09
3.9567e-09
3.9175e-09
3.83721e-09
3.7191e-09
3.56582e-09
3.37924e-09
3.15833e-09
2.90858e-09
2.63492e-09
2.33297e-09
2.03452e-09
1.6989e-09
1.35249e-09
9.63888e-10
5.84814e-10
2.73834e-10
)
;

boundaryField
{
    wall
    {
        type            zeroGradient;
    }
    fuel
    {
        type            fixedValue;
        value           uniform 0;
    }
    outlet
    {
        type            inletOutlet;
        inletValue      uniform 0;
        value           uniform 2.73834e-10;
    }
}


// ************************************************************************* //
