/*--------------------------------*- C++ -*----------------------------------*\
| =========                 |                                                 |
| \\      /  F ield         | OpenFOAM: The Open Source CFD Toolbox           |
|  \\    /   O peration     | Version:  dev                                   |
|   \\  /    A nd           | Web:      www.OpenFOAM.org                      |
|    \\/     M anipulation  |                                                 |
\*---------------------------------------------------------------------------*/
FoamFile
{
    version     2.0;
    format      ascii;
    class       volScalarField;
    location    "0.06";
    object      A1C2H3*;
}
// * * * * * * * * * * * * * * * * * * * * * * * * * * * * * * * * * * * * * //

dimensions      [0 0 0 0 0 0 0];

internalField   nonuniform List<scalar> 
250
(
1.88395e-11
1.11433e-11
9.00368e-12
8.477e-12
8.32901e-12
8.37692e-12
8.29625e-12
8.38917e-12
8.31204e-12
8.38033e-12
1.80921e-11
1.15588e-11
9.86543e-12
9.43734e-12
9.31019e-12
9.42302e-12
9.29507e-12
9.45141e-12
9.32068e-12
9.43263e-12
9.4093e-12
9.36994e-12
9.40822e-12
9.35873e-12
9.3685e-12
9.39278e-12
9.38371e-12
9.88389e-12
1.11255e-11
1.49553e-11
1.80807e-11
1.26354e-11
1.14446e-11
1.11311e-11
1.10212e-11
1.12233e-11
1.10258e-11
1.1271e-11
1.1064e-11
1.12373e-11
1.12005e-11
1.11405e-11
1.12004e-11
1.11246e-11
1.11333e-11
1.11491e-11
1.10468e-11
1.15324e-11
1.23714e-11
1.57898e-11
1.90504e-11
1.47008e-11
1.39984e-11
1.38065e-11
1.37025e-11
1.39682e-11
1.37134e-11
1.4023e-11
1.37563e-11
1.39755e-11
1.39299e-11
1.38534e-11
1.39308e-11
1.38385e-11
1.38482e-11
1.38619e-11
1.36957e-11
1.41506e-11
1.46027e-11
1.75464e-11
2.08991e-11
1.77568e-11
1.73233e-11
1.7203e-11
1.70862e-11
1.72926e-11
1.7066e-11
1.73175e-11
1.70878e-11
1.72708e-11
1.72364e-11
1.71692e-11
1.72373e-11
1.7169e-11
1.71834e-11
1.72102e-11
1.71048e-11
1.74621e-11
1.77913e-11
2.01192e-11
2.27934e-11
2.09156e-11
2.02552e-11
2.01529e-11
2.00092e-11
1.99635e-11
1.99114e-11
1.99105e-11
1.98773e-11
1.98914e-11
1.98986e-11
1.9883e-11
1.98982e-11
1.9913e-11
1.9936e-11
1.99916e-11
2.0138e-11
2.02972e-11
2.10232e-11
2.25704e-11
2.30022e-11
2.22436e-11
2.10413e-11
2.08658e-11
2.07016e-11
2.02796e-11
2.05112e-11
2.01268e-11
2.04047e-11
2.01575e-11
2.02252e-11
2.02913e-11
2.0223e-11
2.03547e-11
2.0388e-11
2.04719e-11
2.09892e-11
2.08892e-11
2.2403e-11
2.31865e-11
2.01836e-11
2.01493e-11
1.83786e-11
1.81101e-11
1.79543e-11
1.72425e-11
1.77156e-11
1.70248e-11
1.75621e-11
1.7101e-11
1.72156e-11
1.73489e-11
1.72127e-11
1.74286e-11
1.74688e-11
1.75574e-11
1.83532e-11
1.80459e-11
2.02694e-11
2.04821e-11
1.43795e-11
1.46027e-11
1.27729e-11
1.24926e-11
1.23787e-11
1.16581e-11
1.21725e-11
1.14535e-11
1.20287e-11
1.15413e-11
1.1658e-11
1.18005e-11
1.16561e-11
1.18685e-11
1.19068e-11
1.19704e-11
1.27569e-11
1.24004e-11
1.46492e-11
1.45942e-11
7.759e-12
7.9352e-12
6.68034e-12
6.48894e-12
6.42888e-12
5.95509e-12
6.30823e-12
5.82565e-12
6.21842e-12
5.8879e-12
5.96544e-12
6.0616e-12
5.96503e-12
6.10079e-12
6.12718e-12
6.15665e-12
6.67114e-12
6.42165e-12
7.93701e-12
7.84975e-12
2.9104e-12
2.96644e-12
2.40934e-12
2.32191e-12
2.30047e-12
2.09851e-12
2.25401e-12
2.04462e-12
2.21746e-12
2.07283e-12
2.10612e-12
2.14799e-12
2.10644e-12
2.16269e-12
2.17488e-12
2.18315e-12
2.40235e-12
2.29496e-12
2.95952e-12
2.92984e-12
6.24928e-13
6.30979e-13
5.02921e-13
4.82842e-13
4.78203e-13
4.33794e-13
4.68714e-13
4.21889e-13
4.60946e-13
4.28328e-13
4.35722e-13
4.45119e-13
4.35941e-13
4.48022e-13
4.51057e-13
4.52113e-13
5.00897e-13
4.772e-13
6.283e-13
6.26121e-13
1.29203e-13
1.29367e-13
1.06566e-13
1.02364e-13
1.0171e-13
9.32128e-14
9.98827e-14
9.09312e-14
9.84096e-14
9.21654e-14
9.35538e-14
9.54098e-14
9.36102e-14
9.59589e-14
9.64898e-14
9.67699e-14
1.05758e-13
1.01642e-13
1.29002e-13
1.29193e-13
)
;

boundaryField
{
    fuel
    {
        type            fixedValue;
        value           nonuniform 0();
    }
    wall
    {
        type            zeroGradient;
    }
    outlet
    {
        type            zeroGradient;
    }
    frontAndBack
    {
        type            empty;
    }
    procBoundary1to0
    {
        type            processor;
        value           nonuniform List<scalar> 
21
(
2.00087e-11
1.1083e-11
8.54707e-12
7.92917e-12
7.76243e-12
7.77261e-12
7.71702e-12
7.77574e-12
7.72733e-12
7.77228e-12
8.36679e-12
8.36679e-12
8.3422e-12
8.36504e-12
8.33556e-12
8.34634e-12
8.3798e-12
8.44246e-12
8.96924e-12
1.0533e-11
1.47501e-11
)
;
    }
}


// ************************************************************************* //
