/*--------------------------------*- C++ -*----------------------------------*\
| =========                 |                                                 |
| \\      /  F ield         | OpenFOAM: The Open Source CFD Toolbox           |
|  \\    /   O peration     | Version:  dev                                   |
|   \\  /    A nd           | Web:      www.OpenFOAM.org                      |
|    \\/     M anipulation  |                                                 |
\*---------------------------------------------------------------------------*/
FoamFile
{
    version     2.0;
    format      ascii;
    class       volScalarField;
    location    "0.06";
    object      A2;
}
// * * * * * * * * * * * * * * * * * * * * * * * * * * * * * * * * * * * * * //

dimensions      [0 0 0 0 0 0 0];

internalField   nonuniform List<scalar> 
2000
(
3.25656e-07
3.25237e-07
3.25015e-07
3.24825e-07
3.24815e-07
3.24759e-07
3.24779e-07
3.24753e-07
3.24772e-07
3.24757e-07
3.2477e-07
3.2476e-07
3.24769e-07
3.24762e-07
3.24768e-07
3.24764e-07
3.24768e-07
3.24765e-07
3.24767e-07
3.24765e-07
3.24767e-07
3.24766e-07
3.24767e-07
3.24766e-07
3.24767e-07
3.24767e-07
3.24766e-07
3.24767e-07
3.24766e-07
3.24767e-07
3.24765e-07
3.24767e-07
3.24765e-07
3.24768e-07
3.24764e-07
3.24768e-07
3.24762e-07
3.24769e-07
3.2476e-07
3.2477e-07
3.24757e-07
3.24772e-07
3.24753e-07
3.24779e-07
3.24759e-07
3.24815e-07
3.24825e-07
3.25015e-07
3.25237e-07
3.25656e-07
6.593e-07
6.58338e-07
6.57775e-07
6.57338e-07
6.57308e-07
6.57184e-07
6.57228e-07
6.57172e-07
6.57213e-07
6.57179e-07
6.57209e-07
6.57186e-07
6.57207e-07
6.57192e-07
6.57205e-07
6.57195e-07
6.57205e-07
6.57197e-07
6.57203e-07
6.57199e-07
6.57202e-07
6.572e-07
6.57202e-07
6.57201e-07
6.57202e-07
6.57202e-07
6.57201e-07
6.57202e-07
6.572e-07
6.57202e-07
6.57199e-07
6.57203e-07
6.57197e-07
6.57205e-07
6.57195e-07
6.57205e-07
6.57192e-07
6.57206e-07
6.57186e-07
6.57209e-07
6.57179e-07
6.57213e-07
6.57172e-07
6.57228e-07
6.57184e-07
6.57308e-07
6.57338e-07
6.57775e-07
6.58338e-07
6.593e-07
8.96109e-07
8.94642e-07
8.93638e-07
8.92936e-07
8.92853e-07
8.92673e-07
8.92728e-07
8.92652e-07
8.92707e-07
8.92662e-07
8.92702e-07
8.92672e-07
8.92699e-07
8.9268e-07
8.92698e-07
8.92684e-07
8.92698e-07
8.92687e-07
8.92695e-07
8.92689e-07
8.92694e-07
8.92691e-07
8.92694e-07
8.92693e-07
8.92693e-07
8.92693e-07
8.92693e-07
8.92694e-07
8.92691e-07
8.92694e-07
8.92689e-07
8.92695e-07
8.92687e-07
8.92698e-07
8.92684e-07
8.92698e-07
8.9268e-07
8.92699e-07
8.92672e-07
8.92702e-07
8.92662e-07
8.92707e-07
8.92652e-07
8.92728e-07
8.92673e-07
8.92853e-07
8.92937e-07
8.93638e-07
8.94641e-07
8.96109e-07
9.63344e-07
9.61415e-07
9.59929e-07
9.5896e-07
9.58805e-07
9.5858e-07
9.58636e-07
9.58549e-07
9.58612e-07
9.58561e-07
9.58608e-07
9.58573e-07
9.58605e-07
9.58583e-07
9.58604e-07
9.58589e-07
9.58604e-07
9.58591e-07
9.58601e-07
9.58594e-07
9.586e-07
9.58596e-07
9.586e-07
9.58598e-07
9.58599e-07
9.58599e-07
9.58598e-07
9.586e-07
9.58596e-07
9.586e-07
9.58594e-07
9.58601e-07
9.58592e-07
9.58604e-07
9.58588e-07
9.58604e-07
9.58583e-07
9.58605e-07
9.58573e-07
9.58607e-07
9.58561e-07
9.58612e-07
9.58549e-07
9.58637e-07
9.58581e-07
9.58805e-07
9.58961e-07
9.59929e-07
9.61415e-07
9.63344e-07
8.98064e-07
8.95916e-07
8.94186e-07
8.93075e-07
8.92867e-07
8.92626e-07
8.92675e-07
8.92587e-07
8.9265e-07
8.926e-07
8.92646e-07
8.92612e-07
8.92644e-07
8.92623e-07
8.92644e-07
8.92629e-07
8.92644e-07
8.92631e-07
8.9264e-07
8.92634e-07
8.9264e-07
8.92636e-07
8.9264e-07
8.92638e-07
8.92639e-07
8.92639e-07
8.92638e-07
8.9264e-07
8.92636e-07
8.9264e-07
8.92634e-07
8.9264e-07
8.92631e-07
8.92644e-07
8.92628e-07
8.92644e-07
8.92623e-07
8.92644e-07
8.92612e-07
8.92646e-07
8.926e-07
8.9265e-07
8.92587e-07
8.92675e-07
8.92626e-07
8.92867e-07
8.93076e-07
8.94186e-07
8.95915e-07
8.98064e-07
7.79129e-07
7.7701e-07
7.75301e-07
7.74183e-07
7.73948e-07
7.73716e-07
7.73752e-07
7.73674e-07
7.73728e-07
7.73685e-07
7.73726e-07
7.73697e-07
7.73725e-07
7.73707e-07
7.73725e-07
7.73712e-07
7.73726e-07
7.73715e-07
7.73723e-07
7.73717e-07
7.73722e-07
7.73719e-07
7.73722e-07
7.73721e-07
7.73721e-07
7.73721e-07
7.73721e-07
7.73722e-07
7.73719e-07
7.73722e-07
7.73717e-07
7.73723e-07
7.73715e-07
7.73726e-07
7.73712e-07
7.73725e-07
7.73707e-07
7.73725e-07
7.73697e-07
7.73726e-07
7.73685e-07
7.73728e-07
7.73674e-07
7.73753e-07
7.73716e-07
7.73948e-07
7.74183e-07
7.75301e-07
7.7701e-07
7.79129e-07
6.55026e-07
6.53085e-07
6.5155e-07
6.50508e-07
6.50267e-07
6.50058e-07
6.50079e-07
6.50014e-07
6.50057e-07
6.50023e-07
6.50056e-07
6.50033e-07
6.50056e-07
6.50042e-07
6.50057e-07
6.50047e-07
6.50058e-07
6.50049e-07
6.50055e-07
6.50051e-07
6.50055e-07
6.50053e-07
6.50055e-07
6.50054e-07
6.50054e-07
6.50054e-07
6.50054e-07
6.50055e-07
6.50052e-07
6.50055e-07
6.50051e-07
6.50055e-07
6.50049e-07
6.50058e-07
6.50046e-07
6.50057e-07
6.50042e-07
6.50056e-07
6.50034e-07
6.50056e-07
6.50023e-07
6.50057e-07
6.50014e-07
6.50079e-07
6.50058e-07
6.50266e-07
6.50508e-07
6.5155e-07
6.53085e-07
6.55026e-07
5.45321e-07
5.4362e-07
5.42319e-07
5.4139e-07
5.41153e-07
5.40973e-07
5.40979e-07
5.4093e-07
5.40959e-07
5.40936e-07
5.4096e-07
5.40944e-07
5.40961e-07
5.40951e-07
5.40962e-07
5.40955e-07
5.40964e-07
5.40957e-07
5.40962e-07
5.40958e-07
5.40962e-07
5.4096e-07
5.40962e-07
5.40961e-07
5.40961e-07
5.40961e-07
5.40961e-07
5.40962e-07
5.4096e-07
5.40962e-07
5.40958e-07
5.40962e-07
5.40957e-07
5.40963e-07
5.40955e-07
5.40963e-07
5.40951e-07
5.40961e-07
5.40944e-07
5.4096e-07
5.40936e-07
5.40959e-07
5.4093e-07
5.40979e-07
5.40974e-07
5.41153e-07
5.4139e-07
5.42319e-07
5.4362e-07
5.45321e-07
4.54712e-07
4.53262e-07
4.52201e-07
4.51395e-07
4.51168e-07
4.51018e-07
4.5101e-07
4.50974e-07
4.50992e-07
4.50978e-07
4.50994e-07
4.50985e-07
4.50996e-07
4.5099e-07
4.50998e-07
4.50994e-07
4.50999e-07
4.50995e-07
4.50998e-07
4.50996e-07
4.50998e-07
4.50997e-07
4.50999e-07
4.50998e-07
4.50998e-07
4.50998e-07
4.50998e-07
4.50999e-07
4.50997e-07
4.50998e-07
4.50996e-07
4.50998e-07
4.50995e-07
4.50999e-07
4.50994e-07
4.50998e-07
4.5099e-07
4.50996e-07
4.50985e-07
4.50994e-07
4.50978e-07
4.50992e-07
4.50974e-07
4.5101e-07
4.51018e-07
4.51168e-07
4.51395e-07
4.52201e-07
4.53261e-07
4.54712e-07
3.81895e-07
3.80683e-07
3.79846e-07
3.79159e-07
3.78945e-07
3.78821e-07
3.78802e-07
3.78779e-07
3.78786e-07
3.7878e-07
3.78789e-07
3.78785e-07
3.78792e-07
3.7879e-07
3.78794e-07
3.78792e-07
3.78795e-07
3.78793e-07
3.78795e-07
3.78794e-07
3.78795e-07
3.78795e-07
3.78796e-07
3.78795e-07
3.78795e-07
3.78795e-07
3.78795e-07
3.78796e-07
3.78795e-07
3.78795e-07
3.78794e-07
3.78795e-07
3.78793e-07
3.78795e-07
3.78792e-07
3.78794e-07
3.7879e-07
3.78792e-07
3.78785e-07
3.78789e-07
3.7878e-07
3.78786e-07
3.78779e-07
3.78802e-07
3.78821e-07
3.78945e-07
3.79159e-07
3.79846e-07
3.80683e-07
3.81895e-07
3.23891e-07
3.22897e-07
3.22261e-07
3.21683e-07
3.21483e-07
3.21382e-07
3.21354e-07
3.21341e-07
3.2134e-07
3.2134e-07
3.21344e-07
3.21344e-07
3.21347e-07
3.21347e-07
3.21349e-07
3.21349e-07
3.21351e-07
3.2135e-07
3.21351e-07
3.21351e-07
3.21351e-07
3.21351e-07
3.21352e-07
3.21352e-07
3.21352e-07
3.21352e-07
3.21352e-07
3.21352e-07
3.21351e-07
3.21351e-07
3.21351e-07
3.21351e-07
3.2135e-07
3.21351e-07
3.21349e-07
3.21349e-07
3.21347e-07
3.21347e-07
3.21344e-07
3.21344e-07
3.2134e-07
3.2134e-07
3.21341e-07
3.21354e-07
3.21382e-07
3.21483e-07
3.21683e-07
3.22261e-07
3.22897e-07
3.2389e-07
2.75741e-07
2.74927e-07
2.74429e-07
2.73939e-07
2.73754e-07
2.7367e-07
2.73636e-07
2.7363e-07
2.73624e-07
2.73628e-07
2.73628e-07
2.73631e-07
2.73632e-07
2.73634e-07
2.73634e-07
2.73635e-07
2.73636e-07
2.73636e-07
2.73636e-07
2.73636e-07
2.73636e-07
2.73637e-07
2.73637e-07
2.73637e-07
2.73637e-07
2.73637e-07
2.73637e-07
2.73637e-07
2.73637e-07
2.73636e-07
2.73636e-07
2.73636e-07
2.73636e-07
2.73636e-07
2.73635e-07
2.73634e-07
2.73634e-07
2.73632e-07
2.73631e-07
2.73628e-07
2.73628e-07
2.73624e-07
2.7363e-07
2.73636e-07
2.7367e-07
2.73754e-07
2.73939e-07
2.74428e-07
2.74927e-07
2.75741e-07
2.38365e-07
2.37727e-07
2.37379e-07
2.36977e-07
2.36804e-07
2.36738e-07
2.36697e-07
2.36699e-07
2.36686e-07
2.36695e-07
2.36691e-07
2.36697e-07
2.36695e-07
2.36699e-07
2.36697e-07
2.367e-07
2.36699e-07
2.36701e-07
2.36699e-07
2.36701e-07
2.367e-07
2.36701e-07
2.36701e-07
2.36701e-07
2.36701e-07
2.36701e-07
2.36701e-07
2.36701e-07
2.36701e-07
2.367e-07
2.36701e-07
2.36699e-07
2.36701e-07
2.36699e-07
2.367e-07
2.36697e-07
2.36699e-07
2.36695e-07
2.36697e-07
2.36691e-07
2.36695e-07
2.36686e-07
2.36699e-07
2.36697e-07
2.36738e-07
2.36804e-07
2.36977e-07
2.37379e-07
2.37727e-07
2.38365e-07
2.07761e-07
2.07147e-07
2.06814e-07
2.06454e-07
2.06311e-07
2.06249e-07
2.06217e-07
2.06215e-07
2.06206e-07
2.06212e-07
2.06209e-07
2.06214e-07
2.06213e-07
2.06216e-07
2.06215e-07
2.06217e-07
2.06216e-07
2.06217e-07
2.06217e-07
2.06217e-07
2.06217e-07
2.06218e-07
2.06218e-07
2.06218e-07
2.06218e-07
2.06218e-07
2.06218e-07
2.06218e-07
2.06218e-07
2.06217e-07
2.06217e-07
2.06217e-07
2.06217e-07
2.06216e-07
2.06217e-07
2.06215e-07
2.06216e-07
2.06213e-07
2.06214e-07
2.06209e-07
2.06212e-07
2.06206e-07
2.06215e-07
2.06217e-07
2.06249e-07
2.06311e-07
2.06454e-07
2.06814e-07
2.07146e-07
2.07761e-07
1.81748e-07
1.81251e-07
1.80999e-07
1.80695e-07
1.80564e-07
1.80512e-07
1.80479e-07
1.8048e-07
1.80469e-07
1.80477e-07
1.80472e-07
1.80478e-07
1.80476e-07
1.80479e-07
1.80478e-07
1.8048e-07
1.80479e-07
1.8048e-07
1.80479e-07
1.8048e-07
1.8048e-07
1.80481e-07
1.80481e-07
1.80481e-07
1.80481e-07
1.80481e-07
1.80481e-07
1.80481e-07
1.80481e-07
1.8048e-07
1.80481e-07
1.8048e-07
1.80481e-07
1.80479e-07
1.8048e-07
1.80478e-07
1.80479e-07
1.80476e-07
1.80478e-07
1.80472e-07
1.80477e-07
1.80469e-07
1.8048e-07
1.80479e-07
1.80512e-07
1.80564e-07
1.80695e-07
1.80999e-07
1.81251e-07
1.81748e-07
1.60875e-07
1.60486e-07
1.60313e-07
1.60063e-07
1.59943e-07
1.59901e-07
1.59866e-07
1.5987e-07
1.59856e-07
1.59866e-07
1.5986e-07
1.59867e-07
1.59863e-07
1.59868e-07
1.59866e-07
1.59869e-07
1.59867e-07
1.59869e-07
1.59867e-07
1.59869e-07
1.59868e-07
1.59869e-07
1.59869e-07
1.59869e-07
1.59869e-07
1.59869e-07
1.59869e-07
1.59869e-07
1.59869e-07
1.59868e-07
1.59869e-07
1.59867e-07
1.59869e-07
1.59867e-07
1.59869e-07
1.59866e-07
1.59868e-07
1.59863e-07
1.59867e-07
1.5986e-07
1.59866e-07
1.59856e-07
1.5987e-07
1.59866e-07
1.59901e-07
1.59943e-07
1.60063e-07
1.60313e-07
1.60486e-07
1.60875e-07
1.42696e-07
1.4243e-07
1.42357e-07
1.42174e-07
1.42073e-07
1.42043e-07
1.42006e-07
1.42013e-07
1.41997e-07
1.42008e-07
1.42e-07
1.42008e-07
1.42003e-07
1.42009e-07
1.42005e-07
1.42009e-07
1.42007e-07
1.42009e-07
1.42007e-07
1.42009e-07
1.42008e-07
1.42009e-07
1.42008e-07
1.42009e-07
1.42009e-07
1.42009e-07
1.42009e-07
1.42008e-07
1.42009e-07
1.42008e-07
1.42009e-07
1.42007e-07
1.42009e-07
1.42007e-07
1.42009e-07
1.42006e-07
1.42009e-07
1.42003e-07
1.42008e-07
1.42e-07
1.42008e-07
1.41997e-07
1.42013e-07
1.42006e-07
1.42043e-07
1.42073e-07
1.42174e-07
1.42357e-07
1.4243e-07
1.42696e-07
1.27754e-07
1.2757e-07
1.27548e-07
1.27404e-07
1.27314e-07
1.27291e-07
1.27253e-07
1.27263e-07
1.27245e-07
1.27257e-07
1.27248e-07
1.27257e-07
1.27251e-07
1.27257e-07
1.27254e-07
1.27257e-07
1.27255e-07
1.27257e-07
1.27255e-07
1.27257e-07
1.27256e-07
1.27257e-07
1.27257e-07
1.27257e-07
1.27257e-07
1.27257e-07
1.27257e-07
1.27257e-07
1.27257e-07
1.27256e-07
1.27257e-07
1.27255e-07
1.27257e-07
1.27255e-07
1.27257e-07
1.27254e-07
1.27257e-07
1.27251e-07
1.27257e-07
1.27248e-07
1.27257e-07
1.27245e-07
1.27263e-07
1.27254e-07
1.27291e-07
1.27314e-07
1.27404e-07
1.27548e-07
1.2757e-07
1.27754e-07
1.14462e-07
1.14382e-07
1.1444e-07
1.14348e-07
1.14266e-07
1.14252e-07
1.14212e-07
1.14225e-07
1.14204e-07
1.14218e-07
1.14207e-07
1.14218e-07
1.14211e-07
1.14217e-07
1.14213e-07
1.14218e-07
1.14214e-07
1.14217e-07
1.14215e-07
1.14217e-07
1.14216e-07
1.14217e-07
1.14216e-07
1.14217e-07
1.14217e-07
1.14217e-07
1.14217e-07
1.14216e-07
1.14217e-07
1.14216e-07
1.14217e-07
1.14215e-07
1.14218e-07
1.14214e-07
1.14218e-07
1.14213e-07
1.14217e-07
1.14211e-07
1.14218e-07
1.14207e-07
1.14218e-07
1.14204e-07
1.14225e-07
1.14212e-07
1.14252e-07
1.14266e-07
1.14348e-07
1.1444e-07
1.14382e-07
1.14462e-07
1.02947e-07
1.02928e-07
1.03011e-07
1.02944e-07
1.02871e-07
1.02861e-07
1.02822e-07
1.02835e-07
1.02815e-07
1.02829e-07
1.02818e-07
1.02828e-07
1.02821e-07
1.02828e-07
1.02823e-07
1.02828e-07
1.02824e-07
1.02828e-07
1.02825e-07
1.02827e-07
1.02826e-07
1.02827e-07
1.02827e-07
1.02827e-07
1.02827e-07
1.02827e-07
1.02827e-07
1.02827e-07
1.02827e-07
1.02826e-07
1.02827e-07
1.02825e-07
1.02828e-07
1.02824e-07
1.02828e-07
1.02823e-07
1.02828e-07
1.02821e-07
1.02828e-07
1.02818e-07
1.02829e-07
1.02815e-07
1.02835e-07
1.02822e-07
1.02861e-07
1.02871e-07
1.02944e-07
1.03011e-07
1.02928e-07
1.02947e-07
9.32844e-08
9.33283e-08
9.34381e-08
9.33957e-08
9.33316e-08
9.33255e-08
9.32869e-08
9.33006e-08
9.328e-08
9.32942e-08
9.32831e-08
9.32933e-08
9.32863e-08
9.3293e-08
9.32884e-08
9.32931e-08
9.32896e-08
9.32929e-08
9.32906e-08
9.32926e-08
9.32913e-08
9.32925e-08
9.32917e-08
9.32923e-08
9.3292e-08
9.3292e-08
9.32923e-08
9.32917e-08
9.32925e-08
9.32913e-08
9.32926e-08
9.32906e-08
9.32929e-08
9.32896e-08
9.32931e-08
9.32884e-08
9.3293e-08
9.32863e-08
9.32932e-08
9.32831e-08
9.32942e-08
9.328e-08
9.33005e-08
9.32869e-08
9.33254e-08
9.33316e-08
9.33957e-08
9.34381e-08
9.33282e-08
9.32844e-08
8.48327e-08
8.49371e-08
8.50683e-08
8.50468e-08
8.49903e-08
8.49875e-08
8.49498e-08
8.49638e-08
8.49433e-08
8.49575e-08
8.49463e-08
8.49565e-08
8.49495e-08
8.49561e-08
8.49516e-08
8.49562e-08
8.49527e-08
8.4956e-08
8.49537e-08
8.49557e-08
8.49544e-08
8.49556e-08
8.49547e-08
8.49554e-08
8.49551e-08
8.49551e-08
8.49554e-08
8.49547e-08
8.49556e-08
8.49544e-08
8.49557e-08
8.49537e-08
8.4956e-08
8.49527e-08
8.49562e-08
8.49516e-08
8.49561e-08
8.49495e-08
8.49564e-08
8.49464e-08
8.49575e-08
8.49433e-08
8.49638e-08
8.49499e-08
8.49875e-08
8.49903e-08
8.50468e-08
8.50682e-08
8.4937e-08
8.48327e-08
7.74085e-08
7.73555e-08
7.74765e-08
7.74661e-08
7.74217e-08
7.74209e-08
7.73872e-08
7.73994e-08
7.73806e-08
7.73929e-08
7.73826e-08
7.73914e-08
7.7385e-08
7.73909e-08
7.73867e-08
7.73907e-08
7.73876e-08
7.73906e-08
7.73884e-08
7.73903e-08
7.7389e-08
7.73901e-08
7.73893e-08
7.73899e-08
7.73897e-08
7.73897e-08
7.73899e-08
7.73893e-08
7.73901e-08
7.7389e-08
7.73903e-08
7.73884e-08
7.73906e-08
7.73876e-08
7.73908e-08
7.73867e-08
7.73909e-08
7.7385e-08
7.73914e-08
7.73826e-08
7.73928e-08
7.73805e-08
7.73994e-08
7.73872e-08
7.74208e-08
7.74216e-08
7.74661e-08
7.74765e-08
7.73554e-08
7.74085e-08
7.08649e-08
7.08509e-08
7.09826e-08
7.09865e-08
7.09484e-08
7.09499e-08
7.09176e-08
7.09297e-08
7.09112e-08
7.09232e-08
7.09131e-08
7.09218e-08
7.09154e-08
7.09211e-08
7.0917e-08
7.0921e-08
7.09179e-08
7.09208e-08
7.09187e-08
7.09205e-08
7.09193e-08
7.09203e-08
7.09196e-08
7.09201e-08
7.09199e-08
7.09199e-08
7.09201e-08
7.09196e-08
7.09203e-08
7.09193e-08
7.09205e-08
7.09187e-08
7.09208e-08
7.09179e-08
7.0921e-08
7.0917e-08
7.09211e-08
7.09155e-08
7.09217e-08
7.09132e-08
7.09232e-08
7.09112e-08
7.09296e-08
7.09176e-08
7.09499e-08
7.09483e-08
7.09865e-08
7.09825e-08
7.08508e-08
7.08649e-08
6.4857e-08
6.48793e-08
6.50297e-08
6.50532e-08
6.50232e-08
6.50282e-08
6.49967e-08
6.50089e-08
6.49905e-08
6.50022e-08
6.49921e-08
6.50006e-08
6.49942e-08
6.49999e-08
6.49957e-08
6.49997e-08
6.49965e-08
6.49995e-08
6.49974e-08
6.49992e-08
6.49979e-08
6.4999e-08
6.49982e-08
6.49987e-08
6.49985e-08
6.49985e-08
6.49987e-08
6.49982e-08
6.4999e-08
6.49979e-08
6.49992e-08
6.49974e-08
6.49995e-08
6.49965e-08
6.49997e-08
6.49957e-08
6.49999e-08
6.49943e-08
6.50006e-08
6.49922e-08
6.50022e-08
6.49905e-08
6.50089e-08
6.49967e-08
6.50281e-08
6.50232e-08
6.50532e-08
6.50297e-08
6.48792e-08
6.48569e-08
5.95185e-08
5.95644e-08
5.97156e-08
5.97475e-08
5.97225e-08
5.97286e-08
5.96989e-08
5.97105e-08
5.9693e-08
5.97041e-08
5.96945e-08
5.97025e-08
5.96965e-08
5.97018e-08
5.96978e-08
5.97016e-08
5.96986e-08
5.97014e-08
5.96995e-08
5.97012e-08
5.97e-08
5.9701e-08
5.97002e-08
5.97008e-08
5.97005e-08
5.97005e-08
5.97008e-08
5.97002e-08
5.9701e-08
5.97e-08
5.97012e-08
5.96995e-08
5.97014e-08
5.96986e-08
5.97016e-08
5.96979e-08
5.97018e-08
5.96965e-08
5.97025e-08
5.96945e-08
5.97041e-08
5.9693e-08
5.97105e-08
5.96989e-08
5.97285e-08
5.97225e-08
5.97474e-08
5.97156e-08
5.95644e-08
5.95185e-08
5.47618e-08
5.48269e-08
5.49771e-08
5.50154e-08
5.4995e-08
5.5002e-08
5.49741e-08
5.49851e-08
5.49685e-08
5.49789e-08
5.49698e-08
5.49774e-08
5.49717e-08
5.49767e-08
5.49729e-08
5.49765e-08
5.49737e-08
5.49763e-08
5.49745e-08
5.49761e-08
5.49749e-08
5.49759e-08
5.49752e-08
5.49757e-08
5.49755e-08
5.49755e-08
5.49757e-08
5.49752e-08
5.49759e-08
5.4975e-08
5.49761e-08
5.49745e-08
5.49764e-08
5.49737e-08
5.49765e-08
5.49729e-08
5.49767e-08
5.49717e-08
5.49773e-08
5.49698e-08
5.49789e-08
5.49685e-08
5.4985e-08
5.49741e-08
5.50019e-08
5.4995e-08
5.50154e-08
5.49771e-08
5.48269e-08
5.47618e-08
5.05133e-08
5.05938e-08
5.07417e-08
5.07849e-08
5.07685e-08
5.07761e-08
5.07499e-08
5.07603e-08
5.07446e-08
5.07544e-08
5.07458e-08
5.07529e-08
5.07475e-08
5.07523e-08
5.07488e-08
5.07521e-08
5.07494e-08
5.0752e-08
5.07502e-08
5.07517e-08
5.07507e-08
5.07516e-08
5.07509e-08
5.07514e-08
5.07512e-08
5.07512e-08
5.07514e-08
5.07509e-08
5.07516e-08
5.07507e-08
5.07517e-08
5.07502e-08
5.0752e-08
5.07494e-08
5.07521e-08
5.07488e-08
5.07523e-08
5.07476e-08
5.07529e-08
5.07459e-08
5.07544e-08
5.07446e-08
5.07603e-08
5.07499e-08
5.0776e-08
5.07684e-08
5.07849e-08
5.07417e-08
5.05937e-08
5.05132e-08
4.67107e-08
4.68032e-08
4.69481e-08
4.69946e-08
4.69817e-08
4.69899e-08
4.69653e-08
4.69751e-08
4.69604e-08
4.69695e-08
4.69614e-08
4.69681e-08
4.6963e-08
4.69675e-08
4.69642e-08
4.69673e-08
4.69648e-08
4.69672e-08
4.69656e-08
4.6967e-08
4.6966e-08
4.69668e-08
4.69662e-08
4.69667e-08
4.69665e-08
4.69665e-08
4.69667e-08
4.69662e-08
4.69668e-08
4.6966e-08
4.6967e-08
4.69656e-08
4.69672e-08
4.69648e-08
4.69673e-08
4.69642e-08
4.69675e-08
4.6963e-08
4.69681e-08
4.69615e-08
4.69694e-08
4.69604e-08
4.69751e-08
4.69653e-08
4.69898e-08
4.69817e-08
4.69946e-08
4.6948e-08
4.68032e-08
4.67107e-08
4.33009e-08
4.34026e-08
4.35436e-08
4.35925e-08
4.35826e-08
4.35911e-08
4.35682e-08
4.35773e-08
4.35635e-08
4.3572e-08
4.35645e-08
4.35707e-08
4.35659e-08
4.35701e-08
4.3567e-08
4.357e-08
4.35676e-08
4.35699e-08
4.35683e-08
4.35697e-08
4.35687e-08
4.35695e-08
4.35689e-08
4.35694e-08
4.35692e-08
4.35692e-08
4.35694e-08
4.35689e-08
4.35695e-08
4.35687e-08
4.35697e-08
4.35683e-08
4.35699e-08
4.35676e-08
4.357e-08
4.3567e-08
4.35701e-08
4.35659e-08
4.35706e-08
4.35645e-08
4.35719e-08
4.35635e-08
4.35773e-08
4.35682e-08
4.3591e-08
4.35825e-08
4.35924e-08
4.35435e-08
4.34025e-08
4.33008e-08
4.0238e-08
4.03465e-08
4.04831e-08
4.05334e-08
4.05261e-08
4.05348e-08
4.05135e-08
4.0522e-08
4.05091e-08
4.0517e-08
4.051e-08
4.05158e-08
4.05113e-08
4.05152e-08
4.05123e-08
4.05151e-08
4.05129e-08
4.05151e-08
4.05136e-08
4.05149e-08
4.0514e-08
4.05147e-08
4.05142e-08
4.05146e-08
4.05144e-08
4.05144e-08
4.05146e-08
4.05142e-08
4.05147e-08
4.0514e-08
4.05149e-08
4.05136e-08
4.05151e-08
4.05129e-08
4.05151e-08
4.05123e-08
4.05153e-08
4.05114e-08
4.05157e-08
4.051e-08
4.05169e-08
4.05091e-08
4.0522e-08
4.05135e-08
4.05348e-08
4.05261e-08
4.05333e-08
4.0483e-08
4.03465e-08
4.0238e-08
3.74824e-08
3.75958e-08
3.77274e-08
3.77784e-08
3.77734e-08
3.77823e-08
3.77624e-08
3.77703e-08
3.77583e-08
3.77656e-08
3.77591e-08
3.77645e-08
3.77604e-08
3.7764e-08
3.77613e-08
3.77639e-08
3.77619e-08
3.77639e-08
3.77625e-08
3.77637e-08
3.77629e-08
3.77636e-08
3.77631e-08
3.77635e-08
3.77633e-08
3.77633e-08
3.77635e-08
3.77631e-08
3.77636e-08
3.77629e-08
3.77637e-08
3.77625e-08
3.77639e-08
3.77619e-08
3.77639e-08
3.77613e-08
3.7764e-08
3.77604e-08
3.77645e-08
3.77591e-08
3.77656e-08
3.77583e-08
3.77703e-08
3.77624e-08
3.77822e-08
3.77734e-08
3.77784e-08
3.77274e-08
3.75957e-08
3.74824e-08
3.49997e-08
3.51161e-08
3.52427e-08
3.52937e-08
3.52907e-08
3.52995e-08
3.52811e-08
3.52885e-08
3.52773e-08
3.5284e-08
3.5278e-08
3.5283e-08
3.52792e-08
3.52826e-08
3.52801e-08
3.52825e-08
3.52806e-08
3.52825e-08
3.52812e-08
3.52824e-08
3.52816e-08
3.52822e-08
3.52817e-08
3.52821e-08
3.5282e-08
3.5282e-08
3.52821e-08
3.52817e-08
3.52822e-08
3.52816e-08
3.52824e-08
3.52812e-08
3.52825e-08
3.52806e-08
3.52825e-08
3.52801e-08
3.52826e-08
3.52792e-08
3.5283e-08
3.5278e-08
3.5284e-08
3.52773e-08
3.52884e-08
3.52811e-08
3.52995e-08
3.52906e-08
3.52937e-08
3.52426e-08
3.51161e-08
3.49996e-08
3.27595e-08
3.28776e-08
3.29989e-08
3.30495e-08
3.30481e-08
3.3057e-08
3.30398e-08
3.30467e-08
3.30363e-08
3.30426e-08
3.3037e-08
3.30416e-08
3.30381e-08
3.30413e-08
3.30389e-08
3.30412e-08
3.30394e-08
3.30412e-08
3.304e-08
3.30411e-08
3.30404e-08
3.3041e-08
3.30405e-08
3.30409e-08
3.30407e-08
3.30407e-08
3.30409e-08
3.30405e-08
3.3041e-08
3.30404e-08
3.30411e-08
3.304e-08
3.30412e-08
3.30395e-08
3.30412e-08
3.30389e-08
3.30413e-08
3.30381e-08
3.30416e-08
3.3037e-08
3.30425e-08
3.30363e-08
3.30467e-08
3.30398e-08
3.30569e-08
3.30481e-08
3.30495e-08
3.29988e-08
3.28775e-08
3.27594e-08
3.07354e-08
3.08539e-08
3.09699e-08
3.10198e-08
3.10197e-08
3.10285e-08
3.10127e-08
3.1019e-08
3.10094e-08
3.10152e-08
3.101e-08
3.10143e-08
3.10111e-08
3.1014e-08
3.10119e-08
3.1014e-08
3.10124e-08
3.1014e-08
3.10129e-08
3.10139e-08
3.10132e-08
3.10138e-08
3.10134e-08
3.10137e-08
3.10136e-08
3.10136e-08
3.10137e-08
3.10134e-08
3.10138e-08
3.10133e-08
3.10139e-08
3.10129e-08
3.1014e-08
3.10124e-08
3.1014e-08
3.10119e-08
3.1014e-08
3.10111e-08
3.10143e-08
3.101e-08
3.10152e-08
3.10094e-08
3.1019e-08
3.10126e-08
3.10285e-08
3.10197e-08
3.10197e-08
3.09698e-08
3.08538e-08
3.07353e-08
2.8904e-08
2.90218e-08
2.91326e-08
2.91815e-08
2.91826e-08
2.91913e-08
2.91766e-08
2.91825e-08
2.91736e-08
2.91789e-08
2.91742e-08
2.91782e-08
2.91752e-08
2.91779e-08
2.9176e-08
2.91779e-08
2.91764e-08
2.9178e-08
2.9177e-08
2.91779e-08
2.91773e-08
2.91778e-08
2.91774e-08
2.91777e-08
2.91776e-08
2.91776e-08
2.91777e-08
2.91774e-08
2.91778e-08
2.91773e-08
2.91779e-08
2.9177e-08
2.9178e-08
2.91764e-08
2.91779e-08
2.9176e-08
2.91779e-08
2.91752e-08
2.91782e-08
2.91742e-08
2.91789e-08
2.91736e-08
2.91825e-08
2.91766e-08
2.91912e-08
2.91826e-08
2.91814e-08
2.91325e-08
2.90217e-08
2.89039e-08
2.72447e-08
2.73609e-08
2.74667e-08
2.75143e-08
2.75164e-08
2.75249e-08
2.75113e-08
2.75169e-08
2.75087e-08
2.75136e-08
2.75092e-08
2.75129e-08
2.75102e-08
2.75127e-08
2.75109e-08
2.75127e-08
2.75114e-08
2.75128e-08
2.75119e-08
2.75128e-08
2.75122e-08
2.75127e-08
2.75123e-08
2.75126e-08
2.75125e-08
2.75125e-08
2.75126e-08
2.75123e-08
2.75127e-08
2.75122e-08
2.75128e-08
2.75119e-08
2.75128e-08
2.75114e-08
2.75128e-08
2.75109e-08
2.75127e-08
2.75102e-08
2.75129e-08
2.75092e-08
2.75136e-08
2.75086e-08
2.75169e-08
2.75113e-08
2.75249e-08
2.75164e-08
2.75143e-08
2.74666e-08
2.73608e-08
2.72447e-08
2.57394e-08
2.5853e-08
2.5954e-08
2.60003e-08
2.60032e-08
2.60115e-08
2.5999e-08
2.60042e-08
2.59966e-08
2.60011e-08
2.59971e-08
2.60006e-08
2.5998e-08
2.60004e-08
2.59988e-08
2.60005e-08
2.59992e-08
2.60006e-08
2.59997e-08
2.60005e-08
2.6e-08
2.60005e-08
2.60001e-08
2.60004e-08
2.60003e-08
2.60003e-08
2.60004e-08
2.60001e-08
2.60005e-08
2.6e-08
2.60005e-08
2.59997e-08
2.60006e-08
2.59992e-08
2.60005e-08
2.59988e-08
2.60004e-08
2.5998e-08
2.60006e-08
2.59971e-08
2.60011e-08
2.59966e-08
2.60041e-08
2.5999e-08
2.60115e-08
2.60031e-08
2.60003e-08
2.5954e-08
2.5853e-08
2.57394e-08
2.43719e-08
2.44822e-08
2.45787e-08
2.46235e-08
2.4627e-08
2.46352e-08
2.46237e-08
2.46285e-08
2.46215e-08
2.46257e-08
2.4622e-08
2.46253e-08
2.46229e-08
2.46252e-08
2.46236e-08
2.46253e-08
2.46241e-08
2.46253e-08
2.46246e-08
2.46253e-08
2.46248e-08
2.46253e-08
2.4625e-08
2.46252e-08
2.46251e-08
2.46251e-08
2.46252e-08
2.4625e-08
2.46253e-08
2.46248e-08
2.46253e-08
2.46246e-08
2.46253e-08
2.46241e-08
2.46253e-08
2.46236e-08
2.46252e-08
2.46229e-08
2.46252e-08
2.46221e-08
2.46257e-08
2.46215e-08
2.46285e-08
2.46236e-08
2.46351e-08
2.4627e-08
2.46235e-08
2.45787e-08
2.44822e-08
2.43718e-08
2.31275e-08
2.32345e-08
2.33266e-08
2.33698e-08
2.33738e-08
2.33818e-08
2.33712e-08
2.33757e-08
2.33693e-08
2.33732e-08
2.33699e-08
2.33729e-08
2.33708e-08
2.33728e-08
2.33714e-08
2.3373e-08
2.33719e-08
2.33731e-08
2.33723e-08
2.33731e-08
2.33726e-08
2.3373e-08
2.33727e-08
2.33729e-08
2.33729e-08
2.33729e-08
2.33729e-08
2.33727e-08
2.3373e-08
2.33726e-08
2.33731e-08
2.33723e-08
2.33731e-08
2.33719e-08
2.3373e-08
2.33714e-08
2.33729e-08
2.33708e-08
2.33729e-08
2.33699e-08
2.33732e-08
2.33693e-08
2.33757e-08
2.33712e-08
2.33818e-08
2.33738e-08
2.33697e-08
2.33265e-08
2.32345e-08
2.31275e-08
)
;

boundaryField
{
    fuel
    {
        type            fixedValue;
        value           uniform 0;
    }
    wall
    {
        type            zeroGradient;
    }
    outlet
    {
        type            zeroGradient;
    }
    frontAndBack
    {
        type            empty;
    }
    procBoundary1to0
    {
        type            processor;
        value           nonuniform List<scalar> 
50
(
2.19938e-08
2.20974e-08
2.2185e-08
2.22266e-08
2.22311e-08
2.22389e-08
2.22292e-08
2.22334e-08
2.22275e-08
2.22312e-08
2.22281e-08
2.22309e-08
2.2229e-08
2.22309e-08
2.22296e-08
2.22311e-08
2.22301e-08
2.22312e-08
2.22305e-08
2.22312e-08
2.22308e-08
2.22312e-08
2.22309e-08
2.22311e-08
2.2231e-08
2.2231e-08
2.22311e-08
2.22309e-08
2.22312e-08
2.22308e-08
2.22312e-08
2.22305e-08
2.22312e-08
2.22301e-08
2.22311e-08
2.22297e-08
2.22309e-08
2.2229e-08
2.22309e-08
2.22281e-08
2.22312e-08
2.22275e-08
2.22334e-08
2.22291e-08
2.22388e-08
2.22311e-08
2.22266e-08
2.2185e-08
2.20974e-08
2.19937e-08
)
;
    }
}


// ************************************************************************* //
