/*--------------------------------*- C++ -*----------------------------------*\
| =========                 |                                                 |
| \\      /  F ield         | OpenFOAM: The Open Source CFD Toolbox           |
|  \\    /   O peration     | Version:  dev                                   |
|   \\  /    A nd           | Web:      www.OpenFOAM.org                      |
|    \\/     M anipulation  |                                                 |
\*---------------------------------------------------------------------------*/
FoamFile
{
    version     2.0;
    format      ascii;
    class       volScalarField;
    location    "0.06";
    object      CH2(S);
}
// * * * * * * * * * * * * * * * * * * * * * * * * * * * * * * * * * * * * * //

dimensions      [0 0 0 0 0 0 0];

internalField   nonuniform List<scalar> 
25
(
8.46381e-10
6.83559e-10
5.7113e-10
4.93712e-10
4.41533e-10
4.08447e-10
3.90566e-10
3.8537e-10
3.91143e-10
4.06554e-10
4.30715e-10
4.62357e-10
4.99914e-10
5.41975e-10
5.87135e-10
6.34039e-10
6.81379e-10
7.27877e-10
7.72251e-10
8.13155e-10
8.49174e-10
8.79063e-10
9.02368e-10
9.18494e-10
9.27965e-10
)
;

boundaryField
{
    wall
    {
        type            zeroGradient;
    }
    fuel
    {
        type            fixedValue;
        value           nonuniform 0();
    }
    outlet
    {
        type            inletOutlet;
        inletValue      nonuniform 0();
        value           nonuniform 0();
    }
    procBoundary1to0
    {
        type            processor;
        value           uniform 1.07866e-09;
    }
    procBoundary1to2
    {
        type            processor;
        value           uniform 9.30259e-10;
    }
}


// ************************************************************************* //
