/*--------------------------------*- C++ -*----------------------------------*\
| =========                 |                                                 |
| \\      /  F ield         | OpenFOAM: The Open Source CFD Toolbox           |
|  \\    /   O peration     | Version:  dev                                   |
|   \\  /    A nd           | Web:      www.OpenFOAM.org                      |
|    \\/     M anipulation  |                                                 |
\*---------------------------------------------------------------------------*/
FoamFile
{
    version     2.0;
    format      ascii;
    class       volScalarField;
    location    "0.06";
    object      CH3OH;
}
// * * * * * * * * * * * * * * * * * * * * * * * * * * * * * * * * * * * * * //

dimensions      [0 0 0 0 0 0 0];

internalField   nonuniform List<scalar> 
250
(
7.10998e-08
7.31534e-08
7.10378e-08
7.10595e-08
6.88052e-08
6.86141e-08
6.84774e-08
6.79718e-08
6.84227e-08
6.78663e-08
6.27698e-08
6.39532e-08
6.17903e-08
6.18137e-08
5.97626e-08
5.95961e-08
5.94745e-08
5.90029e-08
5.94309e-08
5.89048e-08
5.89099e-08
5.92895e-08
5.89202e-08
5.93873e-08
5.92895e-08
5.97847e-08
6.03863e-08
6.22758e-08
6.0837e-08
6.11591e-08
5.46849e-08
5.52224e-08
5.3115e-08
5.31426e-08
5.13222e-08
5.11869e-08
5.10736e-08
5.06451e-08
5.10396e-08
5.056e-08
5.05667e-08
5.09144e-08
5.05708e-08
5.09983e-08
5.0911e-08
5.13538e-08
5.18664e-08
5.35972e-08
5.24818e-08
5.32016e-08
4.70856e-08
4.71603e-08
4.51934e-08
4.52212e-08
4.36521e-08
4.35613e-08
4.34543e-08
4.30772e-08
4.34259e-08
4.30122e-08
4.30195e-08
4.33214e-08
4.30133e-08
4.33864e-08
4.33209e-08
4.369e-08
4.41122e-08
4.5645e-08
4.48251e-08
4.57832e-08
4.02086e-08
3.99669e-08
3.82114e-08
3.82298e-08
3.68813e-08
3.67527e-08
3.67095e-08
3.63859e-08
3.67012e-08
3.62955e-08
3.63017e-08
3.6598e-08
3.63261e-08
3.66637e-08
3.6548e-08
3.68831e-08
3.73015e-08
3.86055e-08
3.80511e-08
3.9098e-08
3.41834e-08
3.38683e-08
3.23816e-08
3.23817e-08
3.13055e-08
3.12148e-08
3.11794e-08
3.09191e-08
3.11733e-08
3.08482e-08
3.0855e-08
3.10922e-08
3.08725e-08
3.11394e-08
3.10528e-08
3.13014e-08
3.16459e-08
3.26941e-08
3.23711e-08
3.33719e-08
2.94963e-08
2.9101e-08
2.79155e-08
2.789e-08
2.70835e-08
2.70168e-08
2.69814e-08
2.67841e-08
2.69769e-08
2.6729e-08
2.67373e-08
2.69146e-08
2.67506e-08
2.6948e-08
2.68957e-08
2.70711e-08
2.73472e-08
2.81307e-08
2.7999e-08
2.88473e-08
2.62203e-08
2.58141e-08
2.49205e-08
2.48672e-08
2.42989e-08
2.42441e-08
2.42103e-08
2.40681e-08
2.42057e-08
2.40225e-08
2.40324e-08
2.41583e-08
2.40466e-08
2.41819e-08
2.41597e-08
2.42772e-08
2.44977e-08
2.50385e-08
2.5053e-08
2.56953e-08
2.43108e-08
2.39278e-08
2.32699e-08
2.31927e-08
2.28038e-08
2.27525e-08
2.27216e-08
2.26196e-08
2.27159e-08
2.25777e-08
2.25893e-08
2.26784e-08
2.26075e-08
2.26962e-08
2.26968e-08
2.27739e-08
2.29564e-08
2.33107e-08
2.34255e-08
2.38794e-08
2.34304e-08
2.30738e-08
2.25735e-08
2.24799e-08
2.22047e-08
2.21529e-08
2.21249e-08
2.20462e-08
2.21181e-08
2.20038e-08
2.20169e-08
2.20859e-08
2.20403e-08
2.21008e-08
2.21161e-08
2.21705e-08
2.23297e-08
2.25687e-08
2.27426e-08
2.30774e-08
2.3096e-08
2.27598e-08
2.23571e-08
2.22545e-08
2.20463e-08
2.19929e-08
2.19677e-08
2.19005e-08
2.19603e-08
2.18558e-08
2.18699e-08
2.19309e-08
2.18984e-08
2.19444e-08
2.19676e-08
2.20118e-08
2.21552e-08
2.23341e-08
2.25351e-08
2.28182e-08
2.29477e-08
2.26298e-08
2.2292e-08
2.21852e-08
2.20189e-08
2.19645e-08
2.19422e-08
2.18809e-08
2.19346e-08
2.18343e-08
2.18486e-08
2.19071e-08
2.18812e-08
2.192e-08
2.19467e-08
2.19869e-08
2.21169e-08
2.22654e-08
2.24738e-08
2.27403e-08
2.28536e-08
2.2552e-08
2.2256e-08
2.21481e-08
2.20074e-08
2.19527e-08
2.19328e-08
2.18748e-08
2.1925e-08
2.18272e-08
2.18412e-08
2.1899e-08
2.18764e-08
2.19116e-08
2.19396e-08
2.19781e-08
2.2098e-08
2.22304e-08
2.24374e-08
2.26975e-08
)
;

boundaryField
{
    fuel
    {
        type            fixedValue;
        value           nonuniform 0();
    }
    wall
    {
        type            zeroGradient;
    }
    outlet
    {
        type            zeroGradient;
    }
    frontAndBack
    {
        type            empty;
    }
    procBoundary1to0
    {
        type            processor;
        value           nonuniform List<scalar> 
21
(
7.939e-08
8.25779e-08
8.06579e-08
8.06796e-08
7.82651e-08
7.80521e-08
7.78983e-08
7.73701e-08
7.78328e-08
7.72612e-08
6.7874e-08
6.7874e-08
6.82735e-08
6.78866e-08
6.83823e-08
6.8284e-08
6.88251e-08
6.94975e-08
7.15222e-08
6.96965e-08
6.95117e-08
)
;
    }
}


// ************************************************************************* //
