/*--------------------------------*- C++ -*----------------------------------*\
| =========                 |                                                 |
| \\      /  F ield         | OpenFOAM: The Open Source CFD Toolbox           |
|  \\    /   O peration     | Version:  dev                                   |
|   \\  /    A nd           | Web:      www.OpenFOAM.org                      |
|    \\/     M anipulation  |                                                 |
\*---------------------------------------------------------------------------*/
FoamFile
{
    version     2.0;
    format      ascii;
    class       volScalarField;
    location    "0.06";
    object      CO2;
}
// * * * * * * * * * * * * * * * * * * * * * * * * * * * * * * * * * * * * * //

dimensions      [0 0 0 0 0 0 0];

internalField   nonuniform List<scalar> 
250
(
0.0484599
0.0479204
0.0476303
0.0474915
0.0474489
0.0474658
0.0474437
0.0474712
0.0474514
0.0474696
0.0484406
0.0479734
0.0477218
0.0476027
0.0475644
0.0475777
0.0475593
0.0475817
0.0475657
0.0475807
0.047578
0.0475723
0.0475778
0.047569
0.0475718
0.0475781
0.0475918
0.0477152
0.0479343
0.0483147
0.0484077
0.0480071
0.0477881
0.0476865
0.0476522
0.0476615
0.047647
0.0476643
0.0476521
0.0476637
0.0476618
0.0476572
0.0476615
0.0476546
0.0476572
0.0476628
0.0476779
0.0477824
0.0479786
0.0483096
0.048361
0.0480202
0.0478293
0.047743
0.0477126
0.0477182
0.0477074
0.0477198
0.0477112
0.0477197
0.0477185
0.0477149
0.0477182
0.0477129
0.0477154
0.0477203
0.0477366
0.047824
0.0479999
0.0482853
0.0483017
0.0480137
0.0478479
0.0477748
0.0477482
0.0477506
0.047743
0.0477512
0.0477458
0.0477515
0.0477509
0.0477483
0.0477506
0.0477467
0.047749
0.0477534
0.0477703
0.0478427
0.0479995
0.0482434
0.0482301
0.0479899
0.0478474
0.047786
0.047763
0.0477629
0.047758
0.0477628
0.0477599
0.0477634
0.0477633
0.0477614
0.0477629
0.0477603
0.0477623
0.0477662
0.0477831
0.0478424
0.0479804
0.0481872
0.0481538
0.0479539
0.0478327
0.0477815
0.047762
0.0477601
0.0477572
0.0477595
0.0477585
0.0477602
0.0477604
0.0477592
0.0477601
0.0477585
0.0477603
0.0477637
0.0477797
0.0478279
0.0479476
0.0481212
0.048075
0.0479102
0.0478088
0.0477663
0.0477501
0.0477471
0.0477457
0.0477463
0.0477465
0.047747
0.0477474
0.0477468
0.0477472
0.0477462
0.0477478
0.0477507
0.0477655
0.0478044
0.0479059
0.0480503
0.047998
0.0478634
0.0477803
0.0477452
0.047732
0.0477284
0.047728
0.0477275
0.0477285
0.0477282
0.0477287
0.0477285
0.0477286
0.0477281
0.0477294
0.0477321
0.047745
0.0477764
0.0478606
0.0479795
0.0479265
0.0478176
0.047751
0.0477221
0.0477115
0.0477077
0.0477079
0.0477067
0.0477081
0.0477074
0.0477078
0.047708
0.0477078
0.0477078
0.0477088
0.0477112
0.0477223
0.0477475
0.0478159
0.0479129
0.0478638
0.0477762
0.0477236
0.0476996
0.0476913
0.0476874
0.047688
0.0476865
0.047688
0.047687
0.0476875
0.0476879
0.0476875
0.0476879
0.0476886
0.0476909
0.0477001
0.0477205
0.0477751
0.0478539
0.0478131
0.0477419
0.0477004
0.0476801
0.0476736
0.0476698
0.0476705
0.047669
0.0476705
0.0476693
0.0476697
0.0476704
0.0476699
0.0476705
0.0476709
0.0476732
0.0476808
0.0476978
0.0477413
0.0478059
0.0477798
0.0477189
0.0476847
0.0476668
0.0476614
0.0476577
0.0476585
0.047657
0.0476584
0.0476572
0.0476575
0.0476584
0.0476577
0.0476585
0.0476587
0.047661
0.0476675
0.0476824
0.0477186
0.0477743
)
;

boundaryField
{
    fuel
    {
        type            fixedValue;
        value           nonuniform 0();
    }
    wall
    {
        type            zeroGradient;
    }
    outlet
    {
        type            zeroGradient;
    }
    frontAndBack
    {
        type            empty;
    }
    procBoundary1to0
    {
        type            processor;
        value           nonuniform List<scalar> 
21
(
0.0484674
0.0478513
0.0475157
0.0473547
0.0473075
0.0473273
0.0473018
0.0473338
0.0473108
0.0473319
0.0474661
0.0474661
0.0474594
0.0474661
0.0474555
0.0474585
0.0474654
0.0474782
0.0476221
0.047868
0.0483011
)
;
    }
}


// ************************************************************************* //
