/*--------------------------------*- C++ -*----------------------------------*\
| =========                 |                                                 |
| \\      /  F ield         | OpenFOAM: The Open Source CFD Toolbox           |
|  \\    /   O peration     | Version:  dev                                   |
|   \\  /    A nd           | Web:      www.OpenFOAM.org                      |
|    \\/     M anipulation  |                                                 |
\*---------------------------------------------------------------------------*/
FoamFile
{
    version     2.0;
    format      ascii;
    class       volScalarField;
    location    "0.06";
    object      H;
}
// * * * * * * * * * * * * * * * * * * * * * * * * * * * * * * * * * * * * * //

dimensions      [0 0 0 0 0 0 0];

internalField   nonuniform List<scalar> 
2000
(
7.74221e-06
7.75838e-06
7.77721e-06
7.78572e-06
7.7873e-06
7.78892e-06
7.78844e-06
7.78908e-06
7.78855e-06
7.78895e-06
7.78859e-06
7.78886e-06
7.78861e-06
7.78879e-06
7.78863e-06
7.78875e-06
7.78863e-06
7.78873e-06
7.78866e-06
7.78872e-06
7.78867e-06
7.7887e-06
7.78867e-06
7.78869e-06
7.78869e-06
7.78869e-06
7.78869e-06
7.78867e-06
7.7887e-06
7.78867e-06
7.78872e-06
7.78866e-06
7.78873e-06
7.78863e-06
7.78875e-06
7.78863e-06
7.78879e-06
7.78861e-06
7.78886e-06
7.78859e-06
7.78896e-06
7.78856e-06
7.78908e-06
7.78844e-06
7.78892e-06
7.7873e-06
7.78572e-06
7.77721e-06
7.75838e-06
7.74221e-06
3.79919e-05
3.80597e-05
3.8138e-05
3.81735e-05
3.81797e-05
3.81867e-05
3.81845e-05
3.81873e-05
3.8185e-05
3.81867e-05
3.81851e-05
3.81863e-05
3.81853e-05
3.8186e-05
3.81853e-05
3.81859e-05
3.81854e-05
3.81858e-05
3.81855e-05
3.81857e-05
3.81856e-05
3.81857e-05
3.81855e-05
3.81856e-05
3.81856e-05
3.81856e-05
3.81856e-05
3.81855e-05
3.81857e-05
3.81856e-05
3.81857e-05
3.81855e-05
3.81858e-05
3.81854e-05
3.81859e-05
3.81853e-05
3.8186e-05
3.81853e-05
3.81863e-05
3.81851e-05
3.81867e-05
3.8185e-05
3.81873e-05
3.81845e-05
3.81866e-05
3.81797e-05
3.81735e-05
3.8138e-05
3.80597e-05
3.79919e-05
7.17123e-05
7.1824e-05
7.19449e-05
7.20012e-05
7.20079e-05
7.20204e-05
7.20154e-05
7.2021e-05
7.20163e-05
7.202e-05
7.20167e-05
7.20192e-05
7.2017e-05
7.20186e-05
7.20172e-05
7.20183e-05
7.20173e-05
7.20182e-05
7.20176e-05
7.2018e-05
7.20177e-05
7.20179e-05
7.20177e-05
7.20178e-05
7.20178e-05
7.20178e-05
7.20178e-05
7.20177e-05
7.20179e-05
7.20177e-05
7.2018e-05
7.20176e-05
7.20182e-05
7.20173e-05
7.20184e-05
7.20172e-05
7.20186e-05
7.20171e-05
7.20192e-05
7.20168e-05
7.202e-05
7.20163e-05
7.2021e-05
7.20154e-05
7.20204e-05
7.20079e-05
7.20012e-05
7.19449e-05
7.1824e-05
7.17123e-05
9.73461e-05
9.75016e-05
9.76624e-05
9.77373e-05
9.77422e-05
9.77607e-05
9.77519e-05
9.7761e-05
9.77534e-05
9.77594e-05
9.77542e-05
9.77583e-05
9.77547e-05
9.77573e-05
9.77551e-05
9.77569e-05
9.77552e-05
9.77566e-05
9.77556e-05
9.77564e-05
9.77557e-05
9.77562e-05
9.77557e-05
9.7756e-05
9.77559e-05
9.77559e-05
9.7756e-05
9.77557e-05
9.77562e-05
9.77557e-05
9.77564e-05
9.77556e-05
9.77566e-05
9.77552e-05
9.77569e-05
9.7755e-05
9.77573e-05
9.77547e-05
9.77582e-05
9.77542e-05
9.77594e-05
9.77534e-05
9.7761e-05
9.77519e-05
9.77607e-05
9.77422e-05
9.77372e-05
9.76624e-05
9.75016e-05
9.73461e-05
0.00010938
0.000109555
0.000109735
0.000109816
0.000109817
0.000109839
0.000109828
0.000109839
0.00010983
0.000109837
0.000109831
0.000109836
0.000109831
0.000109835
0.000109832
0.000109834
0.000109832
0.000109834
0.000109832
0.000109833
0.000109833
0.000109833
0.000109833
0.000109833
0.000109833
0.000109833
0.000109833
0.000109833
0.000109833
0.000109833
0.000109833
0.000109832
0.000109834
0.000109832
0.000109834
0.000109832
0.000109835
0.000109831
0.000109836
0.000109831
0.000109837
0.00010983
0.000109839
0.000109828
0.000109839
0.000109817
0.000109816
0.000109735
0.000109555
0.00010938
0.000109238
0.000109418
0.000109607
0.000109688
0.000109686
0.00010971
0.000109696
0.000109709
0.000109698
0.000109707
0.000109699
0.000109705
0.0001097
0.000109704
0.000109701
0.000109703
0.000109701
0.000109703
0.000109702
0.000109703
0.000109702
0.000109702
0.000109702
0.000109702
0.000109702
0.000109702
0.000109702
0.000109702
0.000109702
0.000109702
0.000109703
0.000109702
0.000109703
0.000109701
0.000109703
0.000109701
0.000109704
0.0001097
0.000109705
0.000109699
0.000109707
0.000109698
0.000109709
0.000109696
0.00010971
0.000109686
0.000109688
0.000109607
0.000109418
0.000109238
0.000101964
0.00010214
0.000102335
0.000102414
0.000102411
0.000102435
0.000102421
0.000102434
0.000102423
0.000102432
0.000102424
0.00010243
0.000102425
0.000102429
0.000102426
0.000102428
0.000102426
0.000102428
0.000102426
0.000102428
0.000102427
0.000102427
0.000102427
0.000102427
0.000102427
0.000102427
0.000102427
0.000102427
0.000102427
0.000102427
0.000102428
0.000102426
0.000102428
0.000102426
0.000102428
0.000102426
0.000102429
0.000102425
0.00010243
0.000102424
0.000102432
0.000102423
0.000102434
0.000102421
0.000102435
0.000102411
0.000102414
0.000102335
0.00010214
0.000101964
9.17689e-05
9.19385e-05
9.21365e-05
9.22139e-05
9.22109e-05
9.22343e-05
9.222e-05
9.22333e-05
9.2222e-05
9.22309e-05
9.22232e-05
9.22294e-05
9.22242e-05
9.22281e-05
9.22247e-05
9.22274e-05
9.22249e-05
9.2227e-05
9.22254e-05
9.22266e-05
9.22257e-05
9.22263e-05
9.22257e-05
9.22261e-05
9.22259e-05
9.22259e-05
9.22261e-05
9.22257e-05
9.22263e-05
9.22257e-05
9.22266e-05
9.22254e-05
9.2227e-05
9.22249e-05
9.22274e-05
9.22247e-05
9.22281e-05
9.22242e-05
9.22293e-05
9.22233e-05
9.2231e-05
9.2222e-05
9.22333e-05
9.222e-05
9.22343e-05
9.22109e-05
9.22139e-05
9.21365e-05
9.19385e-05
9.17689e-05
8.11733e-05
8.13342e-05
8.15316e-05
8.16066e-05
8.16045e-05
8.16271e-05
8.16133e-05
8.16261e-05
8.16152e-05
8.16238e-05
8.16163e-05
8.16222e-05
8.16172e-05
8.1621e-05
8.16177e-05
8.16203e-05
8.16179e-05
8.16199e-05
8.16184e-05
8.16196e-05
8.16186e-05
8.16193e-05
8.16187e-05
8.1619e-05
8.16189e-05
8.16189e-05
8.1619e-05
8.16187e-05
8.16193e-05
8.16186e-05
8.16195e-05
8.16184e-05
8.16199e-05
8.16179e-05
8.16204e-05
8.16177e-05
8.1621e-05
8.16172e-05
8.16222e-05
8.16163e-05
8.16238e-05
8.16151e-05
8.16261e-05
8.16133e-05
8.1627e-05
8.16045e-05
8.16066e-05
8.15316e-05
8.13342e-05
8.11733e-05
7.14319e-05
7.15835e-05
7.17773e-05
7.18499e-05
7.18491e-05
7.18706e-05
7.18576e-05
7.18697e-05
7.18593e-05
7.18675e-05
7.18604e-05
7.1866e-05
7.18612e-05
7.18648e-05
7.18617e-05
7.18642e-05
7.18619e-05
7.18638e-05
7.18624e-05
7.18634e-05
7.18626e-05
7.18632e-05
7.18626e-05
7.18629e-05
7.18628e-05
7.18628e-05
7.18629e-05
7.18626e-05
7.18632e-05
7.18626e-05
7.18634e-05
7.18624e-05
7.18638e-05
7.18619e-05
7.18642e-05
7.18617e-05
7.18648e-05
7.18612e-05
7.1866e-05
7.18604e-05
7.18675e-05
7.18593e-05
7.18697e-05
7.18576e-05
7.18705e-05
7.18491e-05
7.18499e-05
7.17773e-05
7.15835e-05
7.14318e-05
6.29882e-05
6.31312e-05
6.33194e-05
6.33897e-05
6.33903e-05
6.34105e-05
6.33984e-05
6.34098e-05
6.34e-05
6.34076e-05
6.3401e-05
6.34062e-05
6.34017e-05
6.34051e-05
6.34022e-05
6.34045e-05
6.34023e-05
6.34041e-05
6.34028e-05
6.34038e-05
6.3403e-05
6.34035e-05
6.3403e-05
6.34033e-05
6.34032e-05
6.34032e-05
6.34033e-05
6.3403e-05
6.34035e-05
6.3403e-05
6.34038e-05
6.34028e-05
6.34041e-05
6.34023e-05
6.34045e-05
6.34022e-05
6.34051e-05
6.34018e-05
6.34062e-05
6.3401e-05
6.34077e-05
6.34e-05
6.34098e-05
6.33984e-05
6.34105e-05
6.33903e-05
6.33896e-05
6.33194e-05
6.31312e-05
6.29882e-05
5.56127e-05
5.57437e-05
5.59177e-05
5.59833e-05
5.59853e-05
5.60037e-05
5.5993e-05
5.60032e-05
5.59944e-05
5.60012e-05
5.59952e-05
5.59999e-05
5.59958e-05
5.59988e-05
5.59962e-05
5.59983e-05
5.59964e-05
5.5998e-05
5.59968e-05
5.59977e-05
5.59969e-05
5.59974e-05
5.5997e-05
5.59972e-05
5.59971e-05
5.59971e-05
5.59972e-05
5.5997e-05
5.59974e-05
5.59969e-05
5.59977e-05
5.59968e-05
5.5998e-05
5.59964e-05
5.59983e-05
5.59962e-05
5.59988e-05
5.59959e-05
5.59999e-05
5.59952e-05
5.60012e-05
5.59943e-05
5.60031e-05
5.5993e-05
5.60037e-05
5.59853e-05
5.59833e-05
5.59177e-05
5.57437e-05
5.56127e-05
4.97478e-05
4.98722e-05
5.00385e-05
5.01017e-05
5.01046e-05
5.0122e-05
5.01121e-05
5.01216e-05
5.01133e-05
5.01197e-05
5.01141e-05
5.01184e-05
5.01147e-05
5.01174e-05
5.0115e-05
5.01169e-05
5.01151e-05
5.01166e-05
5.01155e-05
5.01163e-05
5.01157e-05
5.01161e-05
5.01157e-05
5.0116e-05
5.01159e-05
5.01159e-05
5.0116e-05
5.01157e-05
5.01161e-05
5.01157e-05
5.01163e-05
5.01155e-05
5.01166e-05
5.01151e-05
5.0117e-05
5.0115e-05
5.01174e-05
5.01147e-05
5.01184e-05
5.01141e-05
5.01197e-05
5.01133e-05
5.01216e-05
5.01121e-05
5.0122e-05
5.01046e-05
5.01017e-05
5.00385e-05
4.98722e-05
4.97478e-05
4.49242e-05
4.50219e-05
4.51618e-05
4.52171e-05
4.52237e-05
4.52381e-05
4.52313e-05
4.52385e-05
4.52323e-05
4.5237e-05
4.52327e-05
4.5236e-05
4.52331e-05
4.52351e-05
4.52333e-05
4.52347e-05
4.52333e-05
4.52344e-05
4.52336e-05
4.52342e-05
4.52337e-05
4.5234e-05
4.52337e-05
4.52339e-05
4.52338e-05
4.52338e-05
4.52339e-05
4.52337e-05
4.5234e-05
4.52337e-05
4.52342e-05
4.52336e-05
4.52344e-05
4.52333e-05
4.52347e-05
4.52333e-05
4.52351e-05
4.52331e-05
4.52359e-05
4.52327e-05
4.5237e-05
4.52322e-05
4.52385e-05
4.52313e-05
4.52381e-05
4.52237e-05
4.52171e-05
4.51618e-05
4.50219e-05
4.49242e-05
4.08706e-05
4.09595e-05
4.10857e-05
4.11367e-05
4.1144e-05
4.11571e-05
4.11513e-05
4.11576e-05
4.11521e-05
4.11562e-05
4.11525e-05
4.11553e-05
4.11528e-05
4.11545e-05
4.11529e-05
4.11542e-05
4.11529e-05
4.11539e-05
4.11532e-05
4.11537e-05
4.11533e-05
4.11536e-05
4.11533e-05
4.11534e-05
4.11534e-05
4.11534e-05
4.11534e-05
4.11533e-05
4.11536e-05
4.11533e-05
4.11537e-05
4.11532e-05
4.11539e-05
4.1153e-05
4.11542e-05
4.11529e-05
4.11545e-05
4.11528e-05
4.11553e-05
4.11525e-05
4.11563e-05
4.11521e-05
4.11576e-05
4.11513e-05
4.11571e-05
4.1144e-05
4.11367e-05
4.10857e-05
4.09595e-05
4.08706e-05
3.76959e-05
3.77789e-05
3.78954e-05
3.79435e-05
3.79514e-05
3.79634e-05
3.79584e-05
3.79641e-05
3.79592e-05
3.79628e-05
3.79595e-05
3.79619e-05
3.79597e-05
3.79612e-05
3.79598e-05
3.79609e-05
3.79598e-05
3.79607e-05
3.796e-05
3.79605e-05
3.79601e-05
3.79603e-05
3.79601e-05
3.79602e-05
3.79602e-05
3.79602e-05
3.79602e-05
3.79601e-05
3.79603e-05
3.79601e-05
3.79605e-05
3.796e-05
3.79607e-05
3.79598e-05
3.79609e-05
3.79598e-05
3.79612e-05
3.79597e-05
3.79619e-05
3.79595e-05
3.79628e-05
3.79592e-05
3.79641e-05
3.79584e-05
3.79634e-05
3.79514e-05
3.79435e-05
3.78954e-05
3.77789e-05
3.76959e-05
3.50257e-05
3.5107e-05
3.52186e-05
3.52669e-05
3.52764e-05
3.52881e-05
3.52837e-05
3.52889e-05
3.52844e-05
3.52876e-05
3.52845e-05
3.52867e-05
3.52846e-05
3.5286e-05
3.52847e-05
3.52857e-05
3.52847e-05
3.52855e-05
3.52849e-05
3.52853e-05
3.52849e-05
3.52852e-05
3.52849e-05
3.52851e-05
3.5285e-05
3.5285e-05
3.52851e-05
3.52849e-05
3.52852e-05
3.52849e-05
3.52853e-05
3.52849e-05
3.52855e-05
3.52847e-05
3.52857e-05
3.52847e-05
3.5286e-05
3.52846e-05
3.52867e-05
3.52845e-05
3.52876e-05
3.52844e-05
3.52889e-05
3.52837e-05
3.52881e-05
3.52764e-05
3.52669e-05
3.52186e-05
3.5107e-05
3.50257e-05
3.29236e-05
3.30003e-05
3.3103e-05
3.31486e-05
3.31585e-05
3.31694e-05
3.31657e-05
3.31703e-05
3.31663e-05
3.31691e-05
3.31663e-05
3.31683e-05
3.31664e-05
3.31676e-05
3.31664e-05
3.31673e-05
3.31664e-05
3.31671e-05
3.31666e-05
3.3167e-05
3.31666e-05
3.31668e-05
3.31666e-05
3.31667e-05
3.31667e-05
3.31667e-05
3.31667e-05
3.31666e-05
3.31668e-05
3.31666e-05
3.3167e-05
3.31666e-05
3.31671e-05
3.31664e-05
3.31673e-05
3.31664e-05
3.31676e-05
3.31664e-05
3.31683e-05
3.31664e-05
3.31691e-05
3.31663e-05
3.31703e-05
3.31657e-05
3.31694e-05
3.31585e-05
3.31486e-05
3.3103e-05
3.30003e-05
3.29236e-05
3.11457e-05
3.12222e-05
3.13214e-05
3.13668e-05
3.13768e-05
3.13874e-05
3.13839e-05
3.13883e-05
3.13844e-05
3.13871e-05
3.13844e-05
3.13863e-05
3.13845e-05
3.13856e-05
3.13845e-05
3.13853e-05
3.13844e-05
3.13851e-05
3.13846e-05
3.1385e-05
3.13846e-05
3.13848e-05
3.13846e-05
3.13848e-05
3.13847e-05
3.13847e-05
3.13848e-05
3.13846e-05
3.13849e-05
3.13846e-05
3.1385e-05
3.13846e-05
3.13851e-05
3.13845e-05
3.13853e-05
3.13845e-05
3.13856e-05
3.13845e-05
3.13862e-05
3.13844e-05
3.13871e-05
3.13844e-05
3.13883e-05
3.13839e-05
3.13874e-05
3.13768e-05
3.13668e-05
3.13214e-05
3.12222e-05
3.11457e-05
2.96888e-05
2.97616e-05
2.98516e-05
2.9894e-05
2.99043e-05
2.9914e-05
2.99112e-05
2.9915e-05
2.99116e-05
2.99139e-05
2.99116e-05
2.99131e-05
2.99116e-05
2.99126e-05
2.99115e-05
2.99123e-05
2.99115e-05
2.99121e-05
2.99116e-05
2.9912e-05
2.99117e-05
2.99118e-05
2.99117e-05
2.99118e-05
2.99117e-05
2.99117e-05
2.99118e-05
2.99117e-05
2.99118e-05
2.99117e-05
2.9912e-05
2.99116e-05
2.99121e-05
2.99115e-05
2.99123e-05
2.99115e-05
2.99126e-05
2.99116e-05
2.99131e-05
2.99116e-05
2.99139e-05
2.99116e-05
2.9915e-05
2.99112e-05
2.9914e-05
2.99043e-05
2.9894e-05
2.98516e-05
2.97616e-05
2.96888e-05
2.8537e-05
2.86082e-05
2.86915e-05
2.87318e-05
2.87422e-05
2.87514e-05
2.8749e-05
2.87524e-05
2.87494e-05
2.87514e-05
2.87493e-05
2.87506e-05
2.87492e-05
2.87501e-05
2.87492e-05
2.87498e-05
2.87491e-05
2.87496e-05
2.87492e-05
2.87495e-05
2.87493e-05
2.87494e-05
2.87492e-05
2.87493e-05
2.87493e-05
2.87493e-05
2.87493e-05
2.87493e-05
2.87494e-05
2.87493e-05
2.87495e-05
2.87492e-05
2.87496e-05
2.87491e-05
2.87498e-05
2.87492e-05
2.87501e-05
2.87492e-05
2.87506e-05
2.87493e-05
2.87514e-05
2.87494e-05
2.87524e-05
2.8749e-05
2.87514e-05
2.87422e-05
2.87318e-05
2.86915e-05
2.86082e-05
2.8537e-05
2.75913e-05
2.76619e-05
2.77393e-05
2.77777e-05
2.77881e-05
2.77968e-05
2.77948e-05
2.77979e-05
2.77952e-05
2.77969e-05
2.7795e-05
2.77962e-05
2.77949e-05
2.77957e-05
2.77949e-05
2.77954e-05
2.77948e-05
2.77953e-05
2.77949e-05
2.77951e-05
2.77949e-05
2.7795e-05
2.77949e-05
2.7795e-05
2.77949e-05
2.77949e-05
2.7795e-05
2.77949e-05
2.7795e-05
2.77949e-05
2.77951e-05
2.77949e-05
2.77953e-05
2.77948e-05
2.77954e-05
2.77949e-05
2.77957e-05
2.77949e-05
2.77962e-05
2.7795e-05
2.77969e-05
2.77952e-05
2.77979e-05
2.77948e-05
2.77968e-05
2.77881e-05
2.77777e-05
2.77393e-05
2.76619e-05
2.75913e-05
2.68138e-05
2.6862e-05
2.69312e-05
2.6967e-05
2.6978e-05
2.69861e-05
2.69848e-05
2.69874e-05
2.6985e-05
2.69864e-05
2.69848e-05
2.69857e-05
2.69846e-05
2.69851e-05
2.69844e-05
2.69849e-05
2.69843e-05
2.69847e-05
2.69844e-05
2.69846e-05
2.69844e-05
2.69845e-05
2.69844e-05
2.69844e-05
2.69844e-05
2.69844e-05
2.69844e-05
2.69844e-05
2.69845e-05
2.69844e-05
2.69846e-05
2.69844e-05
2.69847e-05
2.69843e-05
2.69849e-05
2.69844e-05
2.69851e-05
2.69846e-05
2.69857e-05
2.69848e-05
2.69864e-05
2.6985e-05
2.69874e-05
2.69848e-05
2.69861e-05
2.6978e-05
2.6967e-05
2.69312e-05
2.6862e-05
2.68139e-05
2.6174e-05
2.62211e-05
2.62856e-05
2.63196e-05
2.63307e-05
2.63384e-05
2.63373e-05
2.63397e-05
2.63375e-05
2.63387e-05
2.63372e-05
2.6338e-05
2.6337e-05
2.63375e-05
2.63368e-05
2.63372e-05
2.63367e-05
2.63371e-05
2.63368e-05
2.6337e-05
2.63368e-05
2.63369e-05
2.63367e-05
2.63368e-05
2.63368e-05
2.63368e-05
2.63368e-05
2.63367e-05
2.63369e-05
2.63368e-05
2.63369e-05
2.63368e-05
2.63371e-05
2.63367e-05
2.63372e-05
2.63368e-05
2.63375e-05
2.6337e-05
2.6338e-05
2.63372e-05
2.63387e-05
2.63375e-05
2.63397e-05
2.63373e-05
2.63383e-05
2.63307e-05
2.63196e-05
2.62856e-05
2.62211e-05
2.6174e-05
2.56266e-05
2.56729e-05
2.57339e-05
2.5767e-05
2.57782e-05
2.57856e-05
2.57849e-05
2.5787e-05
2.5785e-05
2.5786e-05
2.57846e-05
2.57853e-05
2.57843e-05
2.57848e-05
2.57842e-05
2.57845e-05
2.57841e-05
2.57843e-05
2.57841e-05
2.57842e-05
2.57841e-05
2.57841e-05
2.5784e-05
2.57841e-05
2.57841e-05
2.57841e-05
2.57841e-05
2.5784e-05
2.57841e-05
2.57841e-05
2.57842e-05
2.57841e-05
2.57843e-05
2.57841e-05
2.57845e-05
2.57842e-05
2.57848e-05
2.57843e-05
2.57853e-05
2.57846e-05
2.5786e-05
2.5785e-05
2.5787e-05
2.57849e-05
2.57856e-05
2.57782e-05
2.5767e-05
2.57339e-05
2.56729e-05
2.56266e-05
2.51735e-05
2.52183e-05
2.5275e-05
2.53064e-05
2.53176e-05
2.53246e-05
2.53241e-05
2.5326e-05
2.53242e-05
2.5325e-05
2.53238e-05
2.53243e-05
2.53234e-05
2.53238e-05
2.53233e-05
2.53235e-05
2.53231e-05
2.53234e-05
2.53231e-05
2.53233e-05
2.53231e-05
2.53232e-05
2.53231e-05
2.53231e-05
2.53231e-05
2.53231e-05
2.53231e-05
2.53231e-05
2.53232e-05
2.53231e-05
2.53233e-05
2.53231e-05
2.53234e-05
2.53231e-05
2.53235e-05
2.53233e-05
2.53238e-05
2.53235e-05
2.53243e-05
2.53238e-05
2.5325e-05
2.53242e-05
2.5326e-05
2.53241e-05
2.53246e-05
2.53176e-05
2.53064e-05
2.5275e-05
2.52183e-05
2.51735e-05
2.47972e-05
2.48406e-05
2.48935e-05
2.49233e-05
2.49344e-05
2.49411e-05
2.49409e-05
2.49425e-05
2.49409e-05
2.49416e-05
2.49404e-05
2.49408e-05
2.49401e-05
2.49403e-05
2.49398e-05
2.49401e-05
2.49397e-05
2.49399e-05
2.49397e-05
2.49398e-05
2.49397e-05
2.49397e-05
2.49397e-05
2.49397e-05
2.49397e-05
2.49397e-05
2.49397e-05
2.49397e-05
2.49397e-05
2.49397e-05
2.49398e-05
2.49397e-05
2.49399e-05
2.49397e-05
2.49401e-05
2.49398e-05
2.49403e-05
2.49401e-05
2.49408e-05
2.49404e-05
2.49416e-05
2.49409e-05
2.49425e-05
2.49409e-05
2.49411e-05
2.49344e-05
2.49233e-05
2.48935e-05
2.48406e-05
2.47972e-05
2.44833e-05
2.45254e-05
2.4575e-05
2.46034e-05
2.46144e-05
2.46208e-05
2.46208e-05
2.46222e-05
2.46208e-05
2.46213e-05
2.46202e-05
2.46205e-05
2.46198e-05
2.462e-05
2.46196e-05
2.46197e-05
2.46194e-05
2.46196e-05
2.46194e-05
2.46195e-05
2.46194e-05
2.46194e-05
2.46193e-05
2.46194e-05
2.46194e-05
2.46194e-05
2.46194e-05
2.46193e-05
2.46194e-05
2.46194e-05
2.46195e-05
2.46194e-05
2.46196e-05
2.46194e-05
2.46197e-05
2.46195e-05
2.462e-05
2.46198e-05
2.46205e-05
2.46202e-05
2.46213e-05
2.46208e-05
2.46222e-05
2.46208e-05
2.46208e-05
2.46144e-05
2.46034e-05
2.4575e-05
2.45254e-05
2.44833e-05
2.42204e-05
2.4261e-05
2.43079e-05
2.4335e-05
2.43458e-05
2.4352e-05
2.43521e-05
2.43533e-05
2.4352e-05
2.43524e-05
2.43514e-05
2.43516e-05
2.43509e-05
2.43511e-05
2.43507e-05
2.43508e-05
2.43505e-05
2.43507e-05
2.43505e-05
2.43506e-05
2.43505e-05
2.43505e-05
2.43504e-05
2.43505e-05
2.43504e-05
2.43504e-05
2.43505e-05
2.43504e-05
2.43505e-05
2.43505e-05
2.43506e-05
2.43505e-05
2.43507e-05
2.43505e-05
2.43508e-05
2.43507e-05
2.43511e-05
2.43509e-05
2.43516e-05
2.43514e-05
2.43524e-05
2.4352e-05
2.43533e-05
2.43521e-05
2.4352e-05
2.43458e-05
2.4335e-05
2.43079e-05
2.4261e-05
2.42204e-05
2.39987e-05
2.40381e-05
2.40826e-05
2.41084e-05
2.41191e-05
2.4125e-05
2.41252e-05
2.41263e-05
2.41251e-05
2.41253e-05
2.41244e-05
2.41246e-05
2.41239e-05
2.4124e-05
2.41236e-05
2.41237e-05
2.41235e-05
2.41236e-05
2.41234e-05
2.41235e-05
2.41234e-05
2.41234e-05
2.41234e-05
2.41234e-05
2.41234e-05
2.41234e-05
2.41234e-05
2.41234e-05
2.41234e-05
2.41234e-05
2.41235e-05
2.41234e-05
2.41236e-05
2.41235e-05
2.41237e-05
2.41236e-05
2.4124e-05
2.41239e-05
2.41245e-05
2.41244e-05
2.41253e-05
2.41251e-05
2.41263e-05
2.41252e-05
2.4125e-05
2.41191e-05
2.41084e-05
2.40826e-05
2.40381e-05
2.39987e-05
2.38106e-05
2.38487e-05
2.38911e-05
2.39158e-05
2.39263e-05
2.3932e-05
2.39323e-05
2.39332e-05
2.39321e-05
2.39323e-05
2.39314e-05
2.39315e-05
2.39309e-05
2.39309e-05
2.39305e-05
2.39306e-05
2.39304e-05
2.39305e-05
2.39303e-05
2.39304e-05
2.39303e-05
2.39303e-05
2.39302e-05
2.39303e-05
2.39303e-05
2.39303e-05
2.39303e-05
2.39302e-05
2.39303e-05
2.39303e-05
2.39304e-05
2.39303e-05
2.39305e-05
2.39304e-05
2.39306e-05
2.39305e-05
2.39309e-05
2.39309e-05
2.39315e-05
2.39314e-05
2.39323e-05
2.39321e-05
2.39332e-05
2.39323e-05
2.3932e-05
2.39263e-05
2.39158e-05
2.38911e-05
2.38487e-05
2.38106e-05
2.36497e-05
2.36865e-05
2.37271e-05
2.37507e-05
2.37611e-05
2.37665e-05
2.37669e-05
2.37677e-05
2.37667e-05
2.37667e-05
2.37659e-05
2.37659e-05
2.37653e-05
2.37653e-05
2.3765e-05
2.3765e-05
2.37648e-05
2.37649e-05
2.37647e-05
2.37648e-05
2.37647e-05
2.37647e-05
2.37646e-05
2.37646e-05
2.37646e-05
2.37646e-05
2.37646e-05
2.37646e-05
2.37647e-05
2.37647e-05
2.37648e-05
2.37647e-05
2.37649e-05
2.37648e-05
2.3765e-05
2.3765e-05
2.37653e-05
2.37653e-05
2.37659e-05
2.37659e-05
2.37667e-05
2.37667e-05
2.37677e-05
2.37669e-05
2.37665e-05
2.37611e-05
2.37507e-05
2.37271e-05
2.36865e-05
2.36497e-05
2.35106e-05
2.35463e-05
2.35852e-05
2.36078e-05
2.3618e-05
2.36233e-05
2.36238e-05
2.36244e-05
2.36234e-05
2.36234e-05
2.36225e-05
2.36225e-05
2.36219e-05
2.36219e-05
2.36216e-05
2.36216e-05
2.36214e-05
2.36214e-05
2.36213e-05
2.36213e-05
2.36213e-05
2.36213e-05
2.36212e-05
2.36212e-05
2.36212e-05
2.36212e-05
2.36212e-05
2.36212e-05
2.36213e-05
2.36213e-05
2.36213e-05
2.36213e-05
2.36214e-05
2.36214e-05
2.36216e-05
2.36216e-05
2.36219e-05
2.36219e-05
2.36225e-05
2.36225e-05
2.36234e-05
2.36234e-05
2.36244e-05
2.36238e-05
2.36233e-05
2.3618e-05
2.36078e-05
2.35852e-05
2.35463e-05
2.35106e-05
2.3389e-05
2.34237e-05
2.34611e-05
2.34829e-05
2.34929e-05
2.3498e-05
2.34984e-05
2.3499e-05
2.3498e-05
2.34979e-05
2.3497e-05
2.3497e-05
2.34964e-05
2.34964e-05
2.3496e-05
2.3496e-05
2.34958e-05
2.34959e-05
2.34957e-05
2.34958e-05
2.34957e-05
2.34957e-05
2.34956e-05
2.34956e-05
2.34956e-05
2.34956e-05
2.34956e-05
2.34956e-05
2.34957e-05
2.34957e-05
2.34958e-05
2.34957e-05
2.34959e-05
2.34958e-05
2.3496e-05
2.3496e-05
2.34964e-05
2.34964e-05
2.34969e-05
2.34971e-05
2.34979e-05
2.3498e-05
2.3499e-05
2.34984e-05
2.3498e-05
2.34929e-05
2.34829e-05
2.34611e-05
2.34237e-05
2.3389e-05
2.32815e-05
2.33151e-05
2.33513e-05
2.33722e-05
2.33819e-05
2.33869e-05
2.33873e-05
2.33878e-05
2.33868e-05
2.33866e-05
2.33858e-05
2.33856e-05
2.33851e-05
2.3385e-05
2.33847e-05
2.33847e-05
2.33845e-05
2.33845e-05
2.33844e-05
2.33844e-05
2.33843e-05
2.33843e-05
2.33843e-05
2.33843e-05
2.33843e-05
2.33843e-05
2.33843e-05
2.33843e-05
2.33843e-05
2.33843e-05
2.33844e-05
2.33844e-05
2.33845e-05
2.33845e-05
2.33847e-05
2.33847e-05
2.3385e-05
2.33851e-05
2.33856e-05
2.33858e-05
2.33866e-05
2.33868e-05
2.33878e-05
2.33873e-05
2.33869e-05
2.33819e-05
2.33722e-05
2.33513e-05
2.33151e-05
2.32815e-05
2.3185e-05
2.32176e-05
2.32526e-05
2.32728e-05
2.32823e-05
2.32871e-05
2.32875e-05
2.32879e-05
2.32869e-05
2.32866e-05
2.32858e-05
2.32856e-05
2.32851e-05
2.3285e-05
2.32846e-05
2.32846e-05
2.32844e-05
2.32844e-05
2.32843e-05
2.32843e-05
2.32842e-05
2.32842e-05
2.32842e-05
2.32842e-05
2.32842e-05
2.32842e-05
2.32842e-05
2.32842e-05
2.32842e-05
2.32842e-05
2.32843e-05
2.32843e-05
2.32844e-05
2.32844e-05
2.32846e-05
2.32846e-05
2.3285e-05
2.32851e-05
2.32856e-05
2.32858e-05
2.32866e-05
2.32869e-05
2.32879e-05
2.32875e-05
2.32871e-05
2.32823e-05
2.32728e-05
2.32526e-05
2.32176e-05
2.3185e-05
2.30972e-05
2.31288e-05
2.31628e-05
2.31822e-05
2.31915e-05
2.31961e-05
2.31965e-05
2.31968e-05
2.31957e-05
2.31954e-05
2.31946e-05
2.31943e-05
2.31938e-05
2.31937e-05
2.31933e-05
2.31933e-05
2.31931e-05
2.31931e-05
2.3193e-05
2.3193e-05
2.31929e-05
2.31929e-05
2.31929e-05
2.31929e-05
2.31929e-05
2.31929e-05
2.31929e-05
2.31929e-05
2.31929e-05
2.31929e-05
2.3193e-05
2.3193e-05
2.31931e-05
2.31931e-05
2.31933e-05
2.31933e-05
2.31937e-05
2.31938e-05
2.31943e-05
2.31946e-05
2.31954e-05
2.31957e-05
2.31968e-05
2.31965e-05
2.31961e-05
2.31915e-05
2.31822e-05
2.31628e-05
2.31288e-05
2.30972e-05
2.3016e-05
2.30466e-05
2.30797e-05
2.30985e-05
2.31075e-05
2.31119e-05
2.31123e-05
2.31124e-05
2.31114e-05
2.3111e-05
2.31102e-05
2.31099e-05
2.31093e-05
2.31092e-05
2.31088e-05
2.31088e-05
2.31086e-05
2.31086e-05
2.31084e-05
2.31084e-05
2.31084e-05
2.31084e-05
2.31083e-05
2.31083e-05
2.31083e-05
2.31083e-05
2.31083e-05
2.31083e-05
2.31084e-05
2.31084e-05
2.31084e-05
2.31084e-05
2.31086e-05
2.31086e-05
2.31088e-05
2.31088e-05
2.31092e-05
2.31093e-05
2.31099e-05
2.31102e-05
2.3111e-05
2.31114e-05
2.31124e-05
2.31123e-05
2.31119e-05
2.31075e-05
2.30984e-05
2.30797e-05
2.30466e-05
2.3016e-05
2.29398e-05
2.29694e-05
2.30017e-05
2.30198e-05
2.30286e-05
2.30329e-05
2.30332e-05
2.30332e-05
2.30321e-05
2.30317e-05
2.30308e-05
2.30305e-05
2.30299e-05
2.30297e-05
2.30294e-05
2.30293e-05
2.30291e-05
2.30291e-05
2.3029e-05
2.3029e-05
2.30289e-05
2.30289e-05
2.30288e-05
2.30288e-05
2.30288e-05
2.30288e-05
2.30288e-05
2.30288e-05
2.30289e-05
2.30289e-05
2.3029e-05
2.3029e-05
2.30291e-05
2.30291e-05
2.30293e-05
2.30294e-05
2.30297e-05
2.30299e-05
2.30305e-05
2.30308e-05
2.30317e-05
2.30321e-05
2.30332e-05
2.30332e-05
2.30329e-05
2.30286e-05
2.30198e-05
2.30017e-05
2.29694e-05
2.29398e-05
2.28672e-05
2.28959e-05
2.29273e-05
2.29449e-05
2.29534e-05
2.29575e-05
2.29577e-05
2.29576e-05
2.29565e-05
2.2956e-05
2.29551e-05
2.29547e-05
2.29541e-05
2.29539e-05
2.29536e-05
2.29535e-05
2.29533e-05
2.29533e-05
2.29531e-05
2.29531e-05
2.29531e-05
2.29531e-05
2.2953e-05
2.2953e-05
2.2953e-05
2.2953e-05
2.2953e-05
2.2953e-05
2.29531e-05
2.29531e-05
2.29531e-05
2.29531e-05
2.29533e-05
2.29533e-05
2.29535e-05
2.29536e-05
2.29539e-05
2.29541e-05
2.29547e-05
2.29551e-05
2.2956e-05
2.29565e-05
2.29576e-05
2.29577e-05
2.29575e-05
2.29534e-05
2.29449e-05
2.29273e-05
2.28959e-05
2.28672e-05
)
;

boundaryField
{
    fuel
    {
        type            fixedValue;
        value           uniform 0;
    }
    wall
    {
        type            zeroGradient;
    }
    outlet
    {
        type            zeroGradient;
    }
    frontAndBack
    {
        type            empty;
    }
    procBoundary1to0
    {
        type            processor;
        value           nonuniform List<scalar> 
50
(
2.27969e-05
2.28249e-05
2.28555e-05
2.28725e-05
2.28807e-05
2.28846e-05
2.28847e-05
2.28846e-05
2.28834e-05
2.28828e-05
2.28819e-05
2.28814e-05
2.28809e-05
2.28806e-05
2.28803e-05
2.28802e-05
2.288e-05
2.28799e-05
2.28798e-05
2.28798e-05
2.28797e-05
2.28797e-05
2.28797e-05
2.28797e-05
2.28796e-05
2.28796e-05
2.28797e-05
2.28797e-05
2.28797e-05
2.28797e-05
2.28798e-05
2.28798e-05
2.28799e-05
2.288e-05
2.28802e-05
2.28803e-05
2.28806e-05
2.28809e-05
2.28814e-05
2.28819e-05
2.28828e-05
2.28834e-05
2.28846e-05
2.28847e-05
2.28846e-05
2.28807e-05
2.28725e-05
2.28555e-05
2.28249e-05
2.27969e-05
)
;
    }
}


// ************************************************************************* //
