/*--------------------------------*- C++ -*----------------------------------*\
| =========                 |                                                 |
| \\      /  F ield         | OpenFOAM: The Open Source CFD Toolbox           |
|  \\    /   O peration     | Version:  dev                                   |
|   \\  /    A nd           | Web:      www.OpenFOAM.org                      |
|    \\/     M anipulation  |                                                 |
\*---------------------------------------------------------------------------*/
FoamFile
{
    version     2.0;
    format      ascii;
    class       volScalarField;
    location    "0.06";
    object      H;
}
// * * * * * * * * * * * * * * * * * * * * * * * * * * * * * * * * * * * * * //

dimensions      [0 0 0 0 0 0 0];

internalField   nonuniform List<scalar> 
250
(
4.44669e-06
4.89805e-06
4.88855e-06
4.98248e-06
4.77103e-06
4.75999e-06
4.74765e-06
4.69274e-06
4.74257e-06
4.67989e-06
3.63373e-06
3.91318e-06
3.85004e-06
3.91506e-06
3.73706e-06
3.72777e-06
3.7176e-06
3.6714e-06
3.71413e-06
3.66087e-06
3.6614e-06
3.70021e-06
3.66311e-06
3.70972e-06
3.69783e-06
3.74237e-06
3.77774e-06
3.90838e-06
3.63626e-06
3.45141e-06
2.88158e-06
3.04259e-06
2.95618e-06
3.00085e-06
2.8566e-06
2.84979e-06
2.84111e-06
2.80353e-06
2.83885e-06
2.79553e-06
2.79604e-06
2.8278e-06
2.79678e-06
2.83501e-06
2.82552e-06
2.86205e-06
2.89042e-06
3.00889e-06
2.8245e-06
2.75438e-06
2.21568e-06
2.29933e-06
2.20986e-06
2.24029e-06
2.12778e-06
2.12443e-06
2.11699e-06
2.08746e-06
2.11539e-06
2.0822e-06
2.08264e-06
2.10725e-06
2.08225e-06
2.11212e-06
2.10549e-06
2.13321e-06
2.15428e-06
2.25482e-06
2.13345e-06
2.12992e-06
1.64865e-06
1.68414e-06
1.60322e-06
1.62363e-06
1.53551e-06
1.5287e-06
1.52672e-06
1.50393e-06
1.52683e-06
1.49734e-06
1.49759e-06
1.51955e-06
1.49946e-06
1.52408e-06
1.51411e-06
1.5378e-06
1.55865e-06
1.63972e-06
1.56221e-06
1.59195e-06
1.17229e-06
1.18826e-06
1.12126e-06
1.1347e-06
1.07008e-06
1.06608e-06
1.06485e-06
1.04809e-06
1.06512e-06
1.04355e-06
1.04373e-06
1.06002e-06
1.04482e-06
1.0629e-06
1.05542e-06
1.07205e-06
1.08726e-06
1.14958e-06
1.10175e-06
1.14368e-06
7.9645e-07
7.97696e-07
7.46103e-07
7.54679e-07
7.09289e-07
7.07009e-07
7.05911e-07
6.9406e-07
7.06328e-07
6.91071e-07
6.91231e-07
7.02824e-07
6.91739e-07
7.04604e-07
6.99428e-07
7.1095e-07
7.21406e-07
7.67067e-07
7.38757e-07
7.8067e-07
5.0294e-07
4.97714e-07
4.61034e-07
4.66225e-07
4.36236e-07
4.34941e-07
4.34051e-07
4.26161e-07
4.34529e-07
4.24239e-07
4.24358e-07
4.32232e-07
4.24588e-07
4.3327e-07
4.29805e-07
4.37577e-07
4.44205e-07
4.75648e-07
4.59752e-07
4.95038e-07
2.83692e-07
2.77358e-07
2.54275e-07
2.57154e-07
2.3932e-07
2.38616e-07
2.3803e-07
2.33307e-07
2.38453e-07
2.32162e-07
2.32234e-07
2.37091e-07
2.32336e-07
2.37632e-07
2.35465e-07
2.40297e-07
2.43979e-07
2.63469e-07
2.55157e-07
2.80311e-07
1.36023e-07
1.31605e-07
1.19691e-07
1.21063e-07
1.12178e-07
1.11844e-07
1.1154e-07
1.0917e-07
1.11823e-07
1.08587e-07
1.08623e-07
1.11143e-07
1.08664e-07
1.11378e-07
1.10219e-07
1.1276e-07
1.14431e-07
1.24516e-07
1.20653e-07
1.34874e-07
5.18927e-08
4.95664e-08
4.46388e-08
4.51152e-08
4.15779e-08
4.1444e-08
4.13165e-08
4.03689e-08
4.14629e-08
4.01256e-08
4.01421e-08
4.11891e-08
4.01591e-08
4.12663e-08
4.07739e-08
4.18462e-08
4.24573e-08
4.66288e-08
4.52538e-08
5.15633e-08
1.25572e-08
1.18253e-08
1.0574e-08
1.06645e-08
9.80521e-09
9.77129e-09
9.73812e-09
9.50768e-09
9.78186e-09
9.44437e-09
9.4499e-09
9.71382e-09
9.45525e-09
9.72878e-09
9.6035e-09
9.87716e-09
1.00157e-08
1.10669e-08
1.07753e-08
1.24765e-08
1.72043e-09
1.62115e-09
1.46903e-09
1.47775e-09
1.37423e-09
1.37007e-09
1.36517e-09
1.33722e-09
1.37144e-09
1.32842e-09
1.32968e-09
1.36252e-09
1.3309e-09
1.3638e-09
1.3493e-09
1.38213e-09
1.40053e-09
1.52448e-09
1.4979e-09
1.70118e-09
)
;

boundaryField
{
    fuel
    {
        type            fixedValue;
        value           nonuniform 0();
    }
    wall
    {
        type            zeroGradient;
    }
    outlet
    {
        type            zeroGradient;
    }
    frontAndBack
    {
        type            empty;
    }
    procBoundary1to0
    {
        type            processor;
        value           nonuniform List<scalar> 
21
(
5.28019e-06
5.96856e-06
6.05658e-06
6.18992e-06
5.94898e-06
5.93689e-06
5.92201e-06
5.85895e-06
5.91505e-06
5.84403e-06
4.68051e-06
4.68051e-06
4.72591e-06
4.683e-06
4.73779e-06
4.72416e-06
4.77647e-06
4.81639e-06
4.95072e-06
4.55672e-06
4.19682e-06
)
;
    }
}


// ************************************************************************* //
