/*--------------------------------*- C++ -*----------------------------------*\
| =========                 |                                                 |
| \\      /  F ield         | OpenFOAM: The Open Source CFD Toolbox           |
|  \\    /   O peration     | Version:  dev                                   |
|   \\  /    A nd           | Web:      www.OpenFOAM.org                      |
|    \\/     M anipulation  |                                                 |
\*---------------------------------------------------------------------------*/
FoamFile
{
    version     2.0;
    format      ascii;
    class       volScalarField;
    location    "0.06";
    object      H2C4O;
}
// * * * * * * * * * * * * * * * * * * * * * * * * * * * * * * * * * * * * * //

dimensions      [0 0 0 0 0 0 0];

internalField   nonuniform List<scalar> 
250
(
9.2197e-07
8.15548e-07
7.27788e-07
6.96506e-07
6.85536e-07
6.74952e-07
6.78911e-07
6.71944e-07
6.77043e-07
6.72968e-07
8.46462e-07
7.57459e-07
6.80519e-07
6.53629e-07
6.44063e-07
6.33738e-07
6.38039e-07
6.30775e-07
6.36209e-07
6.31822e-07
6.32895e-07
6.34331e-07
6.32674e-07
6.35411e-07
6.3619e-07
6.40027e-07
6.56411e-07
6.74222e-07
7.55278e-07
8.28305e-07
7.70441e-07
6.96842e-07
6.29181e-07
6.06153e-07
5.97872e-07
5.87728e-07
5.92418e-07
5.84806e-07
5.90617e-07
5.85889e-07
5.87032e-07
5.88567e-07
5.86839e-07
5.89593e-07
5.90313e-07
5.93656e-07
6.08996e-07
6.23122e-07
6.95506e-07
7.57292e-07
6.92966e-07
6.32713e-07
5.7306e-07
5.53406e-07
5.46315e-07
5.36365e-07
5.41422e-07
5.33507e-07
5.39666e-07
5.34628e-07
5.35834e-07
5.37456e-07
5.35667e-07
5.38417e-07
5.39083e-07
5.41952e-07
5.56301e-07
5.67125e-07
6.31755e-07
6.8332e-07
6.13664e-07
5.64466e-07
5.1182e-07
4.9557e-07
4.89597e-07
4.80044e-07
4.85303e-07
4.77322e-07
4.8364e-07
4.78455e-07
4.79685e-07
4.8134e-07
4.79544e-07
4.8221e-07
4.82823e-07
4.85222e-07
4.98449e-07
5.06443e-07
5.63683e-07
6.06121e-07
5.31277e-07
4.92328e-07
4.48123e-07
4.34662e-07
4.29753e-07
4.21043e-07
4.2614e-07
4.18586e-07
4.24658e-07
4.19667e-07
4.20843e-07
4.22422e-07
4.20731e-07
4.2316e-07
4.23714e-07
4.25634e-07
4.37369e-07
4.43134e-07
4.92117e-07
5.27052e-07
4.53949e-07
4.22312e-07
3.86118e-07
3.753e-07
3.71393e-07
3.64137e-07
3.6855e-07
3.62104e-07
3.67359e-07
3.63039e-07
3.64049e-07
3.65406e-07
3.6397e-07
3.65968e-07
3.66452e-07
3.67896e-07
3.77601e-07
3.8186e-07
4.22078e-07
4.50373e-07
3.85932e-07
3.60326e-07
3.32505e-07
3.24143e-07
3.21138e-07
3.15823e-07
3.19082e-07
3.14329e-07
3.1826e-07
3.15028e-07
3.15778e-07
3.16791e-07
3.15732e-07
3.17158e-07
3.17552e-07
3.18578e-07
3.25826e-07
3.29289e-07
3.59969e-07
3.82846e-07
3.3391e-07
3.13157e-07
2.93406e-07
2.87119e-07
2.84871e-07
2.81496e-07
2.83478e-07
2.80529e-07
2.83005e-07
2.80965e-07
2.81429e-07
2.82085e-07
2.81412e-07
2.82284e-07
2.82575e-07
2.83301e-07
2.88132e-07
2.91286e-07
3.12821e-07
3.31341e-07
3.00588e-07
2.8378e-07
2.70495e-07
2.65702e-07
2.64048e-07
2.62077e-07
2.63083e-07
2.61496e-07
2.62849e-07
2.61721e-07
2.61961e-07
2.62366e-07
2.61965e-07
2.6246e-07
2.62647e-07
2.63217e-07
2.66204e-07
2.69197e-07
2.83558e-07
2.98562e-07
2.82713e-07
2.6911e-07
2.60142e-07
2.56285e-07
2.55072e-07
2.53837e-07
2.54318e-07
2.5347e-07
2.54198e-07
2.53568e-07
2.53675e-07
2.53968e-07
2.53695e-07
2.54018e-07
2.54118e-07
2.54635e-07
2.5651e-07
2.59284e-07
2.68996e-07
2.8116e-07
2.74215e-07
2.6306e-07
2.56612e-07
2.53298e-07
2.5239e-07
2.51429e-07
2.51718e-07
2.51154e-07
2.51633e-07
2.5119e-07
2.51235e-07
2.51513e-07
2.51269e-07
2.51552e-07
2.51589e-07
2.52099e-07
2.53419e-07
2.55918e-07
2.63004e-07
2.72997e-07
2.70151e-07
2.60546e-07
2.55426e-07
2.52421e-07
2.51686e-07
2.50828e-07
2.51048e-07
2.5059e-07
2.50976e-07
2.50597e-07
2.50612e-07
2.50901e-07
2.50656e-07
2.50937e-07
2.50939e-07
2.5145e-07
2.52504e-07
2.54793e-07
2.60502e-07
2.69124e-07
)
;

boundaryField
{
    fuel
    {
        type            fixedValue;
        value           nonuniform 0();
    }
    wall
    {
        type            zeroGradient;
    }
    outlet
    {
        type            zeroGradient;
    }
    frontAndBack
    {
        type            empty;
    }
    procBoundary1to0
    {
        type            processor;
        value           nonuniform List<scalar> 
21
(
9.97929e-07
8.721e-07
7.71892e-07
7.35654e-07
7.2315e-07
7.12191e-07
7.15878e-07
7.09128e-07
7.13959e-07
7.10145e-07
6.7398e-07
6.7398e-07
6.75323e-07
6.73728e-07
6.76457e-07
6.77298e-07
6.81666e-07
6.99242e-07
7.21082e-07
8.1199e-07
8.97188e-07
)
;
    }
}


// ************************************************************************* //
