/*--------------------------------*- C++ -*----------------------------------*\
| =========                 |                                                 |
| \\      /  F ield         | OpenFOAM: The Open Source CFD Toolbox           |
|  \\    /   O peration     | Version:  dev                                   |
|   \\  /    A nd           | Web:      www.OpenFOAM.org                      |
|    \\/     M anipulation  |                                                 |
\*---------------------------------------------------------------------------*/
FoamFile
{
    version     2.0;
    format      ascii;
    class       volScalarField;
    location    "0.06";
    object      HCCOH;
}
// * * * * * * * * * * * * * * * * * * * * * * * * * * * * * * * * * * * * * //

dimensions      [0 0 0 0 0 0 0];

internalField   nonuniform List<scalar> 
250
(
2.36481e-06
2.34357e-06
2.20673e-06
2.18317e-06
2.10147e-06
2.09204e-06
2.08669e-06
2.06955e-06
2.08513e-06
2.06578e-06
1.98875e-06
1.94813e-06
1.82305e-06
1.8045e-06
1.73246e-06
1.72473e-06
1.71998e-06
1.70431e-06
1.71892e-06
1.70094e-06
1.70117e-06
1.71429e-06
1.70146e-06
1.71734e-06
1.71446e-06
1.7338e-06
1.75838e-06
1.84445e-06
1.84796e-06
1.94138e-06
1.61702e-06
1.56699e-06
1.45706e-06
1.44306e-06
1.38173e-06
1.37592e-06
1.37168e-06
1.35793e-06
1.37103e-06
1.35519e-06
1.35543e-06
1.36709e-06
1.35543e-06
1.36955e-06
1.36697e-06
1.38366e-06
1.40318e-06
1.47819e-06
1.48311e-06
1.58296e-06
1.26498e-06
1.21333e-06
1.12128e-06
1.11111e-06
1.06134e-06
1.05774e-06
1.05414e-06
1.04269e-06
1.05371e-06
1.04081e-06
1.04103e-06
1.05068e-06
1.04067e-06
1.05238e-06
1.05038e-06
1.06366e-06
1.07823e-06
1.14068e-06
1.14627e-06
1.24189e-06
9.4919e-07
9.01324e-07
8.28648e-07
8.21433e-07
7.81995e-07
7.77458e-07
7.76294e-07
7.67219e-07
7.76592e-07
7.64603e-07
7.64729e-07
7.73745e-07
7.65414e-07
7.75462e-07
7.71628e-07
7.83209e-07
7.95919e-07
8.45136e-07
8.50769e-07
9.3433e-07
6.80232e-07
6.43994e-07
5.90517e-07
5.85439e-07
5.57392e-07
5.54619e-07
5.53919e-07
5.47415e-07
5.54219e-07
5.45694e-07
5.45769e-07
5.52305e-07
5.46131e-07
5.53359e-07
5.50476e-07
5.5859e-07
5.67172e-07
6.03308e-07
6.08627e-07
6.75481e-07
4.77956e-07
4.50073e-07
4.13713e-07
4.10032e-07
3.91906e-07
3.90268e-07
3.89784e-07
3.85577e-07
3.90052e-07
3.84573e-07
3.84614e-07
3.88877e-07
3.84745e-07
3.89479e-07
3.87588e-07
3.92907e-07
3.98218e-07
4.22606e-07
4.27528e-07
4.76419e-07
3.40567e-07
3.20471e-07
2.97516e-07
2.94672e-07
2.84121e-07
2.83161e-07
2.82853e-07
2.8044e-07
2.83053e-07
2.7991e-07
2.79927e-07
2.8241e-07
2.7996e-07
2.82724e-07
2.81622e-07
2.84827e-07
2.87899e-07
3.02942e-07
3.07552e-07
3.40388e-07
2.60395e-07
2.46256e-07
2.32246e-07
2.29904e-07
2.24228e-07
2.23639e-07
2.23447e-07
2.22202e-07
2.23574e-07
2.21938e-07
2.21948e-07
2.23253e-07
2.2196e-07
2.23402e-07
2.22854e-07
2.24636e-07
2.26449e-07
2.35105e-07
2.39509e-07
2.60347e-07
2.21048e-07
2.10749e-07
2.01784e-07
1.9979e-07
1.96687e-07
1.96281e-07
1.96138e-07
1.95503e-07
1.96217e-07
1.95347e-07
1.95367e-07
1.96044e-07
1.95395e-07
1.96108e-07
1.959e-07
1.96866e-07
1.98122e-07
2.03083e-07
2.07274e-07
2.2058e-07
2.04562e-07
1.9655e-07
1.90178e-07
1.88465e-07
1.86526e-07
1.862e-07
1.86069e-07
1.8569e-07
1.86129e-07
1.85554e-07
1.85594e-07
1.85997e-07
1.85651e-07
1.86023e-07
1.86e-07
1.86559e-07
1.87607e-07
1.90671e-07
1.94558e-07
2.03643e-07
1.98292e-07
1.91634e-07
1.8661e-07
1.85114e-07
1.83667e-07
1.83374e-07
1.83245e-07
1.82953e-07
1.83304e-07
1.828e-07
1.82861e-07
1.83169e-07
1.82946e-07
1.83178e-07
1.83245e-07
1.83622e-07
1.84586e-07
1.86734e-07
1.90268e-07
1.97108e-07
1.95767e-07
1.89869e-07
1.8556e-07
1.84199e-07
1.82976e-07
1.82697e-07
1.82571e-07
1.82304e-07
1.82633e-07
1.82134e-07
1.82212e-07
1.82488e-07
1.82315e-07
1.8249e-07
1.82597e-07
1.82895e-07
1.83809e-07
1.85531e-07
1.88778e-07
1.94501e-07
)
;

boundaryField
{
    fuel
    {
        type            fixedValue;
        value           nonuniform 0();
    }
    wall
    {
        type            zeroGradient;
    }
    outlet
    {
        type            zeroGradient;
    }
    frontAndBack
    {
        type            empty;
    }
    procBoundary1to0
    {
        type            processor;
        value           nonuniform List<scalar> 
21
(
2.73088e-06
2.74141e-06
2.59737e-06
2.56839e-06
2.47836e-06
2.46738e-06
2.46138e-06
2.44322e-06
2.45931e-06
2.43926e-06
2.06604e-06
2.06604e-06
2.08004e-06
2.06648e-06
2.08358e-06
2.08071e-06
2.10219e-06
2.13155e-06
2.22751e-06
2.22759e-06
2.30274e-06
)
;
    }
}


// ************************************************************************* //
