/*--------------------------------*- C++ -*----------------------------------*\
| =========                 |                                                 |
| \\      /  F ield         | OpenFOAM: The Open Source CFD Toolbox           |
|  \\    /   O peration     | Version:  dev                                   |
|   \\  /    A nd           | Web:      www.OpenFOAM.org                      |
|    \\/     M anipulation  |                                                 |
\*---------------------------------------------------------------------------*/
FoamFile
{
    version     2.0;
    format      ascii;
    class       volScalarField;
    location    "0.06";
    object      i-A1C2H2;
}
// * * * * * * * * * * * * * * * * * * * * * * * * * * * * * * * * * * * * * //

dimensions      [0 0 0 0 0 0 0];

internalField   nonuniform List<scalar> 
2000
(
2.20076e-08
2.20366e-08
2.2041e-08
2.20395e-08
2.20396e-08
2.20388e-08
2.20389e-08
2.20386e-08
2.20388e-08
2.20386e-08
2.20387e-08
2.20386e-08
2.20387e-08
2.20387e-08
2.20387e-08
2.20387e-08
2.20387e-08
2.20387e-08
2.20387e-08
2.20387e-08
2.20387e-08
2.20387e-08
2.20387e-08
2.20387e-08
2.20387e-08
2.20387e-08
2.20387e-08
2.20387e-08
2.20387e-08
2.20387e-08
2.20387e-08
2.20387e-08
2.20387e-08
2.20387e-08
2.20387e-08
2.20387e-08
2.20387e-08
2.20387e-08
2.20386e-08
2.20387e-08
2.20386e-08
2.20388e-08
2.20386e-08
2.20389e-08
2.20388e-08
2.20396e-08
2.20395e-08
2.2041e-08
2.20366e-08
2.20076e-08
1.62065e-08
1.62006e-08
1.6188e-08
1.618e-08
1.61784e-08
1.61767e-08
1.6177e-08
1.61764e-08
1.61768e-08
1.61764e-08
1.61768e-08
1.61765e-08
1.61767e-08
1.61766e-08
1.61767e-08
1.61766e-08
1.61767e-08
1.61767e-08
1.61767e-08
1.61767e-08
1.61767e-08
1.61767e-08
1.61767e-08
1.61767e-08
1.61767e-08
1.61767e-08
1.61767e-08
1.61767e-08
1.61767e-08
1.61767e-08
1.61767e-08
1.61767e-08
1.61767e-08
1.61767e-08
1.61766e-08
1.61767e-08
1.61766e-08
1.61767e-08
1.61765e-08
1.61768e-08
1.61764e-08
1.61768e-08
1.61764e-08
1.6177e-08
1.61767e-08
1.61784e-08
1.618e-08
1.6188e-08
1.62006e-08
1.62065e-08
1.10827e-08
1.10766e-08
1.10687e-08
1.10633e-08
1.10618e-08
1.10608e-08
1.10608e-08
1.10606e-08
1.10607e-08
1.10606e-08
1.10607e-08
1.10607e-08
1.10607e-08
1.10607e-08
1.10607e-08
1.10607e-08
1.10608e-08
1.10607e-08
1.10607e-08
1.10607e-08
1.10607e-08
1.10607e-08
1.10607e-08
1.10607e-08
1.10607e-08
1.10607e-08
1.10607e-08
1.10607e-08
1.10607e-08
1.10607e-08
1.10607e-08
1.10607e-08
1.10607e-08
1.10608e-08
1.10607e-08
1.10607e-08
1.10607e-08
1.10607e-08
1.10607e-08
1.10607e-08
1.10606e-08
1.10607e-08
1.10606e-08
1.10608e-08
1.10608e-08
1.10618e-08
1.10633e-08
1.10687e-08
1.10766e-08
1.10827e-08
7.75521e-09
7.75001e-09
7.74466e-09
7.74062e-09
7.73921e-09
7.73861e-09
7.73843e-09
7.73837e-09
7.73837e-09
7.73837e-09
7.73839e-09
7.73839e-09
7.73841e-09
7.73841e-09
7.73842e-09
7.73843e-09
7.73843e-09
7.73843e-09
7.73843e-09
7.73843e-09
7.73843e-09
7.73843e-09
7.73844e-09
7.73844e-09
7.73843e-09
7.73843e-09
7.73844e-09
7.73844e-09
7.73843e-09
7.73843e-09
7.73843e-09
7.73843e-09
7.73843e-09
7.73843e-09
7.73842e-09
7.73842e-09
7.73841e-09
7.73841e-09
7.73839e-09
7.73839e-09
7.73837e-09
7.73837e-09
7.73837e-09
7.73844e-09
7.73861e-09
7.73921e-09
7.74062e-09
7.74466e-09
7.75001e-09
7.75521e-09
5.44049e-09
5.43638e-09
5.43304e-09
5.42999e-09
5.42874e-09
5.42837e-09
5.42812e-09
5.42815e-09
5.42808e-09
5.42814e-09
5.4281e-09
5.42814e-09
5.42813e-09
5.42815e-09
5.42814e-09
5.42816e-09
5.42815e-09
5.42816e-09
5.42815e-09
5.42816e-09
5.42815e-09
5.42816e-09
5.42816e-09
5.42816e-09
5.42816e-09
5.42816e-09
5.42816e-09
5.42816e-09
5.42816e-09
5.42815e-09
5.42816e-09
5.42815e-09
5.42816e-09
5.42815e-09
5.42816e-09
5.42814e-09
5.42815e-09
5.42813e-09
5.42814e-09
5.4281e-09
5.42813e-09
5.42808e-09
5.42815e-09
5.42812e-09
5.42837e-09
5.42874e-09
5.42999e-09
5.43304e-09
5.43638e-09
5.44049e-09
3.86796e-09
3.86495e-09
3.86324e-09
3.86102e-09
3.85996e-09
3.85974e-09
3.85947e-09
3.85955e-09
3.85944e-09
3.85953e-09
3.85947e-09
3.85953e-09
3.85949e-09
3.85954e-09
3.85951e-09
3.85954e-09
3.85952e-09
3.85953e-09
3.85952e-09
3.85953e-09
3.85953e-09
3.85953e-09
3.85953e-09
3.85953e-09
3.85953e-09
3.85953e-09
3.85953e-09
3.85953e-09
3.85953e-09
3.85953e-09
3.85953e-09
3.85952e-09
3.85954e-09
3.85952e-09
3.85954e-09
3.85951e-09
3.85954e-09
3.85949e-09
3.85953e-09
3.85947e-09
3.85953e-09
3.85944e-09
3.85955e-09
3.85947e-09
3.85974e-09
3.85996e-09
3.86102e-09
3.86324e-09
3.86495e-09
3.86795e-09
2.81498e-09
2.81293e-09
2.81242e-09
2.81086e-09
2.80997e-09
2.80987e-09
2.80959e-09
2.8097e-09
2.80956e-09
2.80967e-09
2.80959e-09
2.80967e-09
2.80962e-09
2.80966e-09
2.80963e-09
2.80966e-09
2.80964e-09
2.80966e-09
2.80964e-09
2.80966e-09
2.80965e-09
2.80966e-09
2.80965e-09
2.80966e-09
2.80965e-09
2.80965e-09
2.80966e-09
2.80965e-09
2.80966e-09
2.80965e-09
2.80966e-09
2.80964e-09
2.80966e-09
2.80964e-09
2.80966e-09
2.80963e-09
2.80966e-09
2.80962e-09
2.80967e-09
2.80959e-09
2.80967e-09
2.80956e-09
2.8097e-09
2.80959e-09
2.80986e-09
2.80997e-09
2.81086e-09
2.81242e-09
2.81293e-09
2.81498e-09
2.09782e-09
2.09652e-09
2.09685e-09
2.09578e-09
2.09505e-09
2.09502e-09
2.09474e-09
2.09487e-09
2.09472e-09
2.09484e-09
2.09475e-09
2.09483e-09
2.09477e-09
2.09482e-09
2.09479e-09
2.09482e-09
2.09479e-09
2.09482e-09
2.0948e-09
2.09481e-09
2.0948e-09
2.09481e-09
2.09481e-09
2.09481e-09
2.09481e-09
2.09481e-09
2.09481e-09
2.09481e-09
2.09481e-09
2.0948e-09
2.09481e-09
2.0948e-09
2.09482e-09
2.09479e-09
2.09482e-09
2.09479e-09
2.09482e-09
2.09477e-09
2.09483e-09
2.09475e-09
2.09484e-09
2.09472e-09
2.09487e-09
2.09474e-09
2.09502e-09
2.09505e-09
2.09578e-09
2.09685e-09
2.09652e-09
2.09782e-09
1.59945e-09
1.59872e-09
1.59961e-09
1.59892e-09
1.59831e-09
1.59833e-09
1.59806e-09
1.5982e-09
1.59805e-09
1.59817e-09
1.59808e-09
1.59816e-09
1.5981e-09
1.59815e-09
1.59811e-09
1.59815e-09
1.59812e-09
1.59814e-09
1.59812e-09
1.59814e-09
1.59813e-09
1.59814e-09
1.59813e-09
1.59814e-09
1.59813e-09
1.59813e-09
1.59814e-09
1.59813e-09
1.59814e-09
1.59813e-09
1.59814e-09
1.59812e-09
1.59814e-09
1.59812e-09
1.59815e-09
1.59811e-09
1.59815e-09
1.5981e-09
1.59816e-09
1.59808e-09
1.59817e-09
1.59805e-09
1.5982e-09
1.59806e-09
1.59833e-09
1.59831e-09
1.59892e-09
1.59961e-09
1.59872e-09
1.59945e-09
1.24605e-09
1.24575e-09
1.24701e-09
1.24661e-09
1.24611e-09
1.24617e-09
1.24591e-09
1.24605e-09
1.2459e-09
1.24602e-09
1.24592e-09
1.246e-09
1.24594e-09
1.246e-09
1.24596e-09
1.24599e-09
1.24596e-09
1.24599e-09
1.24597e-09
1.24598e-09
1.24597e-09
1.24598e-09
1.24598e-09
1.24598e-09
1.24598e-09
1.24598e-09
1.24598e-09
1.24598e-09
1.24598e-09
1.24597e-09
1.24598e-09
1.24597e-09
1.24599e-09
1.24596e-09
1.24599e-09
1.24596e-09
1.246e-09
1.24594e-09
1.246e-09
1.24592e-09
1.24602e-09
1.2459e-09
1.24605e-09
1.24591e-09
1.24617e-09
1.24611e-09
1.24661e-09
1.24701e-09
1.24575e-09
1.24605e-09
9.90243e-10
9.90296e-10
9.91797e-10
9.9162e-10
9.91205e-10
9.91285e-10
9.9104e-10
9.9118e-10
9.91031e-10
9.91145e-10
9.91052e-10
9.91132e-10
9.91072e-10
9.91123e-10
9.91084e-10
9.91119e-10
9.91089e-10
9.91115e-10
9.91096e-10
9.91111e-10
9.911e-10
9.91109e-10
9.91102e-10
9.91107e-10
9.91105e-10
9.91105e-10
9.91107e-10
9.91102e-10
9.91109e-10
9.911e-10
9.91111e-10
9.91096e-10
9.91115e-10
9.91089e-10
9.91119e-10
9.91084e-10
9.91123e-10
9.91072e-10
9.91132e-10
9.91053e-10
9.91145e-10
9.91031e-10
9.9118e-10
9.9104e-10
9.91285e-10
9.91205e-10
9.9162e-10
9.91797e-10
9.90296e-10
9.90243e-10
7.94027e-10
7.94265e-10
7.95749e-10
7.95695e-10
7.95352e-10
7.95434e-10
7.95213e-10
7.95341e-10
7.95204e-10
7.95308e-10
7.95223e-10
7.95295e-10
7.9524e-10
7.95287e-10
7.95251e-10
7.95283e-10
7.95256e-10
7.95279e-10
7.95262e-10
7.95276e-10
7.95266e-10
7.95274e-10
7.95268e-10
7.95272e-10
7.9527e-10
7.9527e-10
7.95272e-10
7.95268e-10
7.95274e-10
7.95266e-10
7.95276e-10
7.95262e-10
7.95279e-10
7.95256e-10
7.95283e-10
7.95251e-10
7.95287e-10
7.9524e-10
7.95295e-10
7.95223e-10
7.95308e-10
7.95204e-10
7.9534e-10
7.95213e-10
7.95434e-10
7.95352e-10
7.95695e-10
7.95748e-10
7.94265e-10
7.94027e-10
6.51612e-10
6.52076e-10
6.53652e-10
6.53728e-10
6.53438e-10
6.53535e-10
6.53324e-10
6.53449e-10
6.53315e-10
6.53416e-10
6.53333e-10
6.53403e-10
6.53349e-10
6.53394e-10
6.53359e-10
6.5339e-10
6.53364e-10
6.53387e-10
6.5337e-10
6.53383e-10
6.53374e-10
6.53381e-10
6.53375e-10
6.53379e-10
6.53378e-10
6.53378e-10
6.53379e-10
6.53375e-10
6.53381e-10
6.53374e-10
6.53383e-10
6.5337e-10
6.53387e-10
6.53364e-10
6.53391e-10
6.53359e-10
6.53394e-10
6.53349e-10
6.53403e-10
6.53333e-10
6.53416e-10
6.53315e-10
6.53449e-10
6.53324e-10
6.53535e-10
6.53438e-10
6.53728e-10
6.53652e-10
6.52076e-10
6.51612e-10
5.41864e-10
5.42045e-10
5.43263e-10
5.43316e-10
5.43134e-10
5.43198e-10
5.43046e-10
5.43134e-10
5.43036e-10
5.43109e-10
5.43048e-10
5.43098e-10
5.43059e-10
5.43092e-10
5.43066e-10
5.43089e-10
5.4307e-10
5.43086e-10
5.43074e-10
5.43084e-10
5.43076e-10
5.43082e-10
5.43078e-10
5.43081e-10
5.43079e-10
5.43079e-10
5.43081e-10
5.43078e-10
5.43082e-10
5.43076e-10
5.43084e-10
5.43074e-10
5.43086e-10
5.4307e-10
5.43089e-10
5.43066e-10
5.43092e-10
5.43059e-10
5.43098e-10
5.43048e-10
5.43109e-10
5.43036e-10
5.43134e-10
5.43046e-10
5.43198e-10
5.43133e-10
5.43316e-10
5.43263e-10
5.42045e-10
5.41864e-10
4.53758e-10
4.54022e-10
4.5515e-10
4.55245e-10
4.55097e-10
4.55159e-10
4.55023e-10
4.55102e-10
4.55013e-10
4.55078e-10
4.55024e-10
4.55069e-10
4.55033e-10
4.55062e-10
4.5504e-10
4.5506e-10
4.55043e-10
4.55057e-10
4.55046e-10
4.55055e-10
4.55049e-10
4.55054e-10
4.5505e-10
4.55052e-10
4.55051e-10
4.55051e-10
4.55052e-10
4.5505e-10
4.55054e-10
4.55049e-10
4.55055e-10
4.55046e-10
4.55057e-10
4.55043e-10
4.5506e-10
4.5504e-10
4.55062e-10
4.55034e-10
4.55068e-10
4.55024e-10
4.55078e-10
4.55013e-10
4.55102e-10
4.55023e-10
4.55159e-10
4.55097e-10
4.55245e-10
4.5515e-10
4.54021e-10
4.53758e-10
3.86765e-10
3.87118e-10
3.88209e-10
3.88346e-10
3.88228e-10
3.88291e-10
3.88166e-10
3.88239e-10
3.88157e-10
3.88216e-10
3.88166e-10
3.88207e-10
3.88175e-10
3.88202e-10
3.8818e-10
3.88199e-10
3.88183e-10
3.88197e-10
3.88187e-10
3.88195e-10
3.88189e-10
3.88193e-10
3.8819e-10
3.88192e-10
3.88191e-10
3.88191e-10
3.88192e-10
3.8819e-10
3.88193e-10
3.88189e-10
3.88195e-10
3.88187e-10
3.88197e-10
3.88183e-10
3.88199e-10
3.8818e-10
3.88202e-10
3.88175e-10
3.88207e-10
3.88166e-10
3.88216e-10
3.88156e-10
3.88239e-10
3.88166e-10
3.88291e-10
3.88228e-10
3.88346e-10
3.88209e-10
3.87118e-10
3.86765e-10
3.3137e-10
3.31872e-10
3.33004e-10
3.33235e-10
3.33164e-10
3.33238e-10
3.33123e-10
3.33192e-10
3.33112e-10
3.33168e-10
3.33119e-10
3.33158e-10
3.33127e-10
3.33152e-10
3.33132e-10
3.33149e-10
3.33134e-10
3.33147e-10
3.33137e-10
3.33145e-10
3.33139e-10
3.33144e-10
3.3314e-10
3.33142e-10
3.33141e-10
3.33141e-10
3.33142e-10
3.3314e-10
3.33144e-10
3.33139e-10
3.33145e-10
3.33137e-10
3.33147e-10
3.33134e-10
3.33149e-10
3.33132e-10
3.33152e-10
3.33127e-10
3.33158e-10
3.3312e-10
3.33168e-10
3.33112e-10
3.33192e-10
3.33123e-10
3.33238e-10
3.33164e-10
3.33235e-10
3.33004e-10
3.31871e-10
3.3137e-10
2.8803e-10
2.88581e-10
2.89649e-10
2.89896e-10
2.89846e-10
2.89918e-10
2.89813e-10
2.89876e-10
2.89803e-10
2.89854e-10
2.89809e-10
2.89844e-10
2.89816e-10
2.89838e-10
2.8982e-10
2.89836e-10
2.89822e-10
2.89834e-10
2.89825e-10
2.89832e-10
2.89827e-10
2.89831e-10
2.89827e-10
2.8983e-10
2.89829e-10
2.89829e-10
2.8983e-10
2.89827e-10
2.89831e-10
2.89827e-10
2.89832e-10
2.89825e-10
2.89834e-10
2.89822e-10
2.89836e-10
2.8982e-10
2.89838e-10
2.89816e-10
2.89844e-10
2.89809e-10
2.89854e-10
2.89803e-10
2.89876e-10
2.89813e-10
2.89918e-10
2.89846e-10
2.89896e-10
2.89649e-10
2.88581e-10
2.8803e-10
2.51258e-10
2.51929e-10
2.53032e-10
2.53336e-10
2.53298e-10
2.53378e-10
2.53272e-10
2.53337e-10
2.53262e-10
2.53314e-10
2.53269e-10
2.53305e-10
2.53275e-10
2.53299e-10
2.5328e-10
2.53296e-10
2.53282e-10
2.53294e-10
2.53285e-10
2.53292e-10
2.53287e-10
2.53291e-10
2.53287e-10
2.5329e-10
2.53289e-10
2.53289e-10
2.5329e-10
2.53287e-10
2.53291e-10
2.53287e-10
2.53292e-10
2.53285e-10
2.53294e-10
2.53282e-10
2.53296e-10
2.5328e-10
2.53299e-10
2.53275e-10
2.53305e-10
2.53269e-10
2.53314e-10
2.53262e-10
2.53337e-10
2.53272e-10
2.53378e-10
2.53298e-10
2.53336e-10
2.53032e-10
2.51929e-10
2.51258e-10
2.20793e-10
2.21488e-10
2.22493e-10
2.2279e-10
2.22765e-10
2.22839e-10
2.22743e-10
2.22801e-10
2.22734e-10
2.2278e-10
2.22739e-10
2.22772e-10
2.22745e-10
2.22766e-10
2.22749e-10
2.22764e-10
2.22751e-10
2.22762e-10
2.22754e-10
2.2276e-10
2.22755e-10
2.22759e-10
2.22756e-10
2.22758e-10
2.22757e-10
2.22757e-10
2.22758e-10
2.22756e-10
2.22759e-10
2.22755e-10
2.2276e-10
2.22754e-10
2.22762e-10
2.22751e-10
2.22764e-10
2.22749e-10
2.22766e-10
2.22745e-10
2.22772e-10
2.2274e-10
2.2278e-10
2.22734e-10
2.22801e-10
2.22743e-10
2.22838e-10
2.22765e-10
2.2279e-10
2.22493e-10
2.21488e-10
2.20793e-10
1.96266e-10
1.97005e-10
1.97947e-10
1.98244e-10
1.9823e-10
1.98301e-10
1.98213e-10
1.98266e-10
1.98204e-10
1.98247e-10
1.98209e-10
1.98239e-10
1.98214e-10
1.98233e-10
1.98218e-10
1.98231e-10
1.98219e-10
1.9823e-10
1.98222e-10
1.98228e-10
1.98223e-10
1.98227e-10
1.98224e-10
1.98226e-10
1.98225e-10
1.98225e-10
1.98226e-10
1.98224e-10
1.98227e-10
1.98223e-10
1.98228e-10
1.98222e-10
1.9823e-10
1.98219e-10
1.98231e-10
1.98218e-10
1.98233e-10
1.98214e-10
1.98238e-10
1.98209e-10
1.98247e-10
1.98204e-10
1.98266e-10
1.98213e-10
1.98301e-10
1.9823e-10
1.98244e-10
1.97947e-10
1.97005e-10
1.96266e-10
1.75611e-10
1.76401e-10
1.77286e-10
1.77582e-10
1.77576e-10
1.77644e-10
1.77562e-10
1.77612e-10
1.77554e-10
1.77593e-10
1.77558e-10
1.77585e-10
1.77563e-10
1.77581e-10
1.77566e-10
1.77579e-10
1.77568e-10
1.77577e-10
1.7757e-10
1.77576e-10
1.77571e-10
1.77575e-10
1.77572e-10
1.77574e-10
1.77573e-10
1.77573e-10
1.77574e-10
1.77572e-10
1.77575e-10
1.77572e-10
1.77576e-10
1.7757e-10
1.77577e-10
1.77568e-10
1.77579e-10
1.77566e-10
1.77581e-10
1.77563e-10
1.77585e-10
1.77558e-10
1.77593e-10
1.77554e-10
1.77612e-10
1.77562e-10
1.77644e-10
1.77576e-10
1.77582e-10
1.77285e-10
1.76401e-10
1.75611e-10
1.58087e-10
1.58426e-10
1.59193e-10
1.59468e-10
1.59481e-10
1.59544e-10
1.59476e-10
1.59517e-10
1.59466e-10
1.59498e-10
1.59468e-10
1.59491e-10
1.59471e-10
1.59486e-10
1.59473e-10
1.59483e-10
1.59474e-10
1.59482e-10
1.59476e-10
1.59481e-10
1.59477e-10
1.5948e-10
1.59477e-10
1.59479e-10
1.59478e-10
1.59478e-10
1.59479e-10
1.59477e-10
1.5948e-10
1.59477e-10
1.59481e-10
1.59476e-10
1.59482e-10
1.59474e-10
1.59483e-10
1.59473e-10
1.59486e-10
1.59471e-10
1.5949e-10
1.59468e-10
1.59498e-10
1.59466e-10
1.59517e-10
1.59476e-10
1.59544e-10
1.59481e-10
1.59468e-10
1.59193e-10
1.58426e-10
1.58087e-10
1.43123e-10
1.43488e-10
1.44203e-10
1.44472e-10
1.44491e-10
1.44551e-10
1.44488e-10
1.44526e-10
1.44479e-10
1.44508e-10
1.4448e-10
1.44501e-10
1.44482e-10
1.44496e-10
1.44484e-10
1.44494e-10
1.44485e-10
1.44493e-10
1.44487e-10
1.44491e-10
1.44488e-10
1.44491e-10
1.44488e-10
1.4449e-10
1.44489e-10
1.44489e-10
1.4449e-10
1.44488e-10
1.44491e-10
1.44488e-10
1.44491e-10
1.44487e-10
1.44493e-10
1.44485e-10
1.44494e-10
1.44484e-10
1.44496e-10
1.44483e-10
1.44501e-10
1.4448e-10
1.44508e-10
1.44479e-10
1.44526e-10
1.44488e-10
1.44551e-10
1.44491e-10
1.44472e-10
1.44203e-10
1.43488e-10
1.43123e-10
1.29775e-10
1.30166e-10
1.30857e-10
1.31135e-10
1.31164e-10
1.31225e-10
1.31165e-10
1.31201e-10
1.31156e-10
1.31183e-10
1.31156e-10
1.31176e-10
1.31158e-10
1.31171e-10
1.3116e-10
1.31169e-10
1.31161e-10
1.31168e-10
1.31162e-10
1.31167e-10
1.31163e-10
1.31166e-10
1.31164e-10
1.31165e-10
1.31164e-10
1.31164e-10
1.31165e-10
1.31164e-10
1.31166e-10
1.31163e-10
1.31167e-10
1.31162e-10
1.31168e-10
1.31161e-10
1.31169e-10
1.3116e-10
1.31171e-10
1.31158e-10
1.31176e-10
1.31156e-10
1.31183e-10
1.31156e-10
1.31201e-10
1.31165e-10
1.31224e-10
1.31164e-10
1.31135e-10
1.30857e-10
1.30166e-10
1.29775e-10
1.18221e-10
1.18617e-10
1.19254e-10
1.1952e-10
1.19552e-10
1.19609e-10
1.19555e-10
1.19587e-10
1.19546e-10
1.1957e-10
1.19546e-10
1.19563e-10
1.19547e-10
1.19559e-10
1.19549e-10
1.19557e-10
1.19549e-10
1.19556e-10
1.19551e-10
1.19555e-10
1.19552e-10
1.19554e-10
1.19552e-10
1.19553e-10
1.19553e-10
1.19553e-10
1.19553e-10
1.19552e-10
1.19554e-10
1.19552e-10
1.19555e-10
1.19551e-10
1.19556e-10
1.19549e-10
1.19557e-10
1.19549e-10
1.19559e-10
1.19547e-10
1.19563e-10
1.19546e-10
1.1957e-10
1.19546e-10
1.19587e-10
1.19555e-10
1.19609e-10
1.19552e-10
1.1952e-10
1.19254e-10
1.18617e-10
1.1822e-10
1.08164e-10
1.08562e-10
1.0915e-10
1.09404e-10
1.09438e-10
1.09492e-10
1.09443e-10
1.09472e-10
1.09434e-10
1.09456e-10
1.09434e-10
1.09449e-10
1.09435e-10
1.09445e-10
1.09436e-10
1.09444e-10
1.09437e-10
1.09443e-10
1.09438e-10
1.09442e-10
1.09439e-10
1.09441e-10
1.09439e-10
1.0944e-10
1.0944e-10
1.0944e-10
1.0944e-10
1.09439e-10
1.09441e-10
1.09439e-10
1.09442e-10
1.09438e-10
1.09443e-10
1.09437e-10
1.09444e-10
1.09436e-10
1.09446e-10
1.09435e-10
1.09449e-10
1.09434e-10
1.09456e-10
1.09434e-10
1.09472e-10
1.09443e-10
1.09492e-10
1.09438e-10
1.09404e-10
1.0915e-10
1.08562e-10
1.08164e-10
9.9367e-11
9.97641e-11
1.00308e-10
1.0055e-10
1.00586e-10
1.00637e-10
1.00592e-10
1.00618e-10
1.00583e-10
1.00603e-10
1.00582e-10
1.00597e-10
1.00583e-10
1.00593e-10
1.00584e-10
1.00591e-10
1.00585e-10
1.0059e-10
1.00586e-10
1.00589e-10
1.00587e-10
1.00589e-10
1.00587e-10
1.00588e-10
1.00588e-10
1.00588e-10
1.00588e-10
1.00587e-10
1.00589e-10
1.00587e-10
1.00589e-10
1.00586e-10
1.0059e-10
1.00585e-10
1.00591e-10
1.00584e-10
1.00593e-10
1.00583e-10
1.00597e-10
1.00582e-10
1.00603e-10
1.00583e-10
1.00618e-10
1.00592e-10
1.00637e-10
1.00586e-10
1.0055e-10
1.00308e-10
9.9764e-11
9.9367e-11
9.16376e-11
9.20301e-11
9.25351e-11
9.27648e-11
9.28022e-11
9.28503e-11
9.28088e-11
9.28327e-11
9.28006e-11
9.28186e-11
9.27997e-11
9.28126e-11
9.28004e-11
9.28091e-11
9.28012e-11
9.28075e-11
9.28016e-11
9.28066e-11
9.28028e-11
9.28058e-11
9.28034e-11
9.28051e-11
9.28037e-11
9.28046e-11
9.28042e-11
9.28042e-11
9.28046e-11
9.28037e-11
9.28051e-11
9.28035e-11
9.28058e-11
9.28028e-11
9.28066e-11
9.28016e-11
9.28075e-11
9.28012e-11
9.28091e-11
9.28004e-11
9.28125e-11
9.27997e-11
9.28186e-11
9.28006e-11
9.28326e-11
9.28088e-11
9.28501e-11
9.28022e-11
9.27647e-11
9.2535e-11
9.20301e-11
9.16376e-11
8.48179e-11
8.52039e-11
8.56738e-11
8.58916e-11
8.59299e-11
8.59753e-11
8.59372e-11
8.59589e-11
8.59293e-11
8.59456e-11
8.59281e-11
8.59398e-11
8.59286e-11
8.59365e-11
8.59293e-11
8.5935e-11
8.59296e-11
8.59342e-11
8.59308e-11
8.59335e-11
8.59313e-11
8.59329e-11
8.59315e-11
8.59324e-11
8.5932e-11
8.5932e-11
8.59324e-11
8.59315e-11
8.59329e-11
8.59313e-11
8.59335e-11
8.59307e-11
8.59342e-11
8.59297e-11
8.5935e-11
8.59293e-11
8.59366e-11
8.59287e-11
8.59398e-11
8.59282e-11
8.59456e-11
8.59293e-11
8.59588e-11
8.59372e-11
8.59751e-11
8.59298e-11
8.58916e-11
8.56737e-11
8.52038e-11
8.48179e-11
7.87781e-11
7.91559e-11
7.95941e-11
7.98004e-11
7.98391e-11
7.9882e-11
7.98471e-11
7.98667e-11
7.98395e-11
7.98541e-11
7.98381e-11
7.98487e-11
7.98384e-11
7.98456e-11
7.98389e-11
7.98441e-11
7.98392e-11
7.98434e-11
7.98402e-11
7.98427e-11
7.98407e-11
7.98421e-11
7.98409e-11
7.98417e-11
7.98414e-11
7.98414e-11
7.98417e-11
7.98409e-11
7.98422e-11
7.98407e-11
7.98427e-11
7.98402e-11
7.98434e-11
7.98392e-11
7.98441e-11
7.98389e-11
7.98456e-11
7.98384e-11
7.98486e-11
7.98381e-11
7.98541e-11
7.98394e-11
7.98667e-11
7.98471e-11
7.98819e-11
7.9839e-11
7.98003e-11
7.9594e-11
7.91558e-11
7.8778e-11
7.34101e-11
7.37787e-11
7.41879e-11
7.43832e-11
7.4422e-11
7.44627e-11
7.44306e-11
7.44484e-11
7.44232e-11
7.44364e-11
7.44216e-11
7.44312e-11
7.44217e-11
7.44283e-11
7.44221e-11
7.44269e-11
7.44224e-11
7.44262e-11
7.44233e-11
7.44256e-11
7.44238e-11
7.44251e-11
7.4424e-11
7.44247e-11
7.44244e-11
7.44244e-11
7.44247e-11
7.4424e-11
7.44251e-11
7.44238e-11
7.44256e-11
7.44233e-11
7.44262e-11
7.44224e-11
7.44269e-11
7.44221e-11
7.44283e-11
7.44218e-11
7.44311e-11
7.44217e-11
7.44364e-11
7.44232e-11
7.44483e-11
7.44306e-11
7.44625e-11
7.4422e-11
7.43832e-11
7.41878e-11
7.37786e-11
7.34101e-11
6.86236e-11
6.8982e-11
6.93648e-11
6.95496e-11
6.95883e-11
6.96268e-11
6.95972e-11
6.96134e-11
6.95902e-11
6.9602e-11
6.95884e-11
6.95971e-11
6.95883e-11
6.95943e-11
6.95886e-11
6.9593e-11
6.95889e-11
6.95924e-11
6.95897e-11
6.95919e-11
6.95901e-11
6.95914e-11
6.95903e-11
6.9591e-11
6.95907e-11
6.95907e-11
6.9591e-11
6.95903e-11
6.95914e-11
6.95902e-11
6.95918e-11
6.95897e-11
6.95924e-11
6.95889e-11
6.9593e-11
6.95886e-11
6.95943e-11
6.95884e-11
6.9597e-11
6.95884e-11
6.9602e-11
6.95901e-11
6.96134e-11
6.95972e-11
6.96266e-11
6.95882e-11
6.95496e-11
6.93647e-11
6.89819e-11
6.86236e-11
6.43423e-11
6.46898e-11
6.50484e-11
6.52234e-11
6.52616e-11
6.52981e-11
6.52709e-11
6.52856e-11
6.52641e-11
6.52748e-11
6.52622e-11
6.527e-11
6.5262e-11
6.52674e-11
6.52622e-11
6.52662e-11
6.52624e-11
6.52656e-11
6.52631e-11
6.52651e-11
6.52635e-11
6.52647e-11
6.52637e-11
6.52643e-11
6.5264e-11
6.5264e-11
6.52643e-11
6.52637e-11
6.52647e-11
6.52635e-11
6.52651e-11
6.52631e-11
6.52656e-11
6.52624e-11
6.52662e-11
6.52622e-11
6.52674e-11
6.5262e-11
6.527e-11
6.52622e-11
6.52748e-11
6.5264e-11
6.52855e-11
6.52709e-11
6.5298e-11
6.52615e-11
6.52233e-11
6.50483e-11
6.46897e-11
6.43423e-11
6.05016e-11
6.08375e-11
6.1174e-11
6.13396e-11
6.13773e-11
6.14118e-11
6.13868e-11
6.14001e-11
6.13802e-11
6.13899e-11
6.13782e-11
6.13853e-11
6.13779e-11
6.13829e-11
6.1378e-11
6.13817e-11
6.13782e-11
6.13812e-11
6.13789e-11
6.13807e-11
6.13793e-11
6.13803e-11
6.13794e-11
6.138e-11
6.13797e-11
6.13797e-11
6.138e-11
6.13794e-11
6.13803e-11
6.13793e-11
6.13807e-11
6.13789e-11
6.13812e-11
6.13782e-11
6.13817e-11
6.1378e-11
6.13829e-11
6.13779e-11
6.13853e-11
6.13782e-11
6.13899e-11
6.13802e-11
6.14001e-11
6.13868e-11
6.14117e-11
6.13772e-11
6.13395e-11
6.11739e-11
6.08375e-11
6.05015e-11
5.70461e-11
5.73701e-11
5.76863e-11
5.78431e-11
5.788e-11
5.79128e-11
5.78898e-11
5.79019e-11
5.78835e-11
5.78921e-11
5.78813e-11
5.78878e-11
5.78809e-11
5.78854e-11
5.78809e-11
5.78843e-11
5.78811e-11
5.78838e-11
5.78817e-11
5.78834e-11
5.78821e-11
5.7883e-11
5.78822e-11
5.78827e-11
5.78825e-11
5.78825e-11
5.78827e-11
5.78822e-11
5.7883e-11
5.78821e-11
5.78834e-11
5.78817e-11
5.78838e-11
5.78811e-11
5.78844e-11
5.7881e-11
5.78854e-11
5.78809e-11
5.78877e-11
5.78813e-11
5.78921e-11
5.78834e-11
5.79019e-11
5.78897e-11
5.79127e-11
5.788e-11
5.78431e-11
5.76862e-11
5.737e-11
5.70461e-11
5.39288e-11
5.42402e-11
5.4538e-11
5.46865e-11
5.47226e-11
5.47537e-11
5.47324e-11
5.47434e-11
5.47264e-11
5.47341e-11
5.47241e-11
5.473e-11
5.47236e-11
5.47278e-11
5.47236e-11
5.47267e-11
5.47237e-11
5.47263e-11
5.47243e-11
5.47259e-11
5.47246e-11
5.47255e-11
5.47248e-11
5.47253e-11
5.4725e-11
5.4725e-11
5.47253e-11
5.47248e-11
5.47255e-11
5.47247e-11
5.47259e-11
5.47243e-11
5.47263e-11
5.47237e-11
5.47267e-11
5.47236e-11
5.47278e-11
5.47236e-11
5.473e-11
5.47242e-11
5.47341e-11
5.47263e-11
5.47434e-11
5.47324e-11
5.47536e-11
5.47225e-11
5.46865e-11
5.45379e-11
5.42401e-11
5.39288e-11
5.11089e-11
5.14071e-11
5.16882e-11
5.1829e-11
5.18641e-11
5.18937e-11
5.1874e-11
5.18841e-11
5.18682e-11
5.18752e-11
5.18659e-11
5.18712e-11
5.18653e-11
5.18691e-11
5.18652e-11
5.18681e-11
5.18654e-11
5.18677e-11
5.18659e-11
5.18674e-11
5.18662e-11
5.1867e-11
5.18663e-11
5.18668e-11
5.18666e-11
5.18666e-11
5.18668e-11
5.18663e-11
5.1867e-11
5.18662e-11
5.18674e-11
5.18659e-11
5.18677e-11
5.18654e-11
5.18681e-11
5.18653e-11
5.18691e-11
5.18653e-11
5.18712e-11
5.18659e-11
5.18752e-11
5.18681e-11
5.1884e-11
5.1874e-11
5.18936e-11
5.1864e-11
5.18289e-11
5.16882e-11
5.14071e-11
5.11088e-11
4.85513e-11
4.88359e-11
4.91019e-11
4.92353e-11
4.92694e-11
4.92975e-11
4.92794e-11
4.92885e-11
4.92737e-11
4.92801e-11
4.92714e-11
4.92763e-11
4.92708e-11
4.92742e-11
4.92707e-11
4.92733e-11
4.92708e-11
4.92729e-11
4.92713e-11
4.92726e-11
4.92715e-11
4.92723e-11
4.92716e-11
4.92721e-11
4.92719e-11
4.92719e-11
4.92721e-11
4.92716e-11
4.92723e-11
4.92716e-11
4.92726e-11
4.92713e-11
4.92729e-11
4.92708e-11
4.92733e-11
4.92707e-11
4.92742e-11
4.92708e-11
4.92762e-11
4.92714e-11
4.928e-11
4.92737e-11
4.92885e-11
4.92793e-11
4.92974e-11
4.92694e-11
4.92353e-11
4.91019e-11
4.88358e-11
4.85513e-11
4.62249e-11
4.64967e-11
4.67485e-11
4.68749e-11
4.6908e-11
4.69347e-11
4.69179e-11
4.69263e-11
4.69125e-11
4.69182e-11
4.69102e-11
4.69146e-11
4.69095e-11
4.69127e-11
4.69094e-11
4.69118e-11
4.69094e-11
4.69115e-11
4.69099e-11
4.69112e-11
4.69102e-11
4.69109e-11
4.69103e-11
4.69107e-11
4.69105e-11
4.69105e-11
4.69107e-11
4.69103e-11
4.69109e-11
4.69102e-11
4.69112e-11
4.69099e-11
4.69115e-11
4.69094e-11
4.69118e-11
4.69094e-11
4.69127e-11
4.69095e-11
4.69146e-11
4.69102e-11
4.69182e-11
4.69125e-11
4.69262e-11
4.69179e-11
4.69346e-11
4.6908e-11
4.68749e-11
4.67485e-11
4.64967e-11
4.62248e-11
)
;

boundaryField
{
    fuel
    {
        type            fixedValue;
        value           uniform 0;
    }
    wall
    {
        type            zeroGradient;
    }
    outlet
    {
        type            zeroGradient;
    }
    frontAndBack
    {
        type            empty;
    }
    procBoundary1to0
    {
        type            processor;
        value           nonuniform List<scalar> 
50
(
4.41032e-11
4.43634e-11
4.46016e-11
4.47214e-11
4.47534e-11
4.47788e-11
4.47633e-11
4.47709e-11
4.47581e-11
4.47632e-11
4.47558e-11
4.47598e-11
4.4755e-11
4.47579e-11
4.47549e-11
4.47571e-11
4.47549e-11
4.47568e-11
4.47554e-11
4.47566e-11
4.47556e-11
4.47563e-11
4.47557e-11
4.47561e-11
4.47559e-11
4.47559e-11
4.47561e-11
4.47557e-11
4.47563e-11
4.47556e-11
4.47566e-11
4.47554e-11
4.47568e-11
4.47549e-11
4.47571e-11
4.47549e-11
4.4758e-11
4.4755e-11
4.47597e-11
4.47558e-11
4.47632e-11
4.47581e-11
4.47709e-11
4.47633e-11
4.47787e-11
4.47534e-11
4.47213e-11
4.46015e-11
4.43633e-11
4.41032e-11
)
;
    }
}


// ************************************************************************* //
