/*--------------------------------*- C++ -*----------------------------------*\
| =========                 |                                                 |
| \\      /  F ield         | OpenFOAM: The Open Source CFD Toolbox           |
|  \\    /   O peration     | Version:  dev                                   |
|   \\  /    A nd           | Web:      www.OpenFOAM.org                      |
|    \\/     M anipulation  |                                                 |
\*---------------------------------------------------------------------------*/
FoamFile
{
    version     2.0;
    format      ascii;
    class       volScalarField;
    location    "0.06";
    object      n-C4H5;
}
// * * * * * * * * * * * * * * * * * * * * * * * * * * * * * * * * * * * * * //

dimensions      [0 0 0 0 0 0 0];

internalField   nonuniform List<scalar> 
2000
(
5.71675e-07
5.72001e-07
5.72382e-07
5.72547e-07
5.7251e-07
5.72571e-07
5.72526e-07
5.72565e-07
5.72532e-07
5.72558e-07
5.72536e-07
5.72554e-07
5.72539e-07
5.72551e-07
5.72541e-07
5.72549e-07
5.72542e-07
5.72548e-07
5.72544e-07
5.72547e-07
5.72544e-07
5.72546e-07
5.72545e-07
5.72546e-07
5.72545e-07
5.72545e-07
5.72546e-07
5.72545e-07
5.72546e-07
5.72544e-07
5.72547e-07
5.72544e-07
5.72548e-07
5.72542e-07
5.72549e-07
5.72541e-07
5.72551e-07
5.72539e-07
5.72554e-07
5.72536e-07
5.72558e-07
5.72532e-07
5.72564e-07
5.72526e-07
5.72571e-07
5.7251e-07
5.72547e-07
5.72382e-07
5.72001e-07
5.71675e-07
1.2188e-06
1.22024e-06
1.22153e-06
1.2221e-06
1.22204e-06
1.22223e-06
1.22211e-06
1.22221e-06
1.22212e-06
1.2222e-06
1.22213e-06
1.22218e-06
1.22214e-06
1.22218e-06
1.22215e-06
1.22217e-06
1.22215e-06
1.22217e-06
1.22216e-06
1.22217e-06
1.22216e-06
1.22216e-06
1.22216e-06
1.22216e-06
1.22216e-06
1.22216e-06
1.22216e-06
1.22216e-06
1.22216e-06
1.22216e-06
1.22217e-06
1.22216e-06
1.22217e-06
1.22215e-06
1.22217e-06
1.22215e-06
1.22218e-06
1.22214e-06
1.22218e-06
1.22213e-06
1.2222e-06
1.22212e-06
1.22221e-06
1.22211e-06
1.22223e-06
1.22204e-06
1.2221e-06
1.22153e-06
1.22024e-06
1.2188e-06
7.92139e-07
7.9234e-07
7.92257e-07
7.92194e-07
7.92027e-07
7.92084e-07
7.92007e-07
7.92061e-07
7.92014e-07
7.92053e-07
7.92021e-07
7.92049e-07
7.92027e-07
7.92045e-07
7.92031e-07
7.92043e-07
7.92032e-07
7.92041e-07
7.92034e-07
7.92039e-07
7.92035e-07
7.92038e-07
7.92036e-07
7.92038e-07
7.92037e-07
7.92037e-07
7.92038e-07
7.92036e-07
7.92038e-07
7.92036e-07
7.92039e-07
7.92034e-07
7.92041e-07
7.92032e-07
7.92043e-07
7.92031e-07
7.92045e-07
7.92027e-07
7.92048e-07
7.92022e-07
7.92053e-07
7.92014e-07
7.92061e-07
7.92007e-07
7.92084e-07
7.92027e-07
7.92194e-07
7.92256e-07
7.9234e-07
7.92139e-07
3.87599e-07
3.87701e-07
3.87666e-07
3.87611e-07
3.875e-07
3.87534e-07
3.87484e-07
3.87518e-07
3.87488e-07
3.87513e-07
3.87493e-07
3.8751e-07
3.87497e-07
3.87508e-07
3.87499e-07
3.87506e-07
3.875e-07
3.87505e-07
3.87501e-07
3.87504e-07
3.87502e-07
3.87504e-07
3.87502e-07
3.87503e-07
3.87503e-07
3.87503e-07
3.87503e-07
3.87502e-07
3.87504e-07
3.87502e-07
3.87504e-07
3.87501e-07
3.87505e-07
3.875e-07
3.87506e-07
3.87499e-07
3.87508e-07
3.87497e-07
3.8751e-07
3.87493e-07
3.87513e-07
3.87488e-07
3.87518e-07
3.87484e-07
3.87534e-07
3.875e-07
3.87611e-07
3.87666e-07
3.87701e-07
3.87599e-07
1.87742e-07
1.87854e-07
1.87928e-07
1.87922e-07
1.8786e-07
1.87886e-07
1.87853e-07
1.87876e-07
1.87855e-07
1.87872e-07
1.87859e-07
1.8787e-07
1.87861e-07
1.87869e-07
1.87863e-07
1.87868e-07
1.87863e-07
1.87867e-07
1.87864e-07
1.87866e-07
1.87865e-07
1.87866e-07
1.87865e-07
1.87865e-07
1.87865e-07
1.87865e-07
1.87865e-07
1.87865e-07
1.87866e-07
1.87865e-07
1.87866e-07
1.87864e-07
1.87867e-07
1.87863e-07
1.87868e-07
1.87862e-07
1.87869e-07
1.87861e-07
1.8787e-07
1.87859e-07
1.87872e-07
1.87855e-07
1.87876e-07
1.87852e-07
1.87886e-07
1.8786e-07
1.87922e-07
1.87927e-07
1.87854e-07
1.87742e-07
9.47145e-08
9.48108e-08
9.49118e-08
9.49259e-08
9.48904e-08
9.49097e-08
9.48878e-08
9.4904e-08
9.48897e-08
9.49012e-08
9.48917e-08
9.48997e-08
9.48933e-08
9.48985e-08
9.48943e-08
9.48978e-08
9.48947e-08
9.48973e-08
9.48953e-08
9.48968e-08
9.48957e-08
9.48965e-08
9.48958e-08
9.48963e-08
9.48961e-08
9.48961e-08
9.48963e-08
9.48958e-08
9.48965e-08
9.48957e-08
9.48968e-08
9.48953e-08
9.48973e-08
9.48947e-08
9.48978e-08
9.48943e-08
9.48984e-08
9.48933e-08
9.48997e-08
9.48918e-08
9.49012e-08
9.48896e-08
9.49039e-08
9.48878e-08
9.49096e-08
9.48904e-08
9.49258e-08
9.49118e-08
9.48108e-08
9.47142e-08
4.97899e-08
4.98621e-08
4.99535e-08
4.99709e-08
4.99508e-08
4.99642e-08
4.99499e-08
4.99607e-08
4.99511e-08
4.99588e-08
4.99524e-08
4.99577e-08
4.99535e-08
4.99569e-08
4.99541e-08
4.99564e-08
4.99544e-08
4.99561e-08
4.99548e-08
4.99558e-08
4.9955e-08
4.99556e-08
4.99551e-08
4.99554e-08
4.99553e-08
4.99553e-08
4.99554e-08
4.99551e-08
4.99556e-08
4.9955e-08
4.99558e-08
4.99548e-08
4.99561e-08
4.99544e-08
4.99564e-08
4.99541e-08
4.99569e-08
4.99535e-08
4.99577e-08
4.99525e-08
4.99588e-08
4.99511e-08
4.99606e-08
4.99499e-08
4.99641e-08
4.99507e-08
4.99709e-08
4.99535e-08
4.98621e-08
4.97897e-08
2.72492e-08
2.73006e-08
2.73733e-08
2.73889e-08
2.73774e-08
2.73865e-08
2.73772e-08
2.73843e-08
2.7378e-08
2.7383e-08
2.73788e-08
2.73823e-08
2.73795e-08
2.73817e-08
2.73799e-08
2.73814e-08
2.738e-08
2.73812e-08
2.73803e-08
2.7381e-08
2.73805e-08
2.73809e-08
2.73805e-08
2.73807e-08
2.73807e-08
2.73807e-08
2.73807e-08
2.73805e-08
2.73809e-08
2.73805e-08
2.7381e-08
2.73803e-08
2.73812e-08
2.738e-08
2.73814e-08
2.73799e-08
2.73817e-08
2.73795e-08
2.73823e-08
2.73788e-08
2.7383e-08
2.73779e-08
2.73843e-08
2.73772e-08
2.73865e-08
2.73773e-08
2.73888e-08
2.73732e-08
2.73006e-08
2.72491e-08
1.5495e-08
1.55309e-08
1.55858e-08
1.55984e-08
1.55918e-08
1.5598e-08
1.5592e-08
1.55966e-08
1.55924e-08
1.55958e-08
1.55929e-08
1.55953e-08
1.55934e-08
1.55949e-08
1.55936e-08
1.55947e-08
1.55938e-08
1.55945e-08
1.55939e-08
1.55944e-08
1.5594e-08
1.55943e-08
1.55941e-08
1.55942e-08
1.55942e-08
1.55942e-08
1.55942e-08
1.55941e-08
1.55943e-08
1.5594e-08
1.55944e-08
1.55939e-08
1.55945e-08
1.55938e-08
1.55947e-08
1.55936e-08
1.55949e-08
1.55934e-08
1.55952e-08
1.5593e-08
1.55958e-08
1.55924e-08
1.55966e-08
1.5592e-08
1.5598e-08
1.55918e-08
1.55984e-08
1.55858e-08
1.55309e-08
1.54949e-08
9.21558e-09
9.2413e-09
9.28234e-09
9.2924e-09
9.28862e-09
9.29294e-09
9.28885e-09
9.29202e-09
9.28913e-09
9.2914e-09
9.28948e-09
9.29105e-09
9.28977e-09
9.29077e-09
9.28995e-09
9.29063e-09
9.29002e-09
9.29054e-09
9.29015e-09
9.29044e-09
9.29022e-09
9.29038e-09
9.29024e-09
9.29033e-09
9.29029e-09
9.29029e-09
9.29033e-09
9.29024e-09
9.29038e-09
9.29022e-09
9.29044e-09
9.29015e-09
9.29053e-09
9.29002e-09
9.29064e-09
9.28994e-09
9.29077e-09
9.28978e-09
9.29104e-09
9.28949e-09
9.2914e-09
9.28912e-09
9.29201e-09
9.28885e-09
9.29293e-09
9.28862e-09
9.2924e-09
9.28234e-09
9.2413e-09
9.21556e-09
5.73636e-09
5.75544e-09
5.78662e-09
5.79472e-09
5.79253e-09
5.79564e-09
5.79279e-09
5.79502e-09
5.79297e-09
5.79456e-09
5.79321e-09
5.79431e-09
5.79341e-09
5.79411e-09
5.79353e-09
5.79401e-09
5.79358e-09
5.79395e-09
5.79367e-09
5.79388e-09
5.79372e-09
5.79384e-09
5.79373e-09
5.7938e-09
5.79377e-09
5.79377e-09
5.7938e-09
5.79373e-09
5.79384e-09
5.79372e-09
5.79388e-09
5.79367e-09
5.79394e-09
5.79358e-09
5.79402e-09
5.79353e-09
5.79411e-09
5.79341e-09
5.7943e-09
5.79322e-09
5.79456e-09
5.79297e-09
5.79501e-09
5.79279e-09
5.79563e-09
5.79253e-09
5.79472e-09
5.78662e-09
5.75545e-09
5.73635e-09
3.66736e-09
3.68105e-09
3.70334e-09
3.70941e-09
3.70816e-09
3.7103e-09
3.70838e-09
3.70989e-09
3.70849e-09
3.70957e-09
3.70865e-09
3.70939e-09
3.70878e-09
3.70925e-09
3.70886e-09
3.70919e-09
3.70889e-09
3.70914e-09
3.70895e-09
3.7091e-09
3.70899e-09
3.70907e-09
3.709e-09
3.70904e-09
3.70902e-09
3.70902e-09
3.70904e-09
3.709e-09
3.70907e-09
3.70899e-09
3.7091e-09
3.70895e-09
3.70914e-09
3.70889e-09
3.70919e-09
3.70886e-09
3.70925e-09
3.70878e-09
3.70939e-09
3.70865e-09
3.70957e-09
3.70849e-09
3.70988e-09
3.70838e-09
3.7103e-09
3.70816e-09
3.70941e-09
3.70333e-09
3.68106e-09
3.66736e-09
2.47835e-09
2.48943e-09
2.507e-09
2.51206e-09
2.51129e-09
2.51295e-09
2.5115e-09
2.51263e-09
2.51157e-09
2.51238e-09
2.51168e-09
2.51225e-09
2.51178e-09
2.51214e-09
2.51184e-09
2.51209e-09
2.51187e-09
2.51206e-09
2.51192e-09
2.51202e-09
2.51194e-09
2.512e-09
2.51195e-09
2.51198e-09
2.51197e-09
2.51197e-09
2.51198e-09
2.51195e-09
2.512e-09
2.51194e-09
2.51202e-09
2.51192e-09
2.51205e-09
2.51187e-09
2.51209e-09
2.51184e-09
2.51214e-09
2.51178e-09
2.51224e-09
2.51169e-09
2.51238e-09
2.51157e-09
2.51263e-09
2.5115e-09
2.51294e-09
2.51129e-09
2.51206e-09
2.507e-09
2.48943e-09
2.47835e-09
1.74084e-09
1.7473e-09
1.759e-09
1.76253e-09
1.76243e-09
1.76349e-09
1.76267e-09
1.76334e-09
1.7627e-09
1.76318e-09
1.76276e-09
1.76309e-09
1.76281e-09
1.76302e-09
1.76284e-09
1.76299e-09
1.76285e-09
1.76297e-09
1.76288e-09
1.76295e-09
1.7629e-09
1.76293e-09
1.7629e-09
1.76292e-09
1.76291e-09
1.76291e-09
1.76292e-09
1.7629e-09
1.76293e-09
1.7629e-09
1.76295e-09
1.76288e-09
1.76297e-09
1.76285e-09
1.76299e-09
1.76284e-09
1.76302e-09
1.76281e-09
1.76309e-09
1.76276e-09
1.76318e-09
1.7627e-09
1.76334e-09
1.76267e-09
1.76349e-09
1.76243e-09
1.76253e-09
1.759e-09
1.74731e-09
1.74084e-09
1.25662e-09
1.26165e-09
1.27046e-09
1.27324e-09
1.27327e-09
1.27406e-09
1.27347e-09
1.27396e-09
1.27349e-09
1.27384e-09
1.27353e-09
1.27377e-09
1.27357e-09
1.27372e-09
1.27359e-09
1.27369e-09
1.27359e-09
1.27368e-09
1.27362e-09
1.27366e-09
1.27362e-09
1.27365e-09
1.27363e-09
1.27364e-09
1.27364e-09
1.27364e-09
1.27364e-09
1.27363e-09
1.27365e-09
1.27362e-09
1.27366e-09
1.27362e-09
1.27368e-09
1.27359e-09
1.27369e-09
1.27359e-09
1.27372e-09
1.27357e-09
1.27377e-09
1.27353e-09
1.27384e-09
1.27349e-09
1.27396e-09
1.27347e-09
1.27406e-09
1.27327e-09
1.27324e-09
1.27046e-09
1.26165e-09
1.25662e-09
9.49173e-10
9.53332e-10
9.60349e-10
9.62655e-10
9.62757e-10
9.63386e-10
9.62932e-10
9.6331e-10
9.62945e-10
9.63213e-10
9.62974e-10
9.63158e-10
9.63e-10
9.63118e-10
9.63016e-10
9.63097e-10
9.63021e-10
9.63085e-10
9.63037e-10
9.63073e-10
9.63044e-10
9.63064e-10
9.63046e-10
9.63057e-10
9.63053e-10
9.63053e-10
9.63057e-10
9.63046e-10
9.63064e-10
9.63044e-10
9.63073e-10
9.63037e-10
9.63084e-10
9.63021e-10
9.63098e-10
9.63015e-10
9.63118e-10
9.63001e-10
9.63157e-10
9.62975e-10
9.63213e-10
9.62944e-10
9.6331e-10
9.62932e-10
9.63385e-10
9.62757e-10
9.62655e-10
9.60349e-10
9.53332e-10
9.49173e-10
7.33557e-10
7.37323e-10
7.43288e-10
7.45439e-10
7.45664e-10
7.4621e-10
7.45856e-10
7.46157e-10
7.45859e-10
7.4607e-10
7.45876e-10
7.46021e-10
7.45893e-10
7.45986e-10
7.45903e-10
7.45968e-10
7.45907e-10
7.45958e-10
7.45919e-10
7.45948e-10
7.45925e-10
7.45941e-10
7.45926e-10
7.45935e-10
7.45931e-10
7.45931e-10
7.45935e-10
7.45926e-10
7.45941e-10
7.45925e-10
7.45948e-10
7.45919e-10
7.45957e-10
7.45907e-10
7.45969e-10
7.45903e-10
7.45986e-10
7.45894e-10
7.4602e-10
7.45877e-10
7.46071e-10
7.45859e-10
7.46157e-10
7.45856e-10
7.46209e-10
7.45663e-10
7.45439e-10
7.43288e-10
7.37323e-10
7.33557e-10
5.87819e-10
5.9106e-10
5.9595e-10
5.97783e-10
5.98025e-10
5.98475e-10
5.98199e-10
5.98437e-10
5.98199e-10
5.98365e-10
5.9821e-10
5.98324e-10
5.98221e-10
5.98295e-10
5.98229e-10
5.9828e-10
5.98231e-10
5.98271e-10
5.98241e-10
5.98264e-10
5.98245e-10
5.98258e-10
5.98246e-10
5.98253e-10
5.9825e-10
5.9825e-10
5.98253e-10
5.98246e-10
5.98258e-10
5.98245e-10
5.98264e-10
5.98241e-10
5.98271e-10
5.98231e-10
5.9828e-10
5.98229e-10
5.98295e-10
5.98222e-10
5.98323e-10
5.9821e-10
5.98365e-10
5.98199e-10
5.98437e-10
5.98199e-10
5.98474e-10
5.98025e-10
5.97783e-10
5.9595e-10
5.9106e-10
5.87819e-10
4.79518e-10
4.82571e-10
4.869e-10
4.88609e-10
4.88841e-10
4.89247e-10
4.88999e-10
4.89211e-10
4.88998e-10
4.89145e-10
4.89007e-10
4.89109e-10
4.89017e-10
4.89083e-10
4.89024e-10
4.8907e-10
4.89026e-10
4.89062e-10
4.89035e-10
4.89055e-10
4.89039e-10
4.8905e-10
4.89039e-10
4.89046e-10
4.89043e-10
4.89043e-10
4.89046e-10
4.8904e-10
4.8905e-10
4.89039e-10
4.89055e-10
4.89035e-10
4.89062e-10
4.89026e-10
4.8907e-10
4.89024e-10
4.89083e-10
4.89018e-10
4.89108e-10
4.89007e-10
4.89145e-10
4.88997e-10
4.89211e-10
4.88999e-10
4.89247e-10
4.8884e-10
4.88609e-10
4.869e-10
4.82571e-10
4.79518e-10
3.99738e-10
4.02443e-10
4.06023e-10
4.07488e-10
4.07716e-10
4.08055e-10
4.07858e-10
4.08027e-10
4.07854e-10
4.07972e-10
4.0786e-10
4.07941e-10
4.07867e-10
4.07919e-10
4.07872e-10
4.07908e-10
4.07873e-10
4.07902e-10
4.0788e-10
4.07897e-10
4.07883e-10
4.07892e-10
4.07884e-10
4.07889e-10
4.07887e-10
4.07887e-10
4.07889e-10
4.07884e-10
4.07892e-10
4.07883e-10
4.07897e-10
4.0788e-10
4.07902e-10
4.07873e-10
4.07909e-10
4.07872e-10
4.07919e-10
4.07867e-10
4.0794e-10
4.0786e-10
4.07972e-10
4.07854e-10
4.08027e-10
4.07858e-10
4.08054e-10
4.07716e-10
4.07488e-10
4.06023e-10
4.02443e-10
3.99738e-10
3.41761e-10
3.44273e-10
3.47346e-10
3.48645e-10
3.48869e-10
3.49163e-10
3.48999e-10
3.49141e-10
3.48994e-10
3.49092e-10
3.48997e-10
3.49065e-10
3.49002e-10
3.49046e-10
3.49006e-10
3.49037e-10
3.49007e-10
3.49031e-10
3.49013e-10
3.49027e-10
3.49015e-10
3.49023e-10
3.49015e-10
3.4902e-10
3.49018e-10
3.49018e-10
3.4902e-10
3.49015e-10
3.49023e-10
3.49015e-10
3.49026e-10
3.49013e-10
3.49031e-10
3.49007e-10
3.49037e-10
3.49006e-10
3.49046e-10
3.49003e-10
3.49064e-10
3.48998e-10
3.49092e-10
3.48994e-10
3.49141e-10
3.48999e-10
3.49162e-10
3.48869e-10
3.48645e-10
3.47346e-10
3.44273e-10
3.41761e-10
2.97153e-10
2.99554e-10
3.02232e-10
3.03397e-10
3.03613e-10
3.03872e-10
3.03733e-10
3.03854e-10
3.03727e-10
3.0381e-10
3.03728e-10
3.03786e-10
3.03732e-10
3.03769e-10
3.03735e-10
3.03761e-10
3.03735e-10
3.03756e-10
3.0374e-10
3.03752e-10
3.03742e-10
3.03749e-10
3.03743e-10
3.03746e-10
3.03745e-10
3.03745e-10
3.03746e-10
3.03743e-10
3.03749e-10
3.03742e-10
3.03752e-10
3.0374e-10
3.03756e-10
3.03735e-10
3.03761e-10
3.03735e-10
3.03769e-10
3.03732e-10
3.03785e-10
3.03729e-10
3.0381e-10
3.03727e-10
3.03853e-10
3.03733e-10
3.03871e-10
3.03613e-10
3.03396e-10
3.02232e-10
2.99554e-10
2.97153e-10
2.62181e-10
2.63533e-10
2.65764e-10
2.66781e-10
2.67012e-10
2.67238e-10
2.67132e-10
2.67227e-10
2.67123e-10
2.67186e-10
2.67119e-10
2.67163e-10
2.67119e-10
2.67147e-10
2.67119e-10
2.67139e-10
2.67119e-10
2.67135e-10
2.67122e-10
2.67132e-10
2.67123e-10
2.67129e-10
2.67124e-10
2.67127e-10
2.67125e-10
2.67125e-10
2.67127e-10
2.67124e-10
2.67129e-10
2.67123e-10
2.67131e-10
2.67122e-10
2.67135e-10
2.67119e-10
2.6714e-10
2.67119e-10
2.67148e-10
2.67119e-10
2.67163e-10
2.6712e-10
2.67187e-10
2.67123e-10
2.67227e-10
2.67132e-10
2.67238e-10
2.67012e-10
2.66781e-10
2.65764e-10
2.63533e-10
2.62181e-10
2.343e-10
2.35585e-10
2.37559e-10
2.38483e-10
2.38704e-10
2.38908e-10
2.38816e-10
2.38899e-10
2.38807e-10
2.38861e-10
2.38803e-10
2.3884e-10
2.38801e-10
2.38826e-10
2.38801e-10
2.38818e-10
2.388e-10
2.38814e-10
2.38803e-10
2.38811e-10
2.38804e-10
2.38809e-10
2.38804e-10
2.38807e-10
2.38806e-10
2.38806e-10
2.38807e-10
2.38804e-10
2.38809e-10
2.38804e-10
2.38811e-10
2.38803e-10
2.38814e-10
2.388e-10
2.38818e-10
2.38801e-10
2.38826e-10
2.38801e-10
2.3884e-10
2.38803e-10
2.38862e-10
2.38807e-10
2.38899e-10
2.38816e-10
2.38907e-10
2.38704e-10
2.38483e-10
2.37559e-10
2.35585e-10
2.343e-10
2.10871e-10
2.12106e-10
2.13905e-10
2.14775e-10
2.14996e-10
2.15186e-10
2.15105e-10
2.15178e-10
2.15094e-10
2.15141e-10
2.15088e-10
2.15121e-10
2.15086e-10
2.15107e-10
2.15085e-10
2.151e-10
2.15084e-10
2.15097e-10
2.15086e-10
2.15094e-10
2.15087e-10
2.15091e-10
2.15087e-10
2.1509e-10
2.15089e-10
2.15089e-10
2.1509e-10
2.15087e-10
2.15091e-10
2.15087e-10
2.15094e-10
2.15086e-10
2.15097e-10
2.15084e-10
2.151e-10
2.15085e-10
2.15107e-10
2.15086e-10
2.15121e-10
2.15088e-10
2.15142e-10
2.15094e-10
2.15177e-10
2.15105e-10
2.15185e-10
2.14996e-10
2.14775e-10
2.13905e-10
2.12106e-10
2.10871e-10
1.91582e-10
1.92747e-10
1.9435e-10
1.95144e-10
1.95355e-10
1.95526e-10
1.95456e-10
1.95519e-10
1.95446e-10
1.95486e-10
1.95438e-10
1.95466e-10
1.95435e-10
1.95454e-10
1.95434e-10
1.95447e-10
1.95433e-10
1.95444e-10
1.95435e-10
1.95441e-10
1.95436e-10
1.95439e-10
1.95436e-10
1.95438e-10
1.95437e-10
1.95437e-10
1.95438e-10
1.95436e-10
1.95439e-10
1.95436e-10
1.95441e-10
1.95435e-10
1.95444e-10
1.95433e-10
1.95448e-10
1.95434e-10
1.95454e-10
1.95436e-10
1.95466e-10
1.95439e-10
1.95486e-10
1.95446e-10
1.95519e-10
1.95456e-10
1.95526e-10
1.95355e-10
1.95144e-10
1.9435e-10
1.92747e-10
1.91582e-10
1.75471e-10
1.76575e-10
1.78015e-10
1.78743e-10
1.78944e-10
1.791e-10
1.79039e-10
1.79094e-10
1.79028e-10
1.79063e-10
1.7902e-10
1.79044e-10
1.79017e-10
1.79033e-10
1.79015e-10
1.79027e-10
1.79014e-10
1.79024e-10
1.79016e-10
1.79021e-10
1.79016e-10
1.79019e-10
1.79016e-10
1.79018e-10
1.79017e-10
1.79017e-10
1.79018e-10
1.79016e-10
1.79019e-10
1.79016e-10
1.79021e-10
1.79016e-10
1.79024e-10
1.79014e-10
1.79027e-10
1.79015e-10
1.79033e-10
1.79017e-10
1.79044e-10
1.79021e-10
1.79063e-10
1.79028e-10
1.79094e-10
1.79039e-10
1.791e-10
1.78944e-10
1.78743e-10
1.78015e-10
1.76575e-10
1.75471e-10
1.61834e-10
1.62883e-10
1.64187e-10
1.64857e-10
1.6505e-10
1.65193e-10
1.65139e-10
1.65187e-10
1.65128e-10
1.65157e-10
1.65119e-10
1.6514e-10
1.65115e-10
1.65129e-10
1.65113e-10
1.65123e-10
1.65112e-10
1.65121e-10
1.65113e-10
1.65118e-10
1.65114e-10
1.65117e-10
1.65114e-10
1.65115e-10
1.65115e-10
1.65115e-10
1.65115e-10
1.65114e-10
1.65117e-10
1.65114e-10
1.65118e-10
1.65113e-10
1.65121e-10
1.65112e-10
1.65124e-10
1.65113e-10
1.65129e-10
1.65115e-10
1.6514e-10
1.6512e-10
1.65157e-10
1.65128e-10
1.65187e-10
1.65139e-10
1.65193e-10
1.65049e-10
1.64857e-10
1.64187e-10
1.62883e-10
1.61834e-10
1.50151e-10
1.51147e-10
1.52339e-10
1.52958e-10
1.53141e-10
1.53274e-10
1.53226e-10
1.53268e-10
1.53214e-10
1.5324e-10
1.53205e-10
1.53223e-10
1.53201e-10
1.53213e-10
1.53198e-10
1.53207e-10
1.53197e-10
1.53205e-10
1.53198e-10
1.53203e-10
1.53198e-10
1.53201e-10
1.53198e-10
1.532e-10
1.53199e-10
1.53199e-10
1.532e-10
1.53198e-10
1.53201e-10
1.53198e-10
1.53203e-10
1.53198e-10
1.53205e-10
1.53197e-10
1.53207e-10
1.53198e-10
1.53213e-10
1.53201e-10
1.53223e-10
1.53205e-10
1.5324e-10
1.53214e-10
1.53268e-10
1.53226e-10
1.53274e-10
1.53141e-10
1.52957e-10
1.52338e-10
1.51147e-10
1.50151e-10
1.40029e-10
1.40977e-10
1.42072e-10
1.42646e-10
1.42821e-10
1.42944e-10
1.42901e-10
1.42938e-10
1.42889e-10
1.42911e-10
1.4288e-10
1.42895e-10
1.42875e-10
1.42885e-10
1.42872e-10
1.4288e-10
1.42871e-10
1.42877e-10
1.42871e-10
1.42876e-10
1.42872e-10
1.42874e-10
1.42872e-10
1.42873e-10
1.42872e-10
1.42872e-10
1.42873e-10
1.42872e-10
1.42874e-10
1.42872e-10
1.42875e-10
1.42871e-10
1.42877e-10
1.42871e-10
1.4288e-10
1.42872e-10
1.42885e-10
1.42875e-10
1.42895e-10
1.4288e-10
1.42911e-10
1.42889e-10
1.42938e-10
1.42901e-10
1.42944e-10
1.42821e-10
1.42646e-10
1.42072e-10
1.40977e-10
1.40029e-10
1.3117e-10
1.32073e-10
1.33086e-10
1.33619e-10
1.33787e-10
1.33901e-10
1.33862e-10
1.33895e-10
1.3385e-10
1.33869e-10
1.3384e-10
1.33853e-10
1.33834e-10
1.33844e-10
1.33832e-10
1.33839e-10
1.3383e-10
1.33836e-10
1.33831e-10
1.33834e-10
1.33831e-10
1.33833e-10
1.33831e-10
1.33832e-10
1.33831e-10
1.33831e-10
1.33832e-10
1.33831e-10
1.33833e-10
1.33831e-10
1.33834e-10
1.33831e-10
1.33836e-10
1.3383e-10
1.33839e-10
1.33832e-10
1.33844e-10
1.33834e-10
1.33853e-10
1.3384e-10
1.33869e-10
1.3385e-10
1.33895e-10
1.33862e-10
1.33901e-10
1.33786e-10
1.33619e-10
1.33086e-10
1.32073e-10
1.3117e-10
1.23346e-10
1.24208e-10
1.25148e-10
1.25645e-10
1.25805e-10
1.25912e-10
1.25876e-10
1.25906e-10
1.25863e-10
1.2588e-10
1.25853e-10
1.25865e-10
1.25847e-10
1.25856e-10
1.25844e-10
1.25851e-10
1.25843e-10
1.25848e-10
1.25843e-10
1.25847e-10
1.25843e-10
1.25845e-10
1.25843e-10
1.25844e-10
1.25844e-10
1.25844e-10
1.25844e-10
1.25843e-10
1.25845e-10
1.25843e-10
1.25847e-10
1.25843e-10
1.25848e-10
1.25843e-10
1.25851e-10
1.25844e-10
1.25856e-10
1.25847e-10
1.25865e-10
1.25853e-10
1.2588e-10
1.25863e-10
1.25906e-10
1.25876e-10
1.25912e-10
1.25805e-10
1.25645e-10
1.25148e-10
1.24208e-10
1.23346e-10
1.1638e-10
1.17202e-10
1.18078e-10
1.18543e-10
1.18695e-10
1.18795e-10
1.18762e-10
1.18789e-10
1.18749e-10
1.18764e-10
1.18738e-10
1.18749e-10
1.18733e-10
1.1874e-10
1.18729e-10
1.18735e-10
1.18728e-10
1.18733e-10
1.18728e-10
1.18731e-10
1.18728e-10
1.1873e-10
1.18728e-10
1.18729e-10
1.18729e-10
1.18729e-10
1.18729e-10
1.18728e-10
1.1873e-10
1.18728e-10
1.18731e-10
1.18728e-10
1.18733e-10
1.18728e-10
1.18735e-10
1.18729e-10
1.1874e-10
1.18733e-10
1.18749e-10
1.18739e-10
1.18764e-10
1.18749e-10
1.18789e-10
1.18762e-10
1.18795e-10
1.18695e-10
1.18542e-10
1.18078e-10
1.17202e-10
1.1638e-10
1.10131e-10
1.10916e-10
1.11735e-10
1.1217e-10
1.12315e-10
1.12409e-10
1.12379e-10
1.12402e-10
1.12365e-10
1.12378e-10
1.12354e-10
1.12363e-10
1.12348e-10
1.12354e-10
1.12345e-10
1.1235e-10
1.12343e-10
1.12347e-10
1.12343e-10
1.12346e-10
1.12343e-10
1.12345e-10
1.12343e-10
1.12344e-10
1.12343e-10
1.12343e-10
1.12344e-10
1.12343e-10
1.12345e-10
1.12343e-10
1.12346e-10
1.12343e-10
1.12347e-10
1.12343e-10
1.1235e-10
1.12345e-10
1.12354e-10
1.12348e-10
1.12363e-10
1.12354e-10
1.12378e-10
1.12365e-10
1.12402e-10
1.12379e-10
1.12409e-10
1.12315e-10
1.1217e-10
1.11735e-10
1.10916e-10
1.10131e-10
1.04488e-10
1.05238e-10
1.06006e-10
1.06414e-10
1.06552e-10
1.06641e-10
1.06612e-10
1.06633e-10
1.06598e-10
1.06609e-10
1.06587e-10
1.06595e-10
1.0658e-10
1.06586e-10
1.06577e-10
1.06582e-10
1.06575e-10
1.06579e-10
1.06575e-10
1.06578e-10
1.06575e-10
1.06577e-10
1.06575e-10
1.06576e-10
1.06576e-10
1.06576e-10
1.06576e-10
1.06575e-10
1.06577e-10
1.06575e-10
1.06578e-10
1.06575e-10
1.06579e-10
1.06575e-10
1.06582e-10
1.06577e-10
1.06586e-10
1.0658e-10
1.06595e-10
1.06587e-10
1.06609e-10
1.06598e-10
1.06633e-10
1.06612e-10
1.06641e-10
1.06552e-10
1.06414e-10
1.06006e-10
1.05238e-10
1.04488e-10
9.93641e-11
1.0008e-10
1.00801e-10
1.01185e-10
1.01316e-10
1.014e-10
1.01373e-10
1.01391e-10
1.01358e-10
1.01368e-10
1.01347e-10
1.01353e-10
1.0134e-10
1.01345e-10
1.01336e-10
1.01341e-10
1.01335e-10
1.01338e-10
1.01335e-10
1.01337e-10
1.01335e-10
1.01336e-10
1.01334e-10
1.01335e-10
1.01335e-10
1.01335e-10
1.01335e-10
1.01334e-10
1.01336e-10
1.01335e-10
1.01337e-10
1.01335e-10
1.01338e-10
1.01335e-10
1.01341e-10
1.01336e-10
1.01345e-10
1.0134e-10
1.01353e-10
1.01347e-10
1.01368e-10
1.01358e-10
1.01391e-10
1.01373e-10
1.014e-10
1.01316e-10
1.01185e-10
1.00801e-10
1.0008e-10
9.9364e-11
9.46862e-11
9.53684e-11
9.60478e-11
9.64092e-11
9.65341e-11
9.66126e-11
9.6587e-11
9.66034e-11
9.65723e-11
9.658e-11
9.656e-11
9.6566e-11
9.65532e-11
9.65577e-11
9.65495e-11
9.65533e-11
9.65477e-11
9.65512e-11
9.65477e-11
9.65498e-11
9.65475e-11
9.65487e-11
9.65473e-11
9.6548e-11
9.65477e-11
9.65477e-11
9.6548e-11
9.65473e-11
9.65487e-11
9.65475e-11
9.65498e-11
9.65476e-11
9.65512e-11
9.65477e-11
9.65534e-11
9.65495e-11
9.65577e-11
9.65532e-11
9.65659e-11
9.65601e-11
9.658e-11
9.65722e-11
9.66033e-11
9.65869e-11
9.66124e-11
9.6534e-11
9.64091e-11
9.60477e-11
9.53684e-11
9.46862e-11
9.03962e-11
9.10452e-11
9.16866e-11
9.20271e-11
9.21457e-11
9.22195e-11
9.21951e-11
9.22096e-11
9.218e-11
9.21865e-11
9.21675e-11
9.21726e-11
9.21604e-11
9.21644e-11
9.21567e-11
9.21601e-11
9.21548e-11
9.2158e-11
9.21547e-11
9.21567e-11
9.21545e-11
9.21556e-11
9.21543e-11
9.21549e-11
9.21546e-11
9.21546e-11
9.21549e-11
9.21543e-11
9.21556e-11
9.21545e-11
9.21566e-11
9.21546e-11
9.2158e-11
9.21548e-11
9.21601e-11
9.21567e-11
9.21644e-11
9.21604e-11
9.21726e-11
9.21675e-11
9.21865e-11
9.21799e-11
9.22096e-11
9.21951e-11
9.22194e-11
9.21456e-11
9.2027e-11
9.16865e-11
9.10451e-11
9.03961e-11
8.64455e-11
8.70612e-11
8.76684e-11
8.79894e-11
8.81018e-11
8.81713e-11
8.81479e-11
8.81607e-11
8.81323e-11
8.81377e-11
8.81196e-11
8.81239e-11
8.81123e-11
8.81158e-11
8.81085e-11
8.81116e-11
8.81066e-11
8.81095e-11
8.81064e-11
8.81082e-11
8.81061e-11
8.81072e-11
8.81059e-11
8.81065e-11
8.81062e-11
8.81062e-11
8.81065e-11
8.81059e-11
8.81072e-11
8.81062e-11
8.81082e-11
8.81063e-11
8.81095e-11
8.81066e-11
8.81116e-11
8.81085e-11
8.81159e-11
8.81123e-11
8.81239e-11
8.81196e-11
8.81377e-11
8.81323e-11
8.81606e-11
8.81479e-11
8.81712e-11
8.81017e-11
8.79893e-11
8.76683e-11
8.70612e-11
8.64455e-11
8.27923e-11
8.33778e-11
8.39522e-11
8.4255e-11
8.43614e-11
8.44268e-11
8.44043e-11
8.44154e-11
8.43883e-11
8.43926e-11
8.43752e-11
8.43789e-11
8.43678e-11
8.43709e-11
8.43639e-11
8.43667e-11
8.43619e-11
8.43646e-11
8.43616e-11
8.43634e-11
8.43614e-11
8.43624e-11
8.43612e-11
8.43618e-11
8.43614e-11
8.43614e-11
8.43618e-11
8.43612e-11
8.43624e-11
8.43614e-11
8.43633e-11
8.43616e-11
8.43646e-11
8.43619e-11
8.43667e-11
8.43639e-11
8.43709e-11
8.43678e-11
8.43789e-11
8.43753e-11
8.43926e-11
8.43882e-11
8.44153e-11
8.44042e-11
8.44266e-11
8.43613e-11
8.42549e-11
8.39521e-11
8.33777e-11
8.27922e-11
)
;

boundaryField
{
    fuel
    {
        type            fixedValue;
        value           uniform 0;
    }
    wall
    {
        type            zeroGradient;
    }
    outlet
    {
        type            zeroGradient;
    }
    frontAndBack
    {
        type            empty;
    }
    procBoundary1to0
    {
        type            processor;
        value           nonuniform List<scalar> 
50
(
7.94027e-11
7.99607e-11
8.05038e-11
8.07895e-11
8.08902e-11
8.09516e-11
8.09298e-11
8.09394e-11
8.09134e-11
8.09168e-11
8.09001e-11
8.09031e-11
8.08925e-11
8.08952e-11
8.08885e-11
8.0891e-11
8.08865e-11
8.0889e-11
8.08862e-11
8.08878e-11
8.08859e-11
8.08868e-11
8.08857e-11
8.08862e-11
8.08859e-11
8.08859e-11
8.08862e-11
8.08857e-11
8.08868e-11
8.08859e-11
8.08877e-11
8.08861e-11
8.0889e-11
8.08865e-11
8.08911e-11
8.08885e-11
8.08952e-11
8.08925e-11
8.09031e-11
8.09001e-11
8.09167e-11
8.09133e-11
8.09393e-11
8.09298e-11
8.09515e-11
8.08901e-11
8.07893e-11
8.05037e-11
7.99607e-11
7.94027e-11
)
;
    }
}


// ************************************************************************* //
