/*--------------------------------*- C++ -*----------------------------------*\
| =========                 |                                                 |
| \\      /  F ield         | OpenFOAM: The Open Source CFD Toolbox           |
|  \\    /   O peration     | Version:  dev                                   |
|   \\  /    A nd           | Web:      www.OpenFOAM.org                      |
|    \\/     M anipulation  |                                                 |
\*---------------------------------------------------------------------------*/
FoamFile
{
    version     2.0;
    format      ascii;
    class       volScalarField;
    location    "0.06";
    object      P2-;
}
// * * * * * * * * * * * * * * * * * * * * * * * * * * * * * * * * * * * * * //

dimensions      [0 0 0 0 0 0 0];

internalField   nonuniform List<scalar> 
250
(
2.82845e-12
2.1612e-12
1.66926e-12
1.5535e-12
1.45426e-12
1.4387e-12
1.43243e-12
1.41774e-12
1.43082e-12
1.41553e-12
2.11199e-12
1.64687e-12
1.2983e-12
1.22059e-12
1.13956e-12
1.12807e-12
1.12299e-12
1.10972e-12
1.12183e-12
1.10763e-12
1.10767e-12
1.11817e-12
1.10727e-12
1.1208e-12
1.11911e-12
1.14023e-12
1.17748e-12
1.31853e-12
1.54154e-12
2.36853e-12
1.52632e-12
1.20977e-12
9.68937e-13
9.19114e-13
8.56077e-13
8.48191e-13
8.44124e-13
8.32934e-13
8.43349e-13
8.31251e-13
8.31316e-13
8.40333e-13
8.30879e-13
8.42422e-13
8.40745e-13
8.57319e-13
8.83465e-13
9.86276e-13
1.11924e-12
1.63135e-12
1.06394e-12
8.54437e-13
6.93027e-13
6.62653e-13
6.16062e-13
6.1137e-13
6.08201e-13
5.9936e-13
6.07661e-13
5.98275e-13
5.98335e-13
6.05428e-13
5.97766e-13
6.06851e-13
6.05561e-13
6.17576e-13
6.34892e-13
7.07167e-13
7.83022e-13
1.09337e-12
7.12483e-13
5.78091e-13
4.73753e-13
4.56234e-13
4.2248e-13
4.18207e-13
4.17088e-13
4.10403e-13
4.17103e-13
4.08762e-13
4.08778e-13
4.1509e-13
4.09057e-13
4.16419e-13
4.13836e-13
4.23133e-13
4.35815e-13
4.84675e-13
5.25882e-13
7.09426e-13
4.50893e-13
3.72073e-13
3.07523e-13
2.98091e-13
2.75431e-13
2.73028e-13
2.72373e-13
2.67675e-13
2.7244e-13
2.66588e-13
2.66597e-13
2.71088e-13
2.66731e-13
2.71897e-13
2.69981e-13
2.76024e-13
2.83923e-13
3.15503e-13
3.36587e-13
4.41977e-13
2.69893e-13
2.2469e-13
1.86926e-13
1.82288e-13
1.6798e-13
1.66709e-13
1.66256e-13
1.63154e-13
1.6636e-13
1.62479e-13
1.6249e-13
1.65488e-13
1.62526e-13
1.65956e-13
1.64684e-13
1.6846e-13
1.73063e-13
1.92413e-13
2.02345e-13
2.60519e-13
1.47789e-13
1.23904e-13
1.03488e-13
1.01488e-13
9.31559e-14
9.25254e-14
9.22331e-14
9.03494e-14
9.23447e-14
8.99447e-14
8.99554e-14
9.18186e-14
8.99599e-14
9.2068e-14
9.12734e-14
9.35062e-14
9.5953e-14
1.06978e-13
1.11087e-13
1.41339e-13
7.05132e-14
5.94253e-14
4.96953e-14
4.89905e-14
4.47266e-14
4.4445e-14
4.42875e-14
4.32876e-14
4.43757e-14
4.30685e-14
4.30752e-14
4.40963e-14
4.30744e-14
4.42118e-14
4.3764e-14
4.49481e-14
4.60726e-14
5.16501e-14
5.30092e-14
6.71858e-14
2.73711e-14
2.3172e-14
1.9395e-14
1.92071e-14
1.74435e-14
1.73385e-14
1.72724e-14
1.68465e-14
1.73227e-14
1.675e-14
1.6753e-14
1.72034e-14
1.67523e-14
1.72459e-14
1.70403e-14
1.75539e-14
1.79657e-14
2.02723e-14
2.05815e-14
2.6104e-14
7.85595e-15
6.65198e-15
5.55512e-15
5.51671e-15
4.97968e-15
4.94975e-15
4.92939e-15
4.79685e-15
4.94928e-15
4.76536e-15
4.7665e-15
4.91192e-15
4.76643e-15
4.92311e-15
4.85418e-15
5.01922e-15
5.12979e-15
5.84064e-15
5.88196e-15
7.51819e-15
1.41445e-15
1.1977e-15
1.00407e-15
9.97443e-16
9.00792e-16
8.95358e-16
8.91739e-16
8.67487e-16
8.9592e-16
8.61537e-16
8.6176e-16
8.89111e-16
8.61721e-16
8.90946e-16
8.77429e-16
9.0891e-16
9.26379e-16
1.05809e-15
1.0598e-15
1.35922e-15
2.89416e-16
2.479e-16
2.1167e-16
2.10129e-16
1.9204e-16
1.90994e-16
1.90205e-16
1.85651e-16
1.91043e-16
1.84441e-16
1.84523e-16
1.89708e-16
1.84561e-16
1.9001e-16
1.87588e-16
1.93385e-16
1.96998e-16
2.20998e-16
2.22768e-16
2.76993e-16
)
;

boundaryField
{
    fuel
    {
        type            fixedValue;
        value           nonuniform 0();
    }
    wall
    {
        type            zeroGradient;
    }
    outlet
    {
        type            zeroGradient;
    }
    frontAndBack
    {
        type            empty;
    }
    procBoundary1to0
    {
        type            processor;
        value           nonuniform List<scalar> 
21
(
3.67916e-12
2.74177e-12
2.06222e-12
1.89671e-12
1.78052e-12
1.76051e-12
1.75302e-12
1.73788e-12
1.75097e-12
1.73589e-12
1.41557e-12
1.41557e-12
1.42679e-12
1.41504e-12
1.4298e-12
1.42859e-12
1.45414e-12
1.50446e-12
1.69241e-12
2.05008e-12
3.35946e-12
)
;
    }
}


// ************************************************************************* //
