/*--------------------------------*- C++ -*----------------------------------*\
| =========                 |                                                 |
| \\      /  F ield         | OpenFOAM: The Open Source CFD Toolbox           |
|  \\    /   O peration     | Version:  dev                                   |
|   \\  /    A nd           | Web:      www.OpenFOAM.org                      |
|    \\/     M anipulation  |                                                 |
\*---------------------------------------------------------------------------*/
FoamFile
{
    version     2.0;
    format      ascii;
    class       volScalarField;
    location    "0.06";
    object      P2-H;
}
// * * * * * * * * * * * * * * * * * * * * * * * * * * * * * * * * * * * * * //

dimensions      [0 0 0 0 0 0 0];

internalField   nonuniform List<scalar> 
250
(
3.38218e-16
1.29713e-16
8.30876e-17
7.46396e-17
7.22334e-17
7.07982e-17
7.11892e-17
7.03609e-17
7.09701e-17
7.05086e-17
2.64835e-16
1.12636e-16
7.56223e-17
6.89363e-17
6.6917e-17
6.5424e-17
6.59608e-17
6.49653e-17
6.57072e-17
6.51245e-17
6.52954e-17
6.54422e-17
6.52487e-17
6.55931e-17
6.57633e-17
6.63494e-17
6.92685e-17
7.42573e-17
1.03332e-16
1.7855e-16
2.04031e-16
9.63424e-17
6.77434e-17
6.25778e-17
6.09323e-17
5.94568e-17
6.00814e-17
5.9004e-17
5.98139e-17
5.91652e-17
5.93499e-17
5.95167e-17
5.93059e-17
5.96689e-17
5.98186e-17
6.03083e-17
6.2962e-17
6.6628e-17
9.05385e-17
1.48455e-16
1.55747e-16
8.16405e-17
6.00538e-17
5.6135e-17
5.48304e-17
5.34322e-17
5.40917e-17
5.30055e-17
5.3827e-17
5.31609e-17
5.33474e-17
5.35203e-17
5.33072e-17
5.36658e-17
5.37937e-17
5.4195e-17
5.65353e-17
5.91313e-17
7.83022e-17
1.21586e-16
1.18919e-16
6.89998e-17
5.29462e-17
5.0064e-17
4.90556e-17
4.77681e-17
4.84249e-17
4.73788e-17
4.81738e-17
4.75236e-17
4.77036e-17
4.78735e-17
4.76678e-17
4.80078e-17
4.81144e-17
4.84398e-17
5.04557e-17
5.22246e-17
6.72669e-17
9.87234e-17
9.08122e-17
5.8354e-17
4.67963e-17
4.46635e-17
4.39022e-17
4.27347e-17
4.33678e-17
4.23864e-17
4.31351e-17
4.25187e-17
4.26876e-17
4.28504e-17
4.26565e-17
4.2972e-17
4.30588e-17
4.33224e-17
4.50335e-17
4.61854e-17
5.77135e-17
8.00786e-17
7.10776e-17
5.00386e-17
4.17126e-17
4.01307e-17
3.95699e-17
3.85195e-17
3.91174e-17
3.82119e-17
3.89046e-17
3.83312e-17
3.84863e-17
3.86406e-17
3.84597e-17
3.87495e-17
3.88183e-17
3.90337e-17
4.04732e-17
4.11795e-17
4.99463e-17
6.54769e-17
5.73861e-17
4.39862e-17
3.80291e-17
3.68488e-17
3.6451e-17
3.55343e-17
3.60694e-17
3.52726e-17
3.588e-17
3.53743e-17
3.5509e-17
3.56493e-17
3.54865e-17
3.57451e-17
3.57953e-17
3.59756e-17
3.71533e-17
3.7564e-17
4.41301e-17
5.46975e-17
5.01958e-17
4.16862e-17
3.77961e-17
3.69266e-17
3.66779e-17
3.60453e-17
3.63711e-17
3.58743e-17
3.62277e-17
3.59271e-17
3.60063e-17
3.60988e-17
3.59864e-17
3.61749e-17
3.61913e-17
3.63592e-17
3.71322e-17
3.74673e-17
4.19375e-17
4.9075e-17
6.13923e-17
5.50749e-17
5.44711e-17
5.38232e-17
5.38047e-17
5.4117e-17
5.35859e-17
5.42433e-17
5.35783e-17
5.4099e-17
5.39605e-17
5.38746e-17
5.39344e-17
5.39095e-17
5.37905e-17
5.40724e-17
5.36502e-17
5.4619e-17
5.55273e-17
6.10405e-17
1.82307e-16
1.71136e-16
1.79477e-16
1.77335e-16
1.78278e-16
1.8085e-16
1.77655e-16
1.81877e-16
1.77882e-16
1.81059e-16
1.80122e-16
1.79753e-16
1.80027e-16
1.79802e-16
1.7891e-16
1.80321e-16
1.76025e-16
1.80711e-16
1.72806e-16
1.82144e-16
1.19092e-15
1.12219e-15
1.155e-15
1.12561e-15
1.13562e-15
1.13197e-15
1.127e-15
1.13464e-15
1.12527e-15
1.13246e-15
1.12877e-15
1.13201e-15
1.12809e-15
1.13357e-15
1.12672e-15
1.13874e-15
1.12439e-15
1.15106e-15
1.1336e-15
1.18669e-15
1.24358e-14
1.1611e-14
1.17547e-14
1.1313e-14
1.14569e-14
1.12559e-14
1.13335e-14
1.1255e-14
1.12899e-14
1.12593e-14
1.12401e-14
1.13158e-14
1.1232e-14
1.13408e-14
1.12621e-14
1.14063e-14
1.13626e-14
1.16152e-14
1.17439e-14
1.23513e-14
)
;

boundaryField
{
    fuel
    {
        type            fixedValue;
        value           nonuniform 0();
    }
    wall
    {
        type            zeroGradient;
    }
    outlet
    {
        type            zeroGradient;
    }
    frontAndBack
    {
        type            empty;
    }
    procBoundary1to0
    {
        type            processor;
        value           nonuniform List<scalar> 
21
(
4.20474e-16
1.46463e-16
8.95093e-17
7.91286e-17
7.63388e-17
7.50346e-17
7.52301e-17
7.46462e-17
7.50655e-17
7.47734e-17
7.06523e-17
7.06523e-17
7.07624e-17
7.06046e-17
7.09008e-17
7.10892e-17
7.17715e-17
7.48799e-17
8.14081e-17
1.15716e-16
2.0968e-16
)
;
    }
}


// ************************************************************************* //
