/*--------------------------------*- C++ -*----------------------------------*\
| =========                 |                                                 |
| \\      /  F ield         | OpenFOAM: The Open Source CFD Toolbox           |
|  \\    /   O peration     | Version:  dev                                   |
|   \\  /    A nd           | Web:      www.OpenFOAM.org                      |
|    \\/     M anipulation  |                                                 |
\*---------------------------------------------------------------------------*/
FoamFile
{
    version     2.0;
    format      ascii;
    class       volVectorField;
    location    "0.06";
    object      U;
}
// * * * * * * * * * * * * * * * * * * * * * * * * * * * * * * * * * * * * * //

dimensions      [0 1 -1 0 0 0 0];

internalField   nonuniform List<vector> 
250
(
(0 2.06394 0.396103)
(0 1.64014 0.365485)
(0 1.54869 0.324082)
(0 1.2521 0.325938)
(0 1.11658 0.299992)
(0 0.873591 0.299843)
(0 0.712531 0.304019)
(0 0.483387 0.295706)
(0 0.3159 0.303025)
(0 0.0883077 0.298169)
(0 2.082 0.365485)
(0 1.64967 0.336158)
(0 1.5565 0.297871)
(0 1.25779 0.29993)
(0 1.12012 0.275761)
(0 0.877117 0.275343)
(0 0.715094 0.279521)
(0 0.484601 0.271457)
(0 0.317641 0.278544)
(0 0.0876698 0.27381)
(0 -0.0790806 0.272718)
(0 -0.313238 0.279156)
(0 -0.470113 0.270141)
(0 -0.720111 0.282713)
(0 -0.854691 0.271651)
(0 -1.14325 0.294768)
(0 -1.2336 0.27106)
(0 -1.61782 0.364483)
(0 -1.61778 0.26801)
(0 -2.19942 0.48915)
(0 2.09401 0.333886)
(0 1.65488 0.306013)
(0 1.56056 0.271234)
(0 1.26044 0.273297)
(0 1.12106 0.251054)
(0 0.878478 0.250432)
(0 0.716074 0.254616)
(0 0.484548 0.246838)
(0 0.318737 0.2537)
(0 0.0866504 0.249124)
(0 -0.0782893 0.248029)
(0 -0.314405 0.254342)
(0 -0.47027 0.245513)
(0 -0.720948 0.257634)
(0 -0.856344 0.246833)
(0 -1.14376 0.268492)
(0 -1.23688 0.246042)
(0 -1.61775 0.332295)
(0 -1.6273 0.244144)
(0 -2.2083 0.444204)
(0 2.09969 0.301486)
(0 1.65554 0.275277)
(0 1.56063 0.244266)
(0 1.25984 0.246111)
(0 1.11926 0.225971)
(0 0.877509 0.225135)
(0 0.715371 0.229377)
(0 0.483143 0.222019)
(0 0.319157 0.228502)
(0 0.0852058 0.224092)
(0 -0.0771821 0.223011)
(0 -0.31496 0.229169)
(0 -0.469211 0.220642)
(0 -0.72012 0.232236)
(0 -0.85582 0.221613)
(0 -1.14154 0.241837)
(0 -1.23684 0.220653)
(0 -1.61379 0.299822)
(0 -1.63173 0.219354)
(0 -2.21117 0.398854)
(0 2.09875 0.268352)
(0 1.65146 0.244046)
(0 1.55644 0.217026)
(0 1.25578 0.218485)
(0 1.11459 0.200599)
(0 0.874038 0.199528)
(0 0.712888 0.203614)
(0 0.480296 0.196757)
(0 0.318872 0.202817)
(0 0.0833145 0.198663)
(0 -0.0757454 0.197593)
(0 -0.314879 0.203502)
(0 -0.466862 0.195343)
(0 -0.71754 0.206286)
(0 -0.85297 0.196137)
(0 -1.13643 0.214853)
(0 -1.23337 0.195066)
(0 -1.60589 0.266638)
(0 -1.63064 0.194279)
(0 -2.20753 0.353199)
(0 2.09092 0.234701)
(0 1.64246 0.212509)
(0 1.54778 0.189633)
(0 1.24804 0.19057)
(0 1.10696 0.175084)
(0 0.867973 0.173769)
(0 0.708577 0.177454)
(0 0.475937 0.171186)
(0 0.31784 0.176753)
(0 0.0809358 0.172967)
(0 -0.0739552 0.171945)
(0 -0.314129 0.17744)
(0 -0.463174 0.169772)
(0 -0.71316 0.179946)
(0 -0.847723 0.170509)
(0 -1.12832 0.187741)
(0 -1.22636 0.169376)
(0 -1.59371 0.233243)
(0 -1.62418 0.168802)
(0 -2.1967 0.307388)
(0 2.07603 0.2008)
(0 1.62844 0.180884)
(0 1.53446 0.162216)
(0 1.23649 0.162538)
(0 1.09629 0.149525)
(0 0.859189 0.148017)
(0 0.70237 0.151344)
(0 0.470003 0.145752)
(0 0.316034 0.150748)
(0 0.0780531 0.14731)
(0 -0.0718135 0.146343)
(0 -0.312697 0.151423)
(0 -0.45811 0.144364)
(0 -0.706923 0.153644)
(0 -0.839982 0.144934)
(0 -1.11711 0.160572)
(0 -1.21574 0.143751)
(0 -1.57696 0.19979)
(0 -1.61239 0.143162)
(0 -2.17818 0.261668)
(0 2.05396 0.166872)
(0 1.60939 0.149446)
(0 1.51637 0.134926)
(0 1.22105 0.134597)
(0 1.08257 0.124077)
(0 0.84762 0.122469)
(0 0.69423 0.125444)
(0 0.462464 0.120613)
(0 0.313431 0.124943)
(0 0.0746574 0.121925)
(0 -0.0693374 0.121026)
(0 -0.310579 0.125604)
(0 -0.45167 0.119288)
(0 -0.698811 0.127517)
(0 -0.829717 0.119632)
(0 -1.10276 0.133488)
(0 -1.20151 0.118393)
(0 -1.55547 0.166404)
(0 -1.59533 0.117695)
(0 -2.15164 0.216341)
(0 2.02475 0.133174)
(0 1.58546 0.118494)
(0 1.49356 0.107934)
(0 1.20178 0.106997)
(0 1.06587 0.0989316)
(0 0.833298 0.0973329)
(0 0.684179 0.0998917)
(0 0.453343 0.0958946)
(0 0.310012 0.0994736)
(0 0.070759 0.096967)
(0 -0.0665707 0.0961568)
(0 -0.307789 0.100111)
(0 -0.443913 0.0946748)
(0 -0.688878 0.1017)
(0 -0.817001 0.094816)
(0 -1.08534 0.106675)
(0 -1.1838 0.0935404)
(0 -1.52922 0.133298)
(0 -1.5732 0.0927208)
(0 -2.11689 0.17177)
(0 1.9888 0.100066)
(0 1.5571 0.0883699)
(0 1.46634 0.0814561)
(0 1.17897 0.08004)
(0 1.04642 0.0743267)
(0 0.816424 0.0728457)
(0 0.672339 0.074914)
(0 0.442758 0.0718112)
(0 0.30578 0.0745714)
(0 0.0664109 0.0726429)
(0 -0.0636058 0.0719456)
(0 -0.304378 0.0751607)
(0 -0.434998 0.0707431)
(0 -0.677291 0.0764204)
(0 -0.802076 0.0707255)
(0 -1.06513 0.080373)
(0 -1.16297 0.0694789)
(0 -1.49847 0.100744)
(0 -1.54656 0.0685894)
(0 -2.0741 0.128416)
(0 1.94724 0.0681357)
(0 1.52536 0.059609)
(0 1.43556 0.0558847)
(0 1.15338 0.0542156)
(0 1.02481 0.0506678)
(0 0.797531 0.0494123)
(0 0.659035 0.0509334)
(0 0.431017 0.048762)
(0 0.300793 0.0506614)
(0 0.0617507 0.0493534)
(0 -0.0606139 0.0487912)
(0 -0.300457 0.0511721)
(0 -0.425267 0.0478943)
(0 -0.664437 0.0521005)
(0 -0.785493 0.0477661)
(0 -1.04276 0.0550031)
(0 -1.13981 0.0466489)
(0 -1.46404 0.0692343)
(0 -1.51655 0.0457835)
(0 -2.02415 0.0870235)
(0 1.90278 0.0386115)
(0 1.49249 0.0333253)
(0 1.40327 0.0321072)
(0 1.12671 0.0305296)
(0 1.00237 0.0288304)
(0 0.777867 0.0279125)
(0 0.645056 0.0288605)
(0 0.418857 0.0276076)
(0 0.295256 0.0286642)
(0 0.057106 0.027966)
(0 -0.0579008 0.0275684)
(0 -0.296268 0.0290563)
(0 -0.415439 0.026991)
(0 -0.651154 0.0296523)
(0 -0.768424 0.0268098)
(0 -1.01969 0.0314843)
(0 -1.11597 0.0259423)
(0 -1.428 0.0398649)
(0 -1.48556 0.0252178)
(0 -1.96979 0.0490988)
(0 1.86298 0.0139936)
(0 1.46402 0.0121061)
(0 1.37492 0.0117716)
(0 1.10334 0.0111002)
(0 0.982653 0.0105118)
(0 0.760657 0.01016)
(0 0.632579 0.010509)
(0 0.408235 0.0100648)
(0 0.290057 0.0104382)
(0 0.0531801 0.0101998)
(0 -0.0558832 0.0100321)
(0 -0.292529 0.0106073)
(0 -0.407152 0.00980735)
(0 -0.639508 0.0108269)
(0 -0.753662 0.00971783)
(0 -0.999651 0.0115049)
(0 -1.09544 0.00938454)
(0 -1.39621 0.0145342)
(0 -1.45911 0.00923816)
(0 -1.9199 0.0174892)
)
;

boundaryField
{
    fuel
    {
        type            fixedValue;
        value           nonuniform 0();
    }
    wall
    {
        type            slip;
    }
    outlet
    {
        type            pressureInletOutletVelocity;
        value           nonuniform List<vector> 
25
(
(0 2.06394 0.396103)
(0 2.082 0.365485)
(0 2.09401 0.333886)
(0 2.09969 0.301486)
(0 2.09875 0.268352)
(0 2.09092 0.234701)
(0 2.07603 0.2008)
(0 2.05396 0.166872)
(0 2.02475 0.133174)
(0 1.9888 0.100066)
(0 1.94724 0.0681357)
(0 1.90278 0.0386115)
(0 1.86298 0.0139936)
(0 -2.19942 0.48915)
(0 -2.2083 0.444204)
(0 -2.21117 0.398854)
(0 -2.20753 0.353199)
(0 -2.1967 0.307388)
(0 -2.17818 0.261668)
(0 -2.15164 0.216341)
(0 -2.11689 0.17177)
(0 -2.0741 0.128416)
(0 -2.02415 0.0870235)
(0 -1.96979 0.0490988)
(0 -1.9199 0.0174892)
)
;
    }
    frontAndBack
    {
        type            empty;
    }
    procBoundary1to0
    {
        type            processor;
        value           nonuniform List<vector> 
21
(
(0 2.04009 0.425669)
(0 1.62652 0.393892)
(0 1.53741 0.349776)
(0 1.24361 0.351207)
(0 1.11058 0.323683)
(0 0.868072 0.323847)
(0 0.70847 0.327969)
(0 0.481005 0.319505)
(0 0.313559 0.326968)
(0 0.0885853 0.322061)
(0 -0.0795841 0.297063)
(0 -0.0795841 0.297063)
(0 -0.311493 0.303589)
(0 -0.468805 0.294467)
(0 -0.717715 0.307364)
(0 -0.851006 0.296082)
(0 -1.14017 0.32054)
(0 -1.22719 0.29561)
(0 -1.61421 0.39609)
(0 -1.60339 0.290932)
(0 -2.185 0.533588)
)
;
    }
}


// ************************************************************************* //
