/*--------------------------------*- C++ -*----------------------------------*\
| =========                 |                                                 |
| \\      /  F ield         | OpenFOAM: The Open Source CFD Toolbox           |
|  \\    /   O peration     | Version:  dev                                   |
|   \\  /    A nd           | Web:      www.OpenFOAM.org                      |
|    \\/     M anipulation  |                                                 |
\*---------------------------------------------------------------------------*/
FoamFile
{
    version     2.0;
    format      ascii;
    class       volScalarField;
    location    "0.15";
    object      A2-1;
}
// * * * * * * * * * * * * * * * * * * * * * * * * * * * * * * * * * * * * * //

dimensions      [0 0 0 0 0 0 0];

internalField   nonuniform List<scalar> 
250
(
7.81121e-11
7.80221e-11
7.82216e-11
7.81911e-11
7.82555e-11
7.95645e-11
8.74225e-11
1.30373e-10
4.95855e-10
1.59084e-09
7.69702e-11
7.68727e-11
7.70659e-11
7.69974e-11
7.70611e-11
7.83e-11
8.54175e-11
1.23609e-10
4.26725e-10
1.34375e-09
5.76832e-10
2.26125e-10
1.11622e-10
8.53496e-11
7.899e-11
7.74431e-11
7.73405e-11
7.73455e-11
7.71041e-11
7.72076e-11
7.72096e-11
7.71046e-11
7.72951e-11
7.71797e-11
7.72373e-11
7.84127e-11
8.48258e-11
1.18847e-10
3.69408e-10
1.12841e-09
5.87547e-10
2.20498e-10
1.11588e-10
8.63157e-11
8.03535e-11
7.91963e-11
7.88898e-11
7.91967e-11
7.87638e-11
7.90666e-11
7.90016e-11
7.88893e-11
7.90783e-11
7.89072e-11
7.89543e-11
8.00712e-11
8.58042e-11
1.16172e-10
3.1999e-10
9.42957e-10
6.00439e-10
2.18034e-10
1.13435e-10
8.90419e-11
8.34521e-11
8.2711e-11
8.21667e-11
8.28281e-11
8.21614e-11
8.26997e-11
8.25531e-11
8.24345e-11
8.26212e-11
8.23868e-11
8.24201e-11
8.34813e-11
8.85506e-11
1.1572e-10
2.80513e-10
7.85637e-10
6.12725e-10
2.18286e-10
1.17278e-10
9.37204e-11
8.84972e-11
8.81698e-11
8.73625e-11
8.84139e-11
8.74825e-11
8.82823e-11
8.8043e-11
8.79209e-11
8.81025e-11
8.78011e-11
8.78198e-11
8.88257e-11
9.32514e-11
1.176e-10
2.53431e-10
6.54739e-10
6.21256e-10
2.20721e-10
1.23083e-10
1.00423e-10
9.55744e-11
9.5609e-11
9.454e-11
9.59724e-11
9.47765e-11
9.58339e-11
9.55017e-11
9.53804e-11
9.55529e-11
9.51902e-11
9.51976e-11
9.61493e-11
9.99714e-11
1.2177e-10
2.3275e-10
5.47961e-10
6.22632e-10
2.24539e-10
1.30575e-10
1.0893e-10
1.04444e-10
1.04736e-10
1.03458e-10
1.05181e-10
1.03779e-10
1.05035e-10
1.0463e-10
1.04516e-10
1.04674e-10
1.04272e-10
1.04277e-10
1.0518e-10
1.08483e-10
1.27905e-10
2.18606e-10
4.62543e-10
6.13437e-10
2.28514e-10
1.38827e-10
1.18527e-10
1.14373e-10
1.15054e-10
1.13699e-10
1.15517e-10
1.14006e-10
1.15349e-10
1.14916e-10
1.14508e-10
1.14967e-10
1.1453e-10
1.14528e-10
1.15533e-10
1.18068e-10
1.35205e-10
2.08774e-10
3.95085e-10
5.90643e-10
2.30917e-10
1.46469e-10
1.2787e-10
1.23922e-10
1.24433e-10
1.23193e-10
1.24782e-10
1.2344e-10
1.24621e-10
1.24245e-10
1.23905e-10
1.24292e-10
1.23928e-10
1.23963e-10
1.24927e-10
1.27374e-10
1.42279e-10
2.01383e-10
3.41754e-10
5.50316e-10
2.29651e-10
1.51575e-10
1.35063e-10
1.31244e-10
1.31264e-10
1.30381e-10
1.31371e-10
1.30473e-10
1.31232e-10
1.31006e-10
1.30777e-10
1.31052e-10
1.30834e-10
1.30928e-10
1.31851e-10
1.34515e-10
1.47228e-10
1.94252e-10
2.98535e-10
4.96765e-10
2.22683e-10
1.52136e-10
1.38032e-10
1.34311e-10
1.33562e-10
1.33255e-10
1.33325e-10
1.33116e-10
1.33225e-10
1.3323e-10
1.3314e-10
1.33276e-10
1.33263e-10
1.33428e-10
1.34303e-10
1.37436e-10
1.48028e-10
1.85157e-10
2.61597e-10
4.31142e-10
2.08668e-10
1.46694e-10
1.35167e-10
1.31578e-10
1.29936e-10
1.30323e-10
1.29322e-10
1.29926e-10
1.29272e-10
1.29549e-10
1.29603e-10
1.29594e-10
1.29807e-10
1.30039e-10
1.3085e-10
1.34552e-10
1.4313e-10
1.72342e-10
2.2775e-10
1.19747e-10
1.19925e-10
1.1979e-10
1.202e-10
1.20479e-10
1.21206e-10
1.25366e-10
1.32088e-10
1.55036e-10
1.94896e-10
)
;

boundaryField
{
    fuel
    {
        type            fixedValue;
        value           nonuniform 0();
    }
    wall
    {
        type            zeroGradient;
    }
    outlet
    {
        type            zeroGradient;
    }
    frontAndBack
    {
        type            empty;
    }
    procBoundary0to1
    {
        type            processor;
        value           nonuniform List<scalar> 
21
(
3.57975e-10
1.87537e-10
1.34931e-10
1.25957e-10
1.22595e-10
1.20153e-10
1.21207e-10
1.19218e-10
1.20584e-10
1.19221e-10
1.19221e-10
1.04904e-10
1.05165e-10
1.04942e-10
1.05479e-10
1.05777e-10
1.06398e-10
1.10733e-10
1.15806e-10
1.33744e-10
1.62307e-10
)
;
    }
    procBoundary0to2
    {
        type            processor;
        value           nonuniform List<scalar> 
12
(
7.80168e-11
5.70446e-10
2.36791e-10
1.13391e-10
8.59394e-11
7.91449e-11
7.72417e-11
7.73114e-11
7.70672e-11
7.69753e-11
7.69149e-11
7.69149e-11
)
;
    }
    procBoundary0to3
    {
        type            processor;
        value           nonuniform List<scalar> 10(8.05233e-11 8.04411e-11 8.06538e-11 8.06512e-11 8.07105e-11 8.20961e-11 9.07436e-11 1.40089e-10 5.7976e-10 1.86883e-09);
    }
}


// ************************************************************************* //
