/*--------------------------------*- C++ -*----------------------------------*\
| =========                 |                                                 |
| \\      /  F ield         | OpenFOAM: The Open Source CFD Toolbox           |
|  \\    /   O peration     | Version:  dev                                   |
|   \\  /    A nd           | Web:      www.OpenFOAM.org                      |
|    \\/     M anipulation  |                                                 |
\*---------------------------------------------------------------------------*/
FoamFile
{
    version     2.0;
    format      ascii;
    class       volScalarField;
    location    "0.15";
    object      A2C2HB;
}
// * * * * * * * * * * * * * * * * * * * * * * * * * * * * * * * * * * * * * //

dimensions      [0 0 0 0 0 0 0];

internalField   nonuniform List<scalar> 
50
(
1.57718e-11
1.01619e-11
5.77349e-12
3.26351e-12
1.86075e-12
1.07135e-12
6.22672e-13
3.66025e-13
2.17041e-13
1.30649e-13
8.01414e-14
5.0597e-14
3.28161e-14
2.19658e-14
1.52295e-14
1.09333e-14
8.10203e-15
6.16556e-15
4.80105e-15
3.79533e-15
3.03083e-15
2.43543e-15
1.95946e-15
1.58154e-15
1.27679e-15
1.02817e-15
8.26973e-16
6.65902e-16
5.35021e-16
4.29621e-16
3.45875e-16
2.7848e-16
2.24506e-16
1.81487e-16
1.47224e-16
1.19931e-16
9.81689e-17
8.07851e-17
6.68608e-17
5.56684e-17
4.6634e-17
3.93073e-17
3.33362e-17
2.8446e-17
2.44233e-17
2.11022e-17
1.83542e-17
1.60795e-17
1.42001e-17
1.26549e-17
)
;

boundaryField
{
    wall
    {
        type            zeroGradient;
    }
    fuel
    {
        type            fixedValue;
        value           uniform 0;
    }
    outlet
    {
        type            inletOutlet;
        inletValue      nonuniform 0();
        value           nonuniform 0();
    }
    procBoundary0to1
    {
        type            processor;
        value           uniform 1.11677e-17;
    }
}


// ************************************************************************* //
