/*--------------------------------*- C++ -*----------------------------------*\
| =========                 |                                                 |
| \\      /  F ield         | OpenFOAM: The Open Source CFD Toolbox           |
|  \\    /   O peration     | Version:  dev                                   |
|   \\  /    A nd           | Web:      www.OpenFOAM.org                      |
|    \\/     M anipulation  |                                                 |
\*---------------------------------------------------------------------------*/
FoamFile
{
    version     2.0;
    format      ascii;
    class       volScalarField;
    location    "0.15";
    object      C6H5O;
}
// * * * * * * * * * * * * * * * * * * * * * * * * * * * * * * * * * * * * * //

dimensions      [0 0 0 0 0 0 0];

internalField   nonuniform List<scalar> 
50
(
5.12038e-10
5.44195e-10
4.43588e-10
3.17642e-10
2.0962e-10
1.31448e-10
7.99524e-11
4.76818e-11
2.79657e-11
1.62425e-11
9.36543e-12
5.39407e-12
3.09133e-12
1.76466e-12
1.00561e-12
5.72292e-13
3.25301e-13
1.8461e-13
1.05144e-13
5.98756e-14
3.41024e-14
1.94389e-14
1.10295e-14
6.28808e-15
3.59109e-15
2.04516e-15
1.16584e-15
6.69616e-16
3.84816e-16
2.22158e-16
1.29968e-16
7.68187e-17
4.6152e-17
2.84141e-17
1.80683e-17
1.19619e-17
8.29707e-18
6.04675e-18
4.62262e-18
3.68653e-18
3.04325e-18
2.57938e-18
2.22852e-18
1.95143e-18
1.72458e-18
1.53367e-18
1.36989e-18
1.22781e-18
1.1042e-18
9.97489e-19
)
;

boundaryField
{
    wall
    {
        type            zeroGradient;
    }
    fuel
    {
        type            fixedValue;
        value           uniform 0;
    }
    outlet
    {
        type            inletOutlet;
        inletValue      nonuniform 0();
        value           nonuniform 0();
    }
    procBoundary0to1
    {
        type            processor;
        value           uniform 8.96211e-19;
    }
}


// ************************************************************************* //
