/*--------------------------------*- C++ -*----------------------------------*\
| =========                 |                                                 |
| \\      /  F ield         | OpenFOAM: The Open Source CFD Toolbox           |
|  \\    /   O peration     | Version:  dev                                   |
|   \\  /    A nd           | Web:      www.OpenFOAM.org                      |
|    \\/     M anipulation  |                                                 |
\*---------------------------------------------------------------------------*/
FoamFile
{
    version     2.0;
    format      ascii;
    class       volScalarField;
    location    "0.15";
    object      CH3O;
}
// * * * * * * * * * * * * * * * * * * * * * * * * * * * * * * * * * * * * * //

dimensions      [0 0 0 0 0 0 0];

internalField   nonuniform List<scalar> 
50
(
7.0297e-08
8.88988e-08
8.53481e-08
7.49981e-08
6.29499e-08
5.12666e-08
4.10223e-08
3.249e-08
2.55552e-08
2.00617e-08
1.57539e-08
1.24131e-08
9.78702e-09
7.71855e-09
6.089e-09
4.8006e-09
3.77925e-09
2.96839e-09
2.33027e-09
1.82414e-09
1.42364e-09
1.10774e-09
8.57289e-10
6.63079e-10
5.11712e-10
3.93174e-10
3.01454e-10
2.31391e-10
1.77115e-10
1.35442e-10
1.03848e-10
7.95693e-11
6.09856e-11
4.68156e-11
3.60106e-11
2.77664e-11
2.14693e-11
1.66518e-11
1.29587e-11
1.01207e-11
7.93391e-12
6.2439e-12
4.93391e-12
3.91558e-12
3.12204e-12
2.50265e-12
2.0191e-12
1.64239e-12
1.35067e-12
1.12758e-12
)
;

boundaryField
{
    wall
    {
        type            zeroGradient;
    }
    fuel
    {
        type            fixedValue;
        value           uniform 0;
    }
    outlet
    {
        type            inletOutlet;
        inletValue      nonuniform 0();
        value           nonuniform 0();
    }
    procBoundary0to1
    {
        type            processor;
        value           uniform 9.3391e-13;
    }
}


// ************************************************************************* //
