/*--------------------------------*- C++ -*----------------------------------*\
| =========                 |                                                 |
| \\      /  F ield         | OpenFOAM: The Open Source CFD Toolbox           |
|  \\    /   O peration     | Version:  dev                                   |
|   \\  /    A nd           | Web:      www.OpenFOAM.org                      |
|    \\/     M anipulation  |                                                 |
\*---------------------------------------------------------------------------*/
FoamFile
{
    version     2.0;
    format      ascii;
    class       volScalarField;
    location    "0.15";
    object      HCCO;
}
// * * * * * * * * * * * * * * * * * * * * * * * * * * * * * * * * * * * * * //

dimensions      [0 0 0 0 0 0 0];

internalField   nonuniform List<scalar> 
250
(
6.26158e-07
6.32303e-07
6.26059e-07
6.37597e-07
6.28245e-07
6.46984e-07
6.47011e-07
6.51252e-07
6.36553e-07
5.56935e-07
5.78663e-07
5.84954e-07
5.78394e-07
5.90169e-07
5.8084e-07
5.99458e-07
5.9865e-07
6.04457e-07
5.96111e-07
5.28967e-07
4.29727e-07
4.37832e-07
5.2799e-07
5.4287e-07
5.38039e-07
5.3558e-07
5.35369e-07
5.33941e-07
5.33966e-07
5.33421e-07
5.30813e-07
5.37242e-07
5.30404e-07
5.42371e-07
5.33045e-07
5.51517e-07
5.50717e-07
5.57117e-07
5.53245e-07
4.94157e-07
3.69181e-07
4.06821e-07
4.84626e-07
4.95455e-07
4.90049e-07
4.87561e-07
4.87291e-07
4.85701e-07
4.85916e-07
4.8532e-07
4.82648e-07
4.8919e-07
4.82129e-07
4.94218e-07
4.84902e-07
5.03142e-07
5.02374e-07
5.09234e-07
5.08946e-07
4.54898e-07
3.22609e-07
3.74172e-07
4.40448e-07
4.4771e-07
4.4185e-07
4.39331e-07
4.39018e-07
4.37301e-07
4.3767e-07
4.37031e-07
4.34327e-07
4.40944e-07
4.33728e-07
4.45848e-07
4.36571e-07
4.54434e-07
4.53755e-07
4.60922e-07
4.63836e-07
4.13274e-07
2.85444e-07
3.43073e-07
3.95695e-07
3.9989e-07
3.93727e-07
3.91169e-07
3.90832e-07
3.89026e-07
3.89513e-07
3.88844e-07
3.86153e-07
3.92786e-07
3.85503e-07
3.9754e-07
3.88347e-07
4.05611e-07
4.0516e-07
4.12416e-07
4.1516e-07
3.70751e-07
2.5409e-07
3.08822e-07
3.50754e-07
3.52431e-07
3.46129e-07
3.43508e-07
3.43167e-07
3.41318e-07
3.41887e-07
3.41205e-07
3.38578e-07
3.4515e-07
3.37906e-07
3.49728e-07
3.40681e-07
3.57031e-07
3.5707e-07
3.64115e-07
3.6939e-07
3.2845e-07
2.26508e-07
2.74746e-07
3.06201e-07
3.05321e-07
2.99688e-07
2.96935e-07
2.9661e-07
2.9477e-07
2.95385e-07
2.94709e-07
2.92201e-07
2.98613e-07
2.9153e-07
3.03003e-07
2.94167e-07
3.09296e-07
3.07792e-07
3.16537e-07
3.23897e-07
2.87101e-07
2.00012e-07
2.39965e-07
2.62799e-07
2.60245e-07
2.53586e-07
2.52164e-07
2.51873e-07
2.50095e-07
2.50722e-07
2.50071e-07
2.47734e-07
2.5387e-07
2.47082e-07
2.57046e-07
2.49516e-07
2.63154e-07
2.6216e-07
2.70453e-07
2.78529e-07
2.47548e-07
1.7511e-07
2.05273e-07
2.1989e-07
2.17522e-07
2.1137e-07
2.09988e-07
2.09737e-07
2.08067e-07
2.0868e-07
2.08071e-07
2.05944e-07
2.11684e-07
2.05332e-07
2.14514e-07
2.07525e-07
2.19787e-07
2.18972e-07
2.26653e-07
2.35319e-07
2.08665e-07
1.49883e-07
1.7166e-07
1.80953e-07
1.77955e-07
1.72461e-07
1.71172e-07
1.70963e-07
1.69441e-07
1.70015e-07
1.69461e-07
1.67572e-07
1.72802e-07
1.67015e-07
1.75264e-07
1.6894e-07
1.79737e-07
1.79019e-07
1.85955e-07
1.95134e-07
1.73314e-07
1.2594e-07
1.40063e-07
1.45454e-07
1.42253e-07
1.37517e-07
1.36365e-07
1.36196e-07
1.34851e-07
1.3537e-07
1.3488e-07
1.33244e-07
1.37873e-07
1.3275e-07
1.39955e-07
1.34391e-07
1.43663e-07
1.43002e-07
1.49096e-07
1.58398e-07
1.41922e-07
1.03062e-07
1.11326e-07
1.14016e-07
1.10947e-07
1.06997e-07
1.06015e-07
1.05881e-07
1.04731e-07
1.05184e-07
1.04763e-07
1.03382e-07
1.07355e-07
1.02956e-07
1.09064e-07
1.04312e-07
1.12054e-07
1.11435e-07
1.16644e-07
1.25501e-07
1.13528e-07
7.81603e-08
8.14601e-08
7.78009e-08
8.28237e-08
7.88799e-08
8.51641e-08
8.45715e-08
8.8921e-08
9.68051e-08
8.86533e-08
)
;

boundaryField
{
    fuel
    {
        type            fixedValue;
        value           nonuniform 0();
    }
    wall
    {
        type            zeroGradient;
    }
    outlet
    {
        type            zeroGradient;
    }
    frontAndBack
    {
        type            empty;
    }
    procBoundary0to1
    {
        type            processor;
        value           nonuniform List<scalar> 
21
(
8.18957e-08
8.60415e-08
8.7021e-08
8.42996e-08
8.11115e-08
8.03172e-08
8.02123e-08
7.92623e-08
7.96437e-08
7.92936e-08
7.92936e-08
5.74975e-08
6.01432e-08
5.72038e-08
6.11984e-08
5.80349e-08
6.29621e-08
6.24325e-08
6.59299e-08
7.25745e-08
6.74421e-08
)
;
    }
    procBoundary0to2
    {
        type            processor;
        value           nonuniform List<scalar> 
12
(
6.28556e-07
5.11356e-07
4.67685e-07
5.70453e-07
5.89788e-07
5.85671e-07
5.83237e-07
5.83102e-07
5.81869e-07
5.81664e-07
5.81176e-07
5.81176e-07
)
;
    }
    procBoundary0to3
    {
        type            processor;
        value           nonuniform List<scalar> 10(6.73365e-07 6.79352e-07 6.73479e-07 6.84702e-07 6.75373e-07 6.94108e-07 6.94231e-07 7.02059e-07 6.79657e-07 5.73226e-07);
    }
}


// ************************************************************************* //
