/*--------------------------------*- C++ -*----------------------------------*\
| =========                 |                                                 |
| \\      /  F ield         | OpenFOAM: The Open Source CFD Toolbox           |
|  \\    /   O peration     | Version:  dev                                   |
|   \\  /    A nd           | Web:      www.OpenFOAM.org                      |
|    \\/     M anipulation  |                                                 |
\*---------------------------------------------------------------------------*/
FoamFile
{
    version     2.0;
    format      ascii;
    class       volScalarField;
    location    "0.15";
    object      HCCOH;
}
// * * * * * * * * * * * * * * * * * * * * * * * * * * * * * * * * * * * * * //

dimensions      [0 0 0 0 0 0 0];

internalField   nonuniform List<scalar> 
50
(
1.83468e-05
2.52743e-05
2.51418e-05
2.25132e-05
1.91408e-05
1.57626e-05
1.27114e-05
1.01072e-05
7.93739e-06
6.1829e-06
4.78633e-06
3.69725e-06
2.84057e-06
2.17233e-06
1.65589e-06
1.25854e-06
9.53954e-07
7.21209e-07
5.45422e-07
4.1181e-07
3.10522e-07
2.33924e-07
1.7562e-07
1.32115e-07
9.94113e-08
7.46465e-08
5.60657e-08
4.22635e-08
3.18385e-08
2.40132e-08
1.81983e-08
1.38083e-08
1.04994e-08
8.0098e-09
6.13277e-09
4.71412e-09
3.63886e-09
2.82127e-09
2.1974e-09
1.71952e-09
1.352e-09
1.06817e-09
8.48074e-10
6.76746e-10
5.42939e-10
4.38192e-10
3.56136e-10
2.91978e-10
2.42117e-10
2.03869e-10
)
;

boundaryField
{
    wall
    {
        type            zeroGradient;
    }
    fuel
    {
        type            fixedValue;
        value           uniform 0;
    }
    outlet
    {
        type            inletOutlet;
        inletValue      nonuniform 0();
        value           nonuniform 0();
    }
    procBoundary0to1
    {
        type            processor;
        value           uniform 1.70191e-10;
    }
}


// ************************************************************************* //
