/*--------------------------------*- C++ -*----------------------------------*\
| =========                 |                                                 |
| \\      /  F ield         | OpenFOAM: The Open Source CFD Toolbox           |
|  \\    /   O peration     | Version:  dev                                   |
|   \\  /    A nd           | Web:      www.OpenFOAM.org                      |
|    \\/     M anipulation  |                                                 |
\*---------------------------------------------------------------------------*/
FoamFile
{
    version     2.0;
    format      ascii;
    class       volScalarField;
    location    "0.15";
    object      HO2;
}
// * * * * * * * * * * * * * * * * * * * * * * * * * * * * * * * * * * * * * //

dimensions      [0 0 0 0 0 0 0];

internalField   nonuniform List<scalar> 
250
(
3.10115e-11
3.10671e-11
3.10581e-11
3.11875e-11
3.12311e-11
3.11911e-11
3.11052e-11
3.52896e-11
5.57721e-10
2.09291e-08
2.76983e-11
2.77574e-11
2.77425e-11
2.78765e-11
2.79266e-11
2.79034e-11
2.79463e-11
3.03852e-11
3.82802e-10
1.31214e-08
2.27348e-11
2.03569e-11
2.32488e-11
2.51024e-11
2.52227e-11
2.44646e-11
2.48949e-11
2.42284e-11
2.46285e-11
2.41998e-11
2.43438e-11
2.44039e-11
2.43848e-11
2.45211e-11
2.45756e-11
2.45688e-11
2.47306e-11
2.6052e-11
2.61274e-10
8.2096e-09
1.7618e-11
1.81062e-11
2.0298e-11
2.18152e-11
2.1862e-11
2.11154e-11
2.15341e-11
2.0873e-11
2.12795e-11
2.08524e-11
2.09976e-11
2.10557e-11
2.10343e-11
2.11702e-11
2.12269e-11
2.12346e-11
2.14956e-11
2.21377e-11
1.73999e-10
5.11017e-09
1.49624e-11
1.58761e-11
1.73577e-11
1.85607e-11
1.85473e-11
1.78323e-11
1.82327e-11
1.75927e-11
1.79946e-11
1.75789e-11
1.77216e-11
1.77746e-11
1.77531e-11
1.78856e-11
1.79418e-11
1.79617e-11
1.8295e-11
1.85676e-11
1.14659e-10
3.1582e-09
1.35605e-11
1.36737e-11
1.44917e-11
1.5409e-11
1.53466e-11
1.46874e-11
1.50615e-11
1.44592e-11
1.48443e-11
1.44507e-11
1.4587e-11
1.46318e-11
1.4613e-11
1.47382e-11
1.47916e-11
1.48206e-11
1.51952e-11
1.5306e-11
7.83035e-11
1.93685e-09
1.29487e-11
1.1549e-11
1.17739e-11
1.24363e-11
1.23359e-11
1.17564e-11
1.20961e-11
1.15475e-11
1.19037e-11
1.1543e-11
1.16688e-11
1.17024e-11
1.16897e-11
1.18037e-11
1.1852e-11
1.18873e-11
1.227e-11
1.23311e-11
5.2815e-11
1.17949e-09
1.30016e-11
9.5734e-12
9.25788e-12
9.7188e-12
9.59481e-12
9.11325e-12
9.41168e-12
8.92996e-12
9.24655e-12
8.92814e-12
9.03993e-12
9.058e-12
9.05658e-12
9.15541e-12
9.19673e-12
9.23696e-12
9.59364e-12
9.66002e-12
3.60286e-11
7.14386e-10
1.37388e-11
7.82674e-12
7.04349e-12
7.32441e-12
7.18789e-12
6.74714e-12
6.99539e-12
6.5915e-12
6.8679e-12
6.59488e-12
6.69024e-12
6.75793e-12
6.70044e-12
6.78991e-12
6.82755e-12
6.84089e-12
7.23157e-12
7.32076e-12
2.4553e-11
4.31187e-10
1.52292e-11
6.38305e-12
5.16369e-12
5.30243e-12
5.17788e-12
4.83367e-12
5.03354e-12
4.70965e-12
4.934e-12
4.71354e-12
4.79084e-12
4.84199e-12
4.79824e-12
4.86918e-12
4.89854e-12
4.91246e-12
5.23612e-12
5.34199e-12
1.66666e-11
2.59843e-10
1.76371e-11
5.29838e-12
3.64868e-12
3.67529e-12
3.57211e-12
3.31496e-12
3.46795e-12
3.22144e-12
3.39411e-12
3.22521e-12
3.28457e-12
3.32147e-12
3.28971e-12
3.34302e-12
3.36465e-12
3.37688e-12
3.62929e-12
3.73931e-12
1.12234e-11
1.56541e-10
2.06711e-11
4.5974e-12
2.49777e-12
2.43517e-12
2.35595e-12
2.17343e-12
2.28424e-12
2.10704e-12
2.23242e-12
2.1103e-12
2.15328e-12
2.17856e-12
2.15667e-12
2.19445e-12
2.20945e-12
2.21894e-12
2.40355e-12
2.50661e-12
7.46498e-12
9.42931e-11
2.43269e-11
4.26695e-12
1.68065e-12
1.54541e-12
1.48813e-12
1.36549e-12
1.44129e-12
1.32135e-12
1.40695e-12
1.32393e-12
1.35318e-12
1.36958e-12
1.35529e-12
1.38044e-12
1.39022e-12
1.39685e-12
1.52314e-12
1.61115e-12
4.88506e-12
5.66686e-11
8.22966e-13
8.33024e-13
8.24215e-13
8.3994e-13
8.45951e-13
8.5015e-13
9.31016e-13
1.00015e-12
3.13238e-12
3.37231e-11
)
;

boundaryField
{
    fuel
    {
        type            fixedValue;
        value           nonuniform 0();
    }
    wall
    {
        type            zeroGradient;
    }
    outlet
    {
        type            zeroGradient;
    }
    frontAndBack
    {
        type            empty;
    }
    procBoundary0to1
    {
        type            processor;
        value           nonuniform List<scalar> 
21
(
2.71484e-11
4.13039e-12
1.13693e-12
9.47919e-13
9.07697e-13
8.29898e-13
8.78744e-13
8.02416e-13
8.57249e-13
8.04289e-13
8.04289e-13
4.94745e-13
5.00614e-13
4.95452e-13
5.04748e-13
5.08263e-13
5.10711e-13
5.59502e-13
6.11094e-13
1.98586e-12
1.99054e-11
)
;
    }
    procBoundary0to2
    {
        type            processor;
        value           nonuniform List<scalar> 
12
(
3.08792e-11
3.46121e-11
2.31575e-11
2.6161e-11
2.83712e-11
2.85677e-11
2.78205e-11
2.82527e-11
2.75977e-11
2.79799e-11
2.75588e-11
2.75588e-11
)
;
    }
    procBoundary0to3
    {
        type            processor;
        value           nonuniform List<scalar> 10(3.42472e-11 3.42975e-11 3.42967e-11 3.44183e-11 3.44533e-11 3.43985e-11 3.41824e-11 4.16914e-11 8.17259e-10 3.37704e-08);
    }
}


// ************************************************************************* //
