/*--------------------------------*- C++ -*----------------------------------*\
| =========                 |                                                 |
| \\      /  F ield         | OpenFOAM: The Open Source CFD Toolbox           |
|  \\    /   O peration     | Version:  dev                                   |
|   \\  /    A nd           | Web:      www.OpenFOAM.org                      |
|    \\/     M anipulation  |                                                 |
\*---------------------------------------------------------------------------*/
FoamFile
{
    version     2.0;
    format      ascii;
    class       volScalarField;
    location    "0.15";
    object      l-C6H4;
}
// * * * * * * * * * * * * * * * * * * * * * * * * * * * * * * * * * * * * * //

dimensions      [0 0 0 0 0 0 0];

internalField   nonuniform List<scalar> 
50
(
2.31069e-08
2.46395e-08
1.94496e-08
1.36872e-08
9.03497e-09
5.73487e-09
3.54975e-09
2.15979e-09
1.29301e-09
7.66569e-10
4.51089e-10
2.65471e-10
1.55316e-10
9.04309e-11
5.25152e-11
3.04306e-11
1.75981e-11
1.01529e-11
5.87357e-12
3.39472e-12
1.96074e-12
1.13239e-12
6.50427e-13
3.74967e-13
2.16268e-13
1.24209e-13
7.12698e-14
4.11003e-14
2.36362e-14
1.35919e-14
7.87046e-15
4.56371e-15
2.65738e-15
1.56074e-15
9.28547e-16
5.62883e-16
3.50283e-16
2.257e-16
1.51831e-16
1.07276e-16
7.97462e-17
6.21748e-17
5.04913e-17
4.2344e-17
3.63694e-17
3.1773e-17
2.80896e-17
2.50466e-17
2.2486e-17
2.03212e-17
)
;

boundaryField
{
    wall
    {
        type            zeroGradient;
    }
    fuel
    {
        type            fixedValue;
        value           uniform 0;
    }
    outlet
    {
        type            inletOutlet;
        inletValue      nonuniform 0();
        value           nonuniform 0();
    }
    procBoundary0to1
    {
        type            processor;
        value           uniform 1.82888e-17;
    }
}


// ************************************************************************* //
