/*--------------------------------*- C++ -*----------------------------------*\
| =========                 |                                                 |
| \\      /  F ield         | OpenFOAM: The Open Source CFD Toolbox           |
|  \\    /   O peration     | Version:  dev                                   |
|   \\  /    A nd           | Web:      www.OpenFOAM.org                      |
|    \\/     M anipulation  |                                                 |
\*---------------------------------------------------------------------------*/
FoamFile
{
    version     2.0;
    format      ascii;
    class       volScalarField;
    location    "0.15";
    object      n-A1C2H2;
}
// * * * * * * * * * * * * * * * * * * * * * * * * * * * * * * * * * * * * * //

dimensions      [0 0 0 0 0 0 0];

internalField   nonuniform List<scalar> 
250
(
1.29403e-11
1.29884e-11
1.29484e-11
1.30559e-11
1.29728e-11
1.33677e-11
1.42264e-11
1.79312e-11
3.27246e-11
7.1232e-11
1.26297e-11
1.26627e-11
1.26352e-11
1.27152e-11
1.26567e-11
1.29972e-11
1.37936e-11
1.72827e-11
3.14605e-11
7.30066e-11
1.04004e-10
3.60594e-11
1.70355e-11
1.34269e-11
1.26307e-11
1.24717e-11
1.24642e-11
1.24771e-11
1.24555e-11
1.24701e-11
1.24528e-11
1.24701e-11
1.24568e-11
1.25082e-11
1.24745e-11
1.27613e-11
1.35084e-11
1.67788e-11
3.03292e-11
7.40982e-11
8.50369e-11
3.23784e-11
1.65058e-11
1.32882e-11
1.25591e-11
1.24132e-11
1.24048e-11
1.24202e-11
1.24003e-11
1.24152e-11
1.24029e-11
1.24044e-11
1.24062e-11
1.24292e-11
1.24198e-11
1.26546e-11
1.33561e-11
1.64117e-11
2.93052e-11
7.42975e-11
7.04605e-11
2.92966e-11
1.61331e-11
1.32737e-11
1.2607e-11
1.24741e-11
1.24648e-11
1.24826e-11
1.24637e-11
1.2479e-11
1.24717e-11
1.24578e-11
1.24749e-11
1.24705e-11
1.24844e-11
1.26704e-11
1.33287e-11
1.61721e-11
2.83656e-11
7.34766e-11
5.91797e-11
2.70101e-11
1.59044e-11
1.33718e-11
1.27631e-11
1.26428e-11
1.26326e-11
1.26524e-11
1.26341e-11
1.26495e-11
1.26469e-11
1.26189e-11
1.26502e-11
1.26213e-11
1.26561e-11
1.2799e-11
1.34153e-11
1.60477e-11
2.74143e-11
7.15978e-11
5.03322e-11
2.50537e-11
1.58e-11
1.35658e-11
1.30108e-11
1.29022e-11
1.28911e-11
1.29122e-11
1.28942e-11
1.29094e-11
1.29105e-11
1.28709e-11
1.29143e-11
1.28656e-11
1.29173e-11
1.30248e-11
1.35993e-11
1.60216e-11
2.65702e-11
6.87183e-11
4.343e-11
2.35389e-11
1.57956e-11
1.38332e-11
1.33287e-11
1.3229e-11
1.32169e-11
1.3238e-11
1.32205e-11
1.32352e-11
1.32389e-11
1.31909e-11
1.32428e-11
1.31809e-11
1.32445e-11
1.33248e-11
1.38654e-11
1.60706e-11
2.57505e-11
6.49747e-11
3.78192e-11
2.2314e-11
1.58621e-11
1.4144e-11
1.3694e-11
1.35948e-11
1.35817e-11
1.36017e-11
1.35847e-11
1.35986e-11
1.36034e-11
1.35515e-11
1.36073e-11
1.35451e-11
1.36091e-11
1.36716e-11
1.41687e-11
1.6167e-11
2.49116e-11
6.06197e-11
3.35123e-11
2.13196e-11
1.59667e-11
1.44705e-11
1.40618e-11
1.39705e-11
1.39566e-11
1.39742e-11
1.39582e-11
1.39709e-11
1.39755e-11
1.39242e-11
1.39792e-11
1.39177e-11
1.39823e-11
1.40343e-11
1.44892e-11
1.6283e-11
2.40759e-11
5.56182e-11
2.99908e-11
2.05083e-11
1.60868e-11
1.47897e-11
1.44198e-11
1.43347e-11
1.43202e-11
1.43347e-11
1.43198e-11
1.43313e-11
1.43349e-11
1.42874e-11
1.4338e-11
1.4283e-11
1.43434e-11
1.43919e-11
1.4804e-11
1.63973e-11
2.32514e-11
5.05742e-11
2.72936e-11
1.9853e-11
1.62164e-11
1.50966e-11
1.47642e-11
1.46842e-11
1.46697e-11
1.46809e-11
1.46673e-11
1.46777e-11
1.46803e-11
1.46376e-11
1.46831e-11
1.46359e-11
1.46907e-11
1.47383e-11
1.51079e-11
1.65061e-11
2.24506e-11
4.57508e-11
2.51998e-11
1.93589e-11
1.63789e-11
1.5418e-11
1.5124e-11
1.50491e-11
1.50351e-11
1.50442e-11
1.50314e-11
1.50413e-11
1.50442e-11
1.5003e-11
1.50474e-11
1.50031e-11
1.50561e-11
1.50985e-11
1.54277e-11
1.66369e-11
2.17123e-11
4.11932e-11
1.55119e-11
1.5463e-11
1.55171e-11
1.5462e-11
1.55244e-11
1.55478e-11
1.58412e-11
1.68661e-11
2.11227e-11
3.71591e-11
)
;

boundaryField
{
    fuel
    {
        type            fixedValue;
        value           nonuniform 0();
    }
    wall
    {
        type            zeroGradient;
    }
    outlet
    {
        type            zeroGradient;
    }
    frontAndBack
    {
        type            empty;
    }
    procBoundary0to1
    {
        type            processor;
        value           nonuniform List<scalar> 
21
(
2.36692e-11
1.90814e-11
1.66477e-11
1.5832e-11
1.55795e-11
1.5511e-11
1.54983e-11
1.55078e-11
1.54946e-11
1.55054e-11
1.55054e-11
1.62443e-11
1.61724e-11
1.62544e-11
1.61651e-11
1.62563e-11
1.62366e-11
1.65022e-11
1.7344e-11
2.08338e-11
3.387e-11
)
;
    }
    procBoundary0to2
    {
        type            processor;
        value           nonuniform List<scalar> 
12
(
1.29663e-11
1.28826e-10
4.03751e-11
1.77319e-11
1.36982e-11
1.28299e-11
1.26576e-11
1.26511e-11
1.26618e-11
1.26374e-11
1.26516e-11
1.26516e-11
)
;
    }
    procBoundary0to3
    {
        type            processor;
        value           nonuniform List<scalar> 10(1.33912e-11 1.34538e-11 1.34032e-11 1.35366e-11 1.34293e-11 1.38784e-11 1.47961e-11 1.88147e-11 3.43996e-11 6.90446e-11);
    }
}


// ************************************************************************* //
