/*--------------------------------*- C++ -*----------------------------------*\
| =========                 |                                                 |
| \\      /  F ield         | OpenFOAM: The Open Source CFD Toolbox           |
|  \\    /   O peration     | Version:  dev                                   |
|   \\  /    A nd           | Web:      www.OpenFOAM.org                      |
|    \\/     M anipulation  |                                                 |
\*---------------------------------------------------------------------------*/
FoamFile
{
    version     2.0;
    format      ascii;
    class       volScalarField;
    location    "0.15";
    object      N2;
}
// * * * * * * * * * * * * * * * * * * * * * * * * * * * * * * * * * * * * * //

dimensions      [0 0 0 0 0 0 0];

internalField   nonuniform List<scalar> 
250
(
0
0
0
3.44672e-07
2.18204e-06
1.17674e-05
6.24158e-05
0.000302789
0.00126494
0.0035633
0
0
1.68558e-08
3.70723e-07
2.21759e-06
1.1616e-05
6.01671e-05
0.000283154
0.00114839
0.00309473
0.00335176
0.00126105
0.000304515
6.48493e-05
1.27473e-05
2.36175e-06
3.06231e-07
0
0
0
0
0
3.46463e-08
3.94817e-07
2.24036e-06
1.14033e-05
5.77661e-05
0.000263866
0.00103978
0.00269282
0.00320198
0.00119841
0.00028897
6.24637e-05
1.24997e-05
2.36374e-06
3.23931e-07
0
0
0
0
0
5.16802e-08
4.16461e-07
2.25015e-06
1.11327e-05
5.52452e-05
0.000245061
0.000932494
0.00234791
0.00303397
0.00112916
0.000272299
5.97726e-05
1.21789e-05
2.35016e-06
3.39329e-07
0
0
0
0
0
6.7514e-08
4.35295e-07
2.2471e-06
1.08066e-05
5.26351e-05
0.000226904
0.000832347
0.00205181
0.00285035
0.00105474
0.000254774
5.68143e-05
1.17897e-05
2.32181e-06
3.52022e-07
0
0
0
0
0
8.18559e-08
4.51093e-07
2.23163e-06
1.0425e-05
4.99656e-05
0.000209512
0.000750373
0.00179764
0.00265416
0.000976591
0.00023669
5.36296e-05
1.13384e-05
2.2793e-06
3.6194e-07
0
0
0
0
0
9.45442e-08
4.63743e-07
2.20444e-06
1.0002e-05
4.72496e-05
0.00019291
0.000672958
0.00157896
0.00244874
0.000896189
0.000218166
5.02647e-05
1.08331e-05
2.22332e-06
3.69187e-07
0
0
0
0
0
1.05527e-07
4.7324e-07
2.16641e-06
9.57159e-06
4.44779e-05
0.000177114
0.000604996
0.00139037
0.00223746
0.000814986
0.000199705
4.67722e-05
1.02835e-05
2.15216e-06
3.74208e-07
0
0
0
0
0
1.15196e-07
4.79889e-07
2.11703e-06
9.16178e-06
4.16259e-05
0.000162107
0.00054331
0.00122708
0.00202344
0.000734352
0.000181411
4.32064e-05
9.70374e-06
2.07104e-06
3.77147e-07
0
0
0
0
0
1.231e-07
4.8352e-07
2.05954e-06
8.73287e-06
3.87833e-05
0.000147866
0.0004873
0.00108496
0.00179977
0.000655513
0.00016353
3.96206e-05
9.10161e-06
1.97861e-06
3.78832e-07
0
0
0
0
6.75919e-09
1.29776e-07
4.84596e-07
1.99354e-06
8.27641e-06
3.59609e-05
0.000134378
0.000436366
0.000960515
0.00159284
0.00057962
0.000146278
3.6064e-05
8.48665e-06
1.87543e-06
3.80237e-07
0
0
0
0
1.66817e-08
1.35567e-07
4.83482e-07
1.92e-06
7.79856e-06
3.31701e-05
0.000121659
0.000389906
0.000850789
0.00139585
0.000507537
0.00012984
3.25789e-05
7.86875e-06
1.76173e-06
3.82793e-07
0
0
0
0
2.70618e-08
1.40914e-07
4.80591e-07
1.84015e-06
7.30484e-06
3.04234e-05
0.000109632
0.000347457
0.000753333
0
3.8086e-08
1.46377e-07
4.76368e-07
1.75546e-06
6.80008e-06
2.77347e-05
9.82593e-05
0.000308574
0.000666133
)
;

boundaryField
{
    fuel
    {
        type            fixedValue;
        value           nonuniform 0();
    }
    wall
    {
        type            zeroGradient;
    }
    outlet
    {
        type            zeroGradient;
    }
    frontAndBack
    {
        type            empty;
    }
    procBoundary0to1
    {
        type            processor;
        value           nonuniform List<scalar> 
21
(
0.00120963
0.000439915
0.000114327
2.92305e-05
7.23449e-06
1.65707e-06
3.7639e-07
0
0
0
0
0
4.80673e-08
1.51464e-07
4.68641e-07
1.66182e-06
6.28607e-06
2.50974e-05
8.75333e-05
0.000272823
0.000587556
)
;
    }
    procBoundary0to2
    {
        type            processor;
        value           nonuniform List<scalar> 
12
(
0
0.00348245
0.00132424
0.000318729
6.68901e-05
1.29203e-05
2.34031e-06
2.87445e-07
0
0
0
0
)
;
    }
    procBoundary0to3
    {
        type            processor;
        value           nonuniform List<scalar> 10(0 0 0 3.16178e-07 2.13342e-06 1.18529e-05 6.44755e-05 0.000324755 0.00139194 0.00410398);
    }
}


// ************************************************************************* //
