/*--------------------------------*- C++ -*----------------------------------*\
| =========                 |                                                 |
| \\      /  F ield         | OpenFOAM: The Open Source CFD Toolbox           |
|  \\    /   O peration     | Version:  dev                                   |
|   \\  /    A nd           | Web:      www.OpenFOAM.org                      |
|    \\/     M anipulation  |                                                 |
\*---------------------------------------------------------------------------*/
FoamFile
{
    version     2.0;
    format      ascii;
    class       volScalarField;
    location    "0.15";
    object      P2-;
}
// * * * * * * * * * * * * * * * * * * * * * * * * * * * * * * * * * * * * * //

dimensions      [0 0 0 0 0 0 0];

internalField   nonuniform List<scalar> 
250
(
3.98822e-12
3.98589e-12
3.99659e-12
4.00143e-12
4.00753e-12
4.08088e-12
4.52304e-12
6.62665e-12
2.2705e-11
4.08438e-11
3.74606e-12
3.74397e-12
3.7534e-12
3.75729e-12
3.76383e-12
3.83094e-12
4.22239e-12
6.01681e-12
1.88654e-11
3.47686e-11
3.14167e-11
1.15597e-11
5.32737e-12
4.03237e-12
3.69914e-12
3.57183e-12
3.5924e-12
3.55078e-12
3.56443e-12
3.54246e-12
3.55189e-12
3.5501e-12
3.55848e-12
3.56147e-12
3.56824e-12
3.62972e-12
3.97579e-12
5.50079e-12
1.57135e-11
2.93293e-11
3.15149e-11
1.07635e-11
5.00687e-12
3.82744e-12
3.52763e-12
3.41591e-12
3.43148e-12
3.39649e-12
3.40742e-12
3.38935e-12
3.39749e-12
3.39605e-12
3.40347e-12
3.40578e-12
3.41265e-12
3.469e-12
3.77455e-12
5.06493e-12
1.29857e-11
2.45458e-11
3.11495e-11
1.00411e-11
4.72754e-12
3.658e-12
3.38886e-12
3.29073e-12
3.30226e-12
3.27277e-12
3.28151e-12
3.26654e-12
3.27362e-12
3.27259e-12
3.27905e-12
3.28102e-12
3.28795e-12
3.33954e-12
3.60921e-12
4.69607e-12
1.07534e-11
2.03915e-11
3.01525e-11
9.3513e-12
4.475e-12
3.51294e-12
3.27209e-12
3.18519e-12
3.19394e-12
3.16819e-12
3.17575e-12
3.1627e-12
3.16908e-12
3.16848e-12
3.174e-12
3.17604e-12
3.18305e-12
3.23017e-12
3.46848e-12
4.37902e-12
9.12798e-12
1.68374e-11
2.84667e-11
8.66179e-12
4.23371e-12
3.37845e-12
3.16392e-12
3.08549e-12
3.09315e-12
3.06873e-12
3.07664e-12
3.0639e-12
3.07008e-12
3.06987e-12
3.07453e-12
3.07714e-12
3.0843e-12
3.12722e-12
3.33838e-12
4.09536e-12
7.75188e-12
1.38359e-11
2.61101e-11
7.94626e-12
3.98421e-12
3.23801e-12
3.04809e-12
2.9756e-12
2.98419e-12
2.95822e-12
2.96838e-12
2.95403e-12
2.96065e-12
2.96041e-12
2.9647e-12
2.96834e-12
2.97568e-12
3.01493e-12
3.20224e-12
3.82523e-12
6.64637e-12
1.13299e-11
2.31778e-11
7.18608e-12
3.71193e-12
3.07389e-12
2.90635e-12
2.83439e-12
2.84595e-12
2.81535e-12
2.83036e-12
2.81204e-12
2.81986e-12
2.82293e-12
2.82338e-12
2.82901e-12
2.83678e-12
2.87119e-12
3.04206e-12
3.54816e-12
5.70513e-12
9.24867e-12
1.98367e-11
6.37319e-12
3.40063e-12
2.87016e-12
2.72392e-12
2.65283e-12
2.66905e-12
2.63178e-12
2.6528e-12
2.62928e-12
2.63878e-12
2.6427e-12
2.64191e-12
2.64941e-12
2.65739e-12
2.68803e-12
2.84239e-12
3.24642e-12
4.87878e-12
7.51733e-12
1.61565e-11
5.51357e-12
3.04361e-12
2.61706e-12
2.49125e-12
2.41996e-12
2.44158e-12
2.39696e-12
2.42458e-12
2.39535e-12
2.40668e-12
2.41166e-12
2.4094e-12
2.41874e-12
2.42676e-12
2.45334e-12
2.59343e-12
2.90914e-12
4.13059e-12
6.0663e-12
1.27327e-11
4.62985e-12
2.64504e-12
2.31496e-12
2.20907e-12
2.13826e-12
2.16483e-12
2.11406e-12
2.14741e-12
2.11331e-12
2.12619e-12
2.132e-12
2.12849e-12
2.13921e-12
2.14698e-12
2.16933e-12
2.29551e-12
2.5361e-12
3.43852e-12
4.83866e-12
9.62755e-12
3.75732e-12
2.22082e-12
1.97581e-12
1.88942e-12
1.82115e-12
1.85109e-12
1.79703e-12
1.83397e-12
1.79706e-12
1.81077e-12
1.81694e-12
1.81264e-12
1.82395e-12
1.83113e-12
1.84926e-12
1.96056e-12
2.1385e-12
2.79587e-12
3.79417e-12
1.48194e-12
1.48794e-12
1.48338e-12
1.49438e-12
1.50068e-12
1.51479e-12
1.60986e-12
1.73695e-12
2.20804e-12
2.90866e-12
)
;

boundaryField
{
    fuel
    {
        type            fixedValue;
        value           nonuniform 0();
    }
    wall
    {
        type            zeroGradient;
    }
    outlet
    {
        type            zeroGradient;
    }
    frontAndBack
    {
        type            empty;
    }
    procBoundary0to1
    {
        type            processor;
        value           nonuniform List<scalar> 
21
(
6.96825e-12
2.93703e-12
1.7949e-12
1.62121e-12
1.55315e-12
1.49036e-12
1.52124e-12
1.46775e-12
1.5053e-12
1.46836e-12
1.46836e-12
1.16354e-12
1.16894e-12
1.16459e-12
1.17448e-12
1.17971e-12
1.19021e-12
1.26816e-12
1.35552e-12
1.68617e-12
2.16896e-12
)
;
    }
    procBoundary0to2
    {
        type            processor;
        value           nonuniform List<scalar> 
12
(
3.97653e-12
3.07068e-11
1.2588e-11
5.69759e-12
4.2824e-12
3.91202e-12
3.76801e-12
3.79394e-12
3.74533e-12
3.76166e-12
3.73542e-12
3.73542e-12
)
;
    }
    procBoundary0to3
    {
        type            processor;
        value           nonuniform List<scalar> 10(4.28679e-12 4.28437e-12 4.2968e-12 4.3024e-12 4.3077e-12 4.38815e-12 4.88663e-12 7.42466e-12 2.74547e-11 4.77783e-11);
    }
}


// ************************************************************************* //
