/*--------------------------------*- C++ -*----------------------------------*\
| =========                 |                                                 |
| \\      /  F ield         | OpenFOAM: The Open Source CFD Toolbox           |
|  \\    /   O peration     | Version:  dev                                   |
|   \\  /    A nd           | Web:      www.OpenFOAM.org                      |
|    \\/     M anipulation  |                                                 |
\*---------------------------------------------------------------------------*/
FoamFile
{
    version     2.0;
    format      ascii;
    class       volScalarField;
    location    "0.07";
    object      A1C2H-;
}
// * * * * * * * * * * * * * * * * * * * * * * * * * * * * * * * * * * * * * //

dimensions      [0 0 0 0 0 0 0];

internalField   nonuniform List<scalar> 
25
(
3.6258e-17
2.74312e-17
2.08741e-17
1.60247e-17
1.24497e-17
9.81944e-18
7.94776e-18
6.58428e-18
5.60705e-18
4.92577e-18
4.47419e-18
4.20417e-18
4.08079e-18
4.07833e-18
4.17678e-18
4.36431e-18
4.63013e-18
4.96533e-18
5.35135e-18
5.80009e-18
6.31786e-18
6.91823e-18
7.57499e-18
8.33514e-18
9.24229e-18
)
;

boundaryField
{
    wall
    {
        type            zeroGradient;
    }
    fuel
    {
        type            fixedValue;
        value           nonuniform 0();
    }
    outlet
    {
        type            inletOutlet;
        inletValue      nonuniform 0();
        value           nonuniform 0();
    }
    procBoundary1to0
    {
        type            processor;
        value           uniform 4.84272e-17;
    }
    procBoundary1to2
    {
        type            processor;
        value           uniform 1.02587e-17;
    }
}


// ************************************************************************* //
