/*--------------------------------*- C++ -*----------------------------------*\
| =========                 |                                                 |
| \\      /  F ield         | OpenFOAM: The Open Source CFD Toolbox           |
|  \\    /   O peration     | Version:  dev                                   |
|   \\  /    A nd           | Web:      www.OpenFOAM.org                      |
|    \\/     M anipulation  |                                                 |
\*---------------------------------------------------------------------------*/
FoamFile
{
    version     2.0;
    format      ascii;
    class       volScalarField;
    location    "0.07";
    object      C2H6;
}
// * * * * * * * * * * * * * * * * * * * * * * * * * * * * * * * * * * * * * //

dimensions      [0 0 0 0 0 0 0];

internalField   nonuniform List<scalar> 
25
(
9.97402e-09
1.07937e-08
1.16967e-08
1.26889e-08
1.37775e-08
1.4971e-08
1.62801e-08
1.77188e-08
1.93061e-08
2.1069e-08
2.30502e-08
2.53013e-08
2.79074e-08
3.09892e-08
3.47192e-08
3.93725e-08
4.51907e-08
5.26173e-08
6.22161e-08
7.44812e-08
9.01692e-08
1.1015e-07
1.35077e-07
1.66194e-07
2.03749e-07
)
;

boundaryField
{
    wall
    {
        type            zeroGradient;
    }
    fuel
    {
        type            fixedValue;
        value           nonuniform 0();
    }
    outlet
    {
        type            inletOutlet;
        inletValue      nonuniform 0();
        value           nonuniform 0();
    }
    procBoundary1to0
    {
        type            processor;
        value           uniform 9.2316e-09;
    }
    procBoundary1to2
    {
        type            processor;
        value           uniform 2.48732e-07;
    }
}


// ************************************************************************* //
