/*--------------------------------*- C++ -*----------------------------------*\
| =========                 |                                                 |
| \\      /  F ield         | OpenFOAM: The Open Source CFD Toolbox           |
|  \\    /   O peration     | Version:  dev                                   |
|   \\  /    A nd           | Web:      www.OpenFOAM.org                      |
|    \\/     M anipulation  |                                                 |
\*---------------------------------------------------------------------------*/
FoamFile
{
    version     2.0;
    format      ascii;
    class       volScalarField;
    location    "0.07";
    object      C5H6;
}
// * * * * * * * * * * * * * * * * * * * * * * * * * * * * * * * * * * * * * //

dimensions      [0 0 0 0 0 0 0];

internalField   nonuniform List<scalar> 
25
(
2.28692e-15
1.54657e-15
1.0561e-15
7.30231e-16
5.15097e-16
3.76478e-16
2.96179e-16
2.59392e-16
2.62826e-16
3.09562e-16
4.09492e-16
5.80782e-16
8.52423e-16
1.26757e-15
1.88649e-15
2.81288e-15
4.17731e-15
6.15466e-15
8.88739e-15
1.27461e-14
1.81822e-14
2.58258e-14
3.58031e-14
4.91927e-14
6.73525e-14
)
;

boundaryField
{
    wall
    {
        type            zeroGradient;
    }
    fuel
    {
        type            fixedValue;
        value           nonuniform 0();
    }
    outlet
    {
        type            inletOutlet;
        inletValue      nonuniform 0();
        value           nonuniform 0();
    }
    procBoundary1to0
    {
        type            processor;
        value           uniform 3.32555e-15;
    }
    procBoundary1to2
    {
        type            processor;
        value           uniform 9.06742e-14;
    }
}


// ************************************************************************* //
