/*--------------------------------*- C++ -*----------------------------------*\
| =========                 |                                                 |
| \\      /  F ield         | OpenFOAM: The Open Source CFD Toolbox           |
|  \\    /   O peration     | Version:  dev                                   |
|   \\  /    A nd           | Web:      www.OpenFOAM.org                      |
|    \\/     M anipulation  |                                                 |
\*---------------------------------------------------------------------------*/
FoamFile
{
    version     2.0;
    format      ascii;
    class       volScalarField;
    location    "0.07";
    object      CH2;
}
// * * * * * * * * * * * * * * * * * * * * * * * * * * * * * * * * * * * * * //

dimensions      [0 0 0 0 0 0 0];

internalField   nonuniform List<scalar> 
25
(
1.15694e-07
9.37264e-08
7.58803e-08
6.13843e-08
4.96156e-08
4.00681e-08
3.23286e-08
2.60598e-08
2.09863e-08
1.68834e-08
1.35631e-08
1.08877e-08
8.72797e-09
6.98408e-09
5.58145e-09
4.44488e-09
3.53958e-09
2.81333e-09
2.22813e-09
1.76299e-09
1.39178e-09
1.09492e-09
8.60199e-10
6.7249e-10
5.25451e-10
)
;

boundaryField
{
    wall
    {
        type            zeroGradient;
    }
    fuel
    {
        type            fixedValue;
        value           nonuniform 0();
    }
    outlet
    {
        type            inletOutlet;
        inletValue      nonuniform 0();
        value           nonuniform 0();
    }
    procBoundary1to0
    {
        type            processor;
        value           uniform 1.42713e-07;
    }
    procBoundary1to2
    {
        type            processor;
        value           uniform 4.09278e-10;
    }
}


// ************************************************************************* //
