/*--------------------------------*- C++ -*----------------------------------*\
| =========                 |                                                 |
| \\      /  F ield         | OpenFOAM: The Open Source CFD Toolbox           |
|  \\    /   O peration     | Version:  dev                                   |
|   \\  /    A nd           | Web:      www.OpenFOAM.org                      |
|    \\/     M anipulation  |                                                 |
\*---------------------------------------------------------------------------*/
FoamFile
{
    version     2.0;
    format      ascii;
    class       volVectorField;
    location    "0.07";
    object      U;
}
// * * * * * * * * * * * * * * * * * * * * * * * * * * * * * * * * * * * * * //

dimensions      [0 1 -1 0 0 0 0];

internalField   nonuniform List<vector> 
25
(
(4.8133e-13 -4.8133e-13 0.344204)
(4.80329e-13 -4.80329e-13 0.348818)
(4.79259e-13 -4.79259e-13 0.352514)
(4.78138e-13 -4.78138e-13 0.35484)
(4.76978e-13 -4.76978e-13 0.358367)
(4.75789e-13 -4.75789e-13 0.361853)
(4.74578e-13 -4.74578e-13 0.365326)
(4.7335e-13 -4.7335e-13 0.368811)
(4.7211e-13 -4.7211e-13 0.372318)
(4.70857e-13 -4.70857e-13 0.375828)
(4.69592e-13 -4.69592e-13 0.3793)
(4.68317e-13 -4.68317e-13 0.382713)
(4.67031e-13 -4.67031e-13 0.386076)
(4.65732e-13 -4.65732e-13 0.389462)
(4.64419e-13 -4.64419e-13 0.392961)
(4.6309e-13 -4.6309e-13 0.396547)
(4.61742e-13 -4.61742e-13 0.4)
(4.60372e-13 -4.60372e-13 0.403173)
(4.58977e-13 -4.58977e-13 0.406256)
(4.57553e-13 -4.57553e-13 0.409531)
(4.56098e-13 -4.56098e-13 0.412954)
(4.54608e-13 -4.54608e-13 0.416309)
(4.53078e-13 -4.53078e-13 0.419831)
(4.51505e-13 -4.51505e-13 0.423806)
(4.49884e-13 -4.49884e-13 0.426287)
)
;

boundaryField
{
    wall
    {
        type            zeroGradient;
    }
    fuel
    {
        type            fixedValue;
        value           nonuniform 0();
    }
    outlet
    {
        type            pressureInletOutletVelocity;
        value           nonuniform 0();
    }
    procBoundary1to0
    {
        type            processor;
        value           uniform (4.82241e-13 -4.82241e-13 0.340715);
    }
    procBoundary1to2
    {
        type            processor;
        value           uniform (4.48211e-13 -4.48211e-13 0.429484);
    }
}


// ************************************************************************* //
