/*--------------------------------*- C++ -*----------------------------------*\
| =========                 |                                                 |
| \\      /  F ield         | OpenFOAM: The Open Source CFD Toolbox           |
|  \\    /   O peration     | Version:  dev                                   |
|   \\  /    A nd           | Web:      www.OpenFOAM.org                      |
|    \\/     M anipulation  |                                                 |
\*---------------------------------------------------------------------------*/
FoamFile
{
    version     2.0;
    format      ascii;
    class       volScalarField;
    location    "0.02";
    object      A2C2HB;
}
// * * * * * * * * * * * * * * * * * * * * * * * * * * * * * * * * * * * * * //

dimensions      [0 0 0 0 0 0 0];

internalField   nonuniform List<scalar> 
13
(
3.14423e-10
3.17075e-10
3.18835e-10
3.19653e-10
3.1948e-10
3.18275e-10
3.16007e-10
3.12659e-10
3.08232e-10
3.0274e-10
2.9621e-10
2.88684e-10
2.80212e-10
)
;

boundaryField
{
    wall
    {
        type            zeroGradient;
    }
    fuel
    {
        type            fixedValue;
        value           nonuniform 0();
    }
    outlet
    {
        type            inletOutlet;
        inletValue      nonuniform 0();
        value           nonuniform 0();
    }
    procBoundary3to2
    {
        type            processor;
        value           uniform 3.10921e-10;
    }
    procBoundary3to4
    {
        type            processor;
        value           uniform 2.70854e-10;
    }
}


// ************************************************************************* //
