/*--------------------------------*- C++ -*----------------------------------*\
| =========                 |                                                 |
| \\      /  F ield         | OpenFOAM: The Open Source CFD Toolbox           |
|  \\    /   O peration     | Version:  dev                                   |
|   \\  /    A nd           | Web:      www.OpenFOAM.org                      |
|    \\/     M anipulation  |                                                 |
\*---------------------------------------------------------------------------*/
FoamFile
{
    version     2.0;
    format      ascii;
    class       volScalarField;
    location    "0.02";
    object      AR;
}
// * * * * * * * * * * * * * * * * * * * * * * * * * * * * * * * * * * * * * //

dimensions      [0 0 0 0 0 0 0];

internalField   nonuniform List<scalar> 
250
(
0.692592
0.692592
0.692591
0.69259
0.692589
0.692587
0.692586
0.692585
0.692585
0.692587
0.692592
0.692584
0.692584
0.692583
0.692581
0.692578
0.692575
0.692573
0.692571
0.692571
0.692575
0.692575
0.692574
0.692574
0.692573
0.692569
0.692566
0.69256
0.692557
0.692553
0.692554
0.69256
0.692556
0.692562
0.692562
0.69256
0.692555
0.69255
0.692541
0.692537
0.692532
0.692533
0.692543
0.692534
0.692547
0.692547
0.692544
0.692537
0.69253
0.692518
0.692513
0.692506
0.692507
0.692521
0.692509
0.692528
0.692528
0.692525
0.692515
0.692505
0.692488
0.69248
0.692472
0.692474
0.692495
0.69248
0.692505
0.692505
0.692501
0.692488
0.692475
0.692453
0.692443
0.692433
0.692435
0.692462
0.692445
0.692473
0.692473
0.692467
0.69245
0.692434
0.692409
0.692397
0.692384
0.692387
0.692422
0.692402
0.692437
0.692437
0.69243
0.692408
0.692387
0.692356
0.692338
0.692319
0.692323
0.692372
0.692349
0.692392
0.692392
0.692383
0.692356
0.69233
0.692282
0.692258
0.692234
0.692238
0.69231
0.692281
0.692333
0.692323
0.692288
0.692259
0.692202
0.692172
0.692143
0.692131
0.692233
0.692194
0.692254
0.692241
0.692197
0.69216
0.69209
0.692052
0.692028
0.692017
0.692116
0.692086
0.692155
0.692138
0.692082
0.692037
0.691949
0.691901
0.691872
0.691859
0.691994
0.691955
0.69203
0.69201
0.691939
0.691883
0.691774
0.691713
0.691678
0.69166
0.691844
0.691771
0.691873
0.691849
0.69176
0.691691
0.691556
0.69148
0.691437
0.691414
0.69166
0.691567
0.691677
0.691648
0.691537
0.691454
0.691286
0.691192
0.691138
0.69111
0.691434
0.691315
0.691433
0.691398
0.69126
0.69116
0.690953
0.690836
0.690769
0.690737
0.691158
0.691006
0.69113
0.691088
0.690918
0.690798
0.690543
0.690399
0.690315
0.690281
0.69082
0.690631
0.690754
0.690706
0.690496
0.690352
0.690041
0.689864
0.689762
0.689725
0.690329
0.690178
0.69029
0.690234
0.689977
0.689807
0.689429
0.689213
0.689089
0.689122
0.689822
0.689634
0.689719
0.689656
0.689341
0.689142
0.688685
0.688429
0.688366
0.688328
0.689208
0.688985
0.689019
0.688949
0.688565
0.688334
0.687788
0.687481
0.687499
0.687448
0.688469
0.688211
0.688163
0.688088
0.687622
0.687357
0.686712
0.686465
0.686469
0.686406
0.687582
0.687291
0.687123
0.687043
0.686479
0.686179
0.685424
0.685259
0.685255
0.685174
0.686522
0.686201
)
;

boundaryField
{
    fuel
    {
        type            fixedValue;
        value           uniform 0.6926;
    }
    wall
    {
        type            zeroGradient;
    }
    outlet
    {
        type            zeroGradient;
    }
    frontAndBack
    {
        type            empty;
    }
    procBoundary3to0
    {
        type            processor;
        value           nonuniform List<scalar> 10(0.685863 0.685781 0.6851 0.684761 0.68405 0.683837 0.683827 0.683723 0.685265 0.684915);
    }
    procBoundary3to2
    {
        type            processor;
        value           nonuniform List<scalar> 
25
(
0.692591
0.692583
0.692573
0.69256
0.692544
0.692525
0.6925
0.692467
0.692429
0.692383
0.692333
0.692333
0.692254
0.692154
0.692029
0.691872
0.691676
0.691432
0.691128
0.690752
0.690287
0.689716
0.689015
0.688158
0.687117
)
;
    }
}


// ************************************************************************* //
