/*--------------------------------*- C++ -*----------------------------------*\
| =========                 |                                                 |
| \\      /  F ield         | OpenFOAM: The Open Source CFD Toolbox           |
|  \\    /   O peration     | Version:  dev                                   |
|   \\  /    A nd           | Web:      www.OpenFOAM.org                      |
|    \\/     M anipulation  |                                                 |
\*---------------------------------------------------------------------------*/
FoamFile
{
    version     2.0;
    format      ascii;
    class       volScalarField;
    location    "0.02";
    object      C2O;
}
// * * * * * * * * * * * * * * * * * * * * * * * * * * * * * * * * * * * * * //

dimensions      [0 0 0 0 0 0 0];

internalField   nonuniform List<scalar> 
250
(
9.64196e-06
9.64138e-06
9.63819e-06
9.63254e-06
9.63329e-06
9.62927e-06
9.61938e-06
9.61658e-06
9.55029e-06
8.91393e-06
5.74899e-09
7.16624e-06
7.16616e-06
7.16563e-06
7.16201e-06
7.16123e-06
7.15859e-06
7.15162e-06
7.1527e-06
7.10391e-06
6.73927e-06
7.09035e-09
4.41774e-06
4.41765e-06
4.41801e-06
4.41324e-06
4.41253e-06
4.41143e-06
4.4058e-06
4.40587e-06
4.3667e-06
4.15836e-06
5.50103e-09
2.66625e-06
2.66612e-06
2.66674e-06
2.66341e-06
2.66274e-06
2.65981e-06
2.6559e-06
2.65589e-06
2.62673e-06
2.54081e-06
4.05276e-09
1.70661e-06
1.7065e-06
1.70689e-06
1.70371e-06
1.70212e-06
1.69728e-06
1.69102e-06
1.69287e-06
1.6633e-06
1.65692e-06
3.18342e-09
1.17772e-06
1.17738e-06
1.17901e-06
1.17708e-06
1.18051e-06
1.18035e-06
1.17614e-06
1.17667e-06
1.15509e-06
1.1767e-06
2.74421e-09
9.00168e-07
8.99866e-07
9.01231e-07
8.99128e-07
9.02167e-07
9.00485e-07
8.95978e-07
8.95206e-07
8.77924e-07
8.96756e-07
2.60521e-09
7.40243e-07
7.39956e-07
7.41138e-07
7.38806e-07
7.422e-07
7.3916e-07
7.34407e-07
7.3165e-07
7.07835e-07
7.17505e-07
3.11521e-09
6.42691e-07
6.42403e-07
6.43441e-07
6.40775e-07
6.42079e-07
6.40762e-07
6.35295e-07
6.30127e-07
6.07928e-07
5.92623e-07
6.39713e-09
5.70168e-07
5.69868e-07
5.70663e-07
5.67595e-07
5.69969e-07
5.68033e-07
5.65925e-07
5.60813e-07
5.35203e-07
5.00103e-07
1.54492e-08
5.24275e-07
5.24866e-07
5.21163e-07
5.1813e-07
5.15826e-07
5.13263e-07
5.06279e-07
4.80263e-07
4.29322e-07
2.5822e-08
4.87108e-07
4.88205e-07
4.85406e-07
4.82859e-07
4.7498e-07
4.72095e-07
4.65991e-07
4.37248e-07
3.7351e-07
3.41091e-08
4.55469e-07
4.56414e-07
4.5311e-07
4.51111e-07
4.44981e-07
4.3744e-07
4.34358e-07
4.0122e-07
3.30685e-07
4.09264e-08
4.28377e-07
4.2918e-07
4.2537e-07
4.23043e-07
4.16899e-07
4.10255e-07
4.03733e-07
3.7339e-07
2.947e-07
4.72924e-08
4.04234e-07
4.04894e-07
4.00563e-07
3.97772e-07
3.90035e-07
3.85083e-07
3.78384e-07
3.48606e-07
2.64104e-07
5.29052e-08
3.82066e-07
3.82578e-07
3.77703e-07
3.74332e-07
3.67603e-07
3.5947e-07
3.5295e-07
3.2427e-07
2.42409e-07
5.73984e-08
3.61239e-07
3.61596e-07
3.56145e-07
3.5207e-07
3.45742e-07
3.37335e-07
3.30513e-07
3.02985e-07
2.22628e-07
6.02759e-08
3.41306e-07
3.415e-07
3.35442e-07
3.30517e-07
3.22883e-07
3.15945e-07
3.09013e-07
2.82881e-07
2.05454e-07
6.18439e-08
3.21927e-07
3.21952e-07
3.15254e-07
3.09316e-07
3.02489e-07
2.95146e-07
2.88177e-07
2.63659e-07
1.92469e-07
6.27053e-08
3.02826e-07
3.02679e-07
2.9531e-07
2.88122e-07
2.82477e-07
2.74725e-07
2.67819e-07
2.45084e-07
1.81019e-07
6.34289e-08
2.8377e-07
2.8345e-07
2.75386e-07
2.69275e-07
2.62702e-07
2.54576e-07
2.47818e-07
2.26993e-07
1.70568e-07
6.43589e-08
2.64559e-07
2.64066e-07
2.55262e-07
2.49462e-07
2.43027e-07
2.34628e-07
2.28104e-07
2.09284e-07
1.60701e-07
6.55608e-08
2.45027e-07
2.44362e-07
2.34719e-07
2.30358e-07
2.23425e-07
2.14838e-07
2.08655e-07
1.91907e-07
1.51102e-07
6.68979e-08
2.25035e-07
2.24199e-07
2.15872e-07
2.10951e-07
2.03854e-07
1.95189e-07
1.89492e-07
1.74502e-07
1.4155e-07
6.81397e-08
)
;

boundaryField
{
    fuel
    {
        type            fixedValue;
        value           uniform 0;
    }
    wall
    {
        type            zeroGradient;
    }
    outlet
    {
        type            zeroGradient;
    }
    frontAndBack
    {
        type            empty;
    }
    procBoundary3to0
    {
        type            processor;
        value           nonuniform List<scalar> 10(2.04463e-07 2.03443e-07 1.96826e-07 1.91398e-07 1.84347e-07 1.75744e-07 1.70772e-07 1.57891e-07 1.31934e-07 6.90691e-08);
    }
    procBoundary3to2
    {
        type            processor;
        value           nonuniform List<scalar> 
25
(
9.64074e-06
7.16617e-06
4.41807e-06
2.66666e-06
1.70676e-06
1.17895e-06
9.01148e-07
7.41041e-07
6.43327e-07
5.70524e-07
5.24579e-07
5.24579e-07
4.87433e-07
4.55781e-07
4.28681e-07
4.04531e-07
3.82354e-07
3.61517e-07
3.41571e-07
3.22178e-07
3.03061e-07
2.83987e-07
2.64758e-07
2.45205e-07
2.25192e-07
)
;
    }
}


// ************************************************************************* //
