/*--------------------------------*- C++ -*----------------------------------*\
| =========                 |                                                 |
| \\      /  F ield         | OpenFOAM: The Open Source CFD Toolbox           |
|  \\    /   O peration     | Version:  dev                                   |
|   \\  /    A nd           | Web:      www.OpenFOAM.org                      |
|    \\/     M anipulation  |                                                 |
\*---------------------------------------------------------------------------*/
FoamFile
{
    version     2.0;
    format      ascii;
    class       volScalarField;
    location    "0.02";
    object      C6H5O;
}
// * * * * * * * * * * * * * * * * * * * * * * * * * * * * * * * * * * * * * //

dimensions      [0 0 0 0 0 0 0];

internalField   nonuniform List<scalar> 
250
(
4.89939e-07
4.9006e-07
4.9013e-07
4.90879e-07
4.91336e-07
4.92338e-07
4.93331e-07
4.9416e-07
5.05943e-07
6.27043e-07
1.41858e-07
2.36785e-07
2.36839e-07
2.36905e-07
2.37246e-07
2.37599e-07
2.38201e-07
2.38845e-07
2.39217e-07
2.46116e-07
3.18994e-07
3.22826e-07
1.03924e-07
1.03943e-07
1.04002e-07
1.04106e-07
1.04328e-07
1.04701e-07
1.04942e-07
1.0522e-07
1.08972e-07
1.52798e-07
4.03339e-07
4.61935e-08
4.61987e-08
4.62435e-08
4.63018e-08
4.64325e-08
4.66072e-08
4.67385e-08
4.69239e-08
4.90896e-08
7.77482e-08
4.08447e-07
2.21801e-08
2.21816e-08
2.22086e-08
2.22348e-08
2.22941e-08
2.23547e-08
2.23729e-08
2.25445e-08
2.37823e-08
4.43753e-08
3.65764e-07
1.15845e-08
1.15808e-08
1.16217e-08
1.1654e-08
1.17747e-08
1.18861e-08
1.19182e-08
1.20352e-08
1.29432e-08
2.85713e-08
2.9021e-07
6.93138e-09
6.92825e-09
6.95882e-09
6.98065e-09
7.07379e-09
7.14058e-09
7.15788e-09
7.24198e-09
7.96224e-09
2.01587e-08
1.90878e-07
4.60989e-09
4.60715e-09
4.63189e-09
4.64818e-09
4.73505e-09
4.77529e-09
4.78796e-09
4.84122e-09
5.32147e-09
1.50991e-08
1.15181e-07
3.35379e-09
3.35127e-09
3.37259e-09
3.38531e-09
3.44137e-09
3.50168e-09
3.50798e-09
3.53258e-09
3.95391e-09
1.17651e-08
9.87099e-08
2.52174e-09
2.5195e-09
2.53737e-09
2.5481e-09
2.61617e-09
2.67171e-09
2.71941e-09
2.74691e-09
3.07559e-09
9.39554e-09
9.60729e-08
2.05358e-09
2.06927e-09
2.07661e-09
2.09489e-09
2.15301e-09
2.20087e-09
2.21218e-09
2.49527e-09
7.63113e-09
8.94632e-08
1.72032e-09
1.74051e-09
1.75887e-09
1.78633e-09
1.80551e-09
1.85737e-09
1.87736e-09
2.10266e-09
6.26266e-09
7.81237e-08
1.47483e-09
1.49423e-09
1.51227e-09
1.54922e-09
1.58931e-09
1.61692e-09
1.65954e-09
1.82147e-09
5.22233e-09
6.43026e-08
1.29376e-09
1.31292e-09
1.33147e-09
1.3719e-09
1.42013e-09
1.4616e-09
1.48714e-09
1.63696e-09
4.35397e-09
4.97358e-08
1.15438e-09
1.17368e-09
1.19333e-09
1.23692e-09
1.28543e-09
1.34419e-09
1.37236e-09
1.4994e-09
3.62526e-09
3.66836e-08
1.04304e-09
1.06274e-09
1.08391e-09
1.13058e-09
1.19149e-09
1.24751e-09
1.28181e-09
1.38939e-09
3.11899e-09
2.56659e-08
9.51275e-10
9.71546e-10
9.94582e-10
1.04423e-09
1.11475e-09
1.18084e-09
1.2213e-09
1.31455e-09
2.67681e-09
1.75978e-08
8.73727e-10
8.94703e-10
9.19863e-10
9.72361e-10
1.04733e-09
1.13058e-09
1.18049e-09
1.26481e-09
2.31979e-09
1.19998e-08
8.06928e-10
8.2871e-10
8.56208e-10
9.11383e-10
9.98257e-10
1.09322e-09
1.15712e-09
1.23899e-09
2.07974e-09
8.30929e-09
7.48579e-10
7.71251e-10
8.01263e-10
8.59175e-10
9.58704e-10
1.06804e-09
1.1504e-09
1.23737e-09
1.90546e-09
5.95367e-09
6.97109e-10
7.20748e-10
7.5342e-10
8.19562e-10
9.27804e-10
1.05438e-09
1.16065e-09
1.26155e-09
1.79064e-09
4.48029e-09
6.51401e-10
6.76083e-10
7.11489e-10
7.84241e-10
9.04927e-10
1.05216e-09
1.18895e-09
1.31413e-09
1.73205e-09
3.57695e-09
6.1061e-10
6.36412e-10
6.74569e-10
7.56755e-10
8.8883e-10
1.06169e-09
1.23691e-09
1.39832e-09
1.72872e-09
3.04429e-09
5.74048e-10
6.01054e-10
6.45772e-10
7.3484e-10
8.7944e-10
1.08354e-09
1.30625e-09
1.51957e-09
1.78095e-09
2.76053e-09
)
;

boundaryField
{
    fuel
    {
        type            fixedValue;
        value           uniform 0;
    }
    wall
    {
        type            zeroGradient;
    }
    outlet
    {
        type            zeroGradient;
    }
    frontAndBack
    {
        type            empty;
    }
    procBoundary3to0
    {
        type            processor;
        value           nonuniform List<scalar> 10(5.41123e-10 5.69385e-10 6.21087e-10 7.1748e-10 8.77388e-10 1.11821e-09 1.39781e-09 1.6741e-09 1.88948e-09 2.65549e-09);
    }
    procBoundary3to2
    {
        type            processor;
        value           nonuniform List<scalar> 
25
(
4.90244e-07
2.36966e-07
1.04028e-07
4.62548e-08
2.22135e-08
1.16255e-08
6.96139e-09
4.63392e-09
3.37434e-09
2.53893e-09
2.05561e-09
2.05561e-09
1.72271e-09
1.47711e-09
1.29597e-09
1.15657e-09
1.04522e-09
9.5345e-10
8.75908e-10
8.09118e-10
7.5078e-10
6.99324e-10
6.53632e-10
6.12859e-10
5.7632e-10
)
;
    }
}


// ************************************************************************* //
