/*--------------------------------*- C++ -*----------------------------------*\
| =========                 |                                                 |
| \\      /  F ield         | OpenFOAM: The Open Source CFD Toolbox           |
|  \\    /   O peration     | Version:  dev                                   |
|   \\  /    A nd           | Web:      www.OpenFOAM.org                      |
|    \\/     M anipulation  |                                                 |
\*---------------------------------------------------------------------------*/
FoamFile
{
    version     2.0;
    format      ascii;
    class       volScalarField;
    location    "0.02";
    object      CH3;
}
// * * * * * * * * * * * * * * * * * * * * * * * * * * * * * * * * * * * * * //

dimensions      [0 0 0 0 0 0 0];

internalField   nonuniform List<scalar> 
1989
(
1.02501e-05
1.02815e-05
1.03286e-05
1.03764e-05
1.04345e-05
1.04775e-05
1.05236e-05
1.05576e-05
1.05884e-05
1.06122e-05
1.0631e-05
1.06438e-05
1.06526e-05
1.06564e-05
1.06561e-05
1.06518e-05
1.06425e-05
1.06298e-05
1.06109e-05
1.05877e-05
1.05573e-05
1.05242e-05
1.04792e-05
1.04378e-05
1.03811e-05
1.03351e-05
1.02896e-05
1.02598e-05
1.02481e-05
1.02685e-05
1.03314e-05
1.04501e-05
1.0623e-05
1.08755e-05
1.12514e-05
1.17876e-05
1.24543e-05
1.33267e-05
1.3981e-05
1.28791e-05
1.22739e-05
1.1435e-05
1.08227e-05
1.03208e-05
9.96957e-06
9.74308e-06
9.58411e-06
9.47752e-06
9.41954e-06
9.40267e-06
9.41769e-06
9.44763e-06
9.49191e-06
9.53664e-06
9.59124e-06
9.63128e-06
9.67454e-06
9.70653e-06
9.73526e-06
9.75739e-06
9.77506e-06
9.78702e-06
9.79529e-06
9.79891e-06
9.79864e-06
9.79457e-06
9.78583e-06
9.77396e-06
9.75623e-06
9.73461e-06
9.70626e-06
9.67522e-06
9.63293e-06
9.59446e-06
9.54099e-06
9.49799e-06
9.45518e-06
9.42677e-06
9.41508e-06
9.43307e-06
9.49037e-06
9.59959e-06
9.7591e-06
9.99169e-06
1.03408e-05
1.08384e-05
1.14589e-05
1.22859e-05
1.28982e-05
1.18568e-05
1.12875e-05
1.04994e-05
9.92959e-06
9.46337e-06
9.14093e-06
8.93013e-06
8.78161e-06
8.68371e-06
8.63509e-06
8.6205e-06
8.63517e-06
8.6636e-06
8.70517e-06
8.74707e-06
8.79807e-06
8.83537e-06
8.87585e-06
8.90591e-06
8.93264e-06
8.95318e-06
8.96973e-06
8.98089e-06
8.98864e-06
8.99202e-06
8.99177e-06
8.98798e-06
8.9798e-06
8.96872e-06
8.95213e-06
8.93205e-06
8.90569e-06
8.87655e-06
8.83696e-06
8.80123e-06
8.75099e-06
8.71084e-06
8.67064e-06
8.64364e-06
8.63199e-06
8.64771e-06
8.69959e-06
8.79513e-06
8.94426e-06
9.16121e-06
9.48199e-06
9.94492e-06
1.05216e-05
1.12978e-05
1.18747e-05
1.08938e-05
1.03529e-05
9.62013e-06
9.09004e-06
8.65858e-06
8.36441e-06
8.16773e-06
8.03202e-06
7.94353e-06
7.89761e-06
7.88391e-06
7.89645e-06
7.92248e-06
7.96069e-06
7.99921e-06
8.04608e-06
8.0804e-06
8.11795e-06
8.14567e-06
8.17026e-06
8.18905e-06
8.20427e-06
8.21446e-06
8.22158e-06
8.22467e-06
8.22444e-06
8.22096e-06
8.21346e-06
8.20333e-06
8.18808e-06
8.16971e-06
8.14549e-06
8.11858e-06
8.08189e-06
8.04901e-06
8.00281e-06
7.96591e-06
7.92899e-06
7.90428e-06
7.89373e-06
7.90846e-06
7.95699e-06
8.04456e-06
8.18081e-06
8.38288e-06
8.676e-06
9.10481e-06
9.64042e-06
1.03619e-05
1.09105e-05
9.97821e-06
9.47301e-06
8.79067e-06
8.29227e-06
7.89384e-06
7.62507e-06
7.43894e-06
7.31567e-06
7.23542e-06
7.19342e-06
7.18169e-06
7.19382e-06
7.21828e-06
7.25379e-06
7.28951e-06
7.33292e-06
7.36461e-06
7.39945e-06
7.42529e-06
7.44795e-06
7.46524e-06
7.47933e-06
7.48876e-06
7.49535e-06
7.49822e-06
7.49801e-06
7.49479e-06
7.48785e-06
7.47848e-06
7.46436e-06
7.44745e-06
7.42516e-06
7.40007e-06
7.36603e-06
7.33559e-06
7.29288e-06
7.2586e-06
7.2243e-06
7.20105e-06
7.19069e-06
7.2034e-06
7.24726e-06
7.32719e-06
7.45092e-06
7.64185e-06
7.91004e-06
8.30625e-06
8.80919e-06
9.48253e-06
9.99451e-06
9.09744e-06
8.62609e-06
8.0007e-06
7.53655e-06
7.17286e-06
6.93113e-06
6.76979e-06
6.65891e-06
6.58675e-06
6.54881e-06
6.53886e-06
6.55064e-06
6.57363e-06
6.60665e-06
6.63973e-06
6.68004e-06
6.70929e-06
6.74163e-06
6.76563e-06
6.78655e-06
6.80243e-06
6.81548e-06
6.82417e-06
6.83029e-06
6.83293e-06
6.83274e-06
6.82977e-06
6.82335e-06
6.8147e-06
6.80164e-06
6.7861e-06
6.76558e-06
6.74222e-06
6.71063e-06
6.68246e-06
6.64289e-06
6.61109e-06
6.57918e-06
6.55731e-06
6.54712e-06
6.55798e-06
6.59731e-06
6.6695e-06
6.78075e-06
6.94633e-06
7.1879e-06
7.54976e-06
8.01709e-06
8.63512e-06
9.11264e-06
8.26817e-06
7.83254e-06
7.26334e-06
6.82976e-06
6.51665e-06
6.296e-06
6.14267e-06
6.0405e-06
5.97344e-06
5.93826e-06
5.92945e-06
5.94063e-06
5.96229e-06
5.99325e-06
6.0241e-06
6.06201e-06
6.08957e-06
6.12027e-06
6.14295e-06
6.16274e-06
6.17778e-06
6.19013e-06
6.19837e-06
6.20417e-06
6.20667e-06
6.20649e-06
6.20368e-06
6.19759e-06
6.18941e-06
6.17706e-06
6.16236e-06
6.14286e-06
6.12089e-06
6.09094e-06
6.06426e-06
6.02717e-06
5.99743e-06
5.96751e-06
5.94689e-06
5.9371e-06
5.94681e-06
5.98314e-06
6.05053e-06
6.15304e-06
6.30978e-06
6.53053e-06
6.84215e-06
7.27767e-06
7.84126e-06
8.28191e-06
7.49102e-06
7.08817e-06
6.57685e-06
6.18654e-06
5.90083e-06
5.70303e-06
5.56157e-06
5.46937e-06
5.4091e-06
5.3776e-06
5.37029e-06
5.38109e-06
5.40135e-06
5.43005e-06
5.45841e-06
5.49365e-06
5.51911e-06
5.54753e-06
5.56844e-06
5.58669e-06
5.60048e-06
5.61187e-06
5.61944e-06
5.6248e-06
5.62711e-06
5.62694e-06
5.62436e-06
5.61874e-06
5.61122e-06
5.59983e-06
5.58635e-06
5.56838e-06
5.54813e-06
5.52041e-06
5.49562e-06
5.46132e-06
5.43387e-06
5.40614e-06
5.38684e-06
5.37728e-06
5.38543e-06
5.41787e-06
5.47857e-06
5.57105e-06
5.71549e-06
5.91381e-06
6.19817e-06
6.58944e-06
7.09654e-06
7.50312e-06
6.7661e-06
6.41197e-06
5.9489e-06
5.58996e-06
5.33155e-06
5.14922e-06
5.01513e-06
4.93044e-06
4.87554e-06
4.8471e-06
4.84101e-06
4.85139e-06
4.87042e-06
4.89718e-06
4.92361e-06
4.95628e-06
4.98042e-06
5.00702e-06
5.02655e-06
5.0436e-06
5.05646e-06
5.06711e-06
5.0742e-06
5.07921e-06
5.08137e-06
5.08122e-06
5.07881e-06
5.07356e-06
5.06653e-06
5.05588e-06
5.04332e-06
5.02654e-06
5.00762e-06
4.98171e-06
4.95826e-06
4.92622e-06
4.90074e-06
4.8749e-06
4.85674e-06
4.84745e-06
4.85434e-06
4.88361e-06
4.93903e-06
5.024e-06
5.16075e-06
5.34314e-06
5.6009e-06
5.95998e-06
6.41997e-06
6.77632e-06
6.10754e-06
5.78295e-06
5.36249e-06
5.02808e-06
4.79224e-06
4.62467e-06
4.50374e-06
4.42719e-06
4.37804e-06
4.3529e-06
4.34805e-06
4.35795e-06
4.37563e-06
4.40025e-06
4.42445e-06
4.45446e-06
4.47714e-06
4.50146e-06
4.5193e-06
4.53492e-06
4.54665e-06
4.5564e-06
4.56289e-06
4.56749e-06
4.56947e-06
4.56934e-06
4.56713e-06
4.56232e-06
4.55588e-06
4.54615e-06
4.53468e-06
4.5193e-06
4.50204e-06
4.47837e-06
4.45625e-06
4.42685e-06
4.40349e-06
4.37972e-06
4.36284e-06
4.3539e-06
4.35949e-06
4.38536e-06
4.43502e-06
4.51184e-06
4.63502e-06
4.80264e-06
5.03867e-06
5.37202e-06
5.79051e-06
6.1162e-06
5.49205e-06
5.18882e-06
4.80502e-06
4.50373e-06
4.29111e-06
4.14673e-06
4.03867e-06
3.96913e-06
3.92509e-06
3.90291e-06
3.89915e-06
3.90862e-06
3.92501e-06
3.94771e-06
3.96985e-06
3.99737e-06
4.01908e-06
4.04113e-06
4.05737e-06
4.07168e-06
4.08237e-06
4.09129e-06
4.09723e-06
4.10144e-06
4.10326e-06
4.10314e-06
4.10112e-06
4.09671e-06
4.09083e-06
4.08192e-06
4.07147e-06
4.05739e-06
4.04168e-06
4.02022e-06
3.999e-06
3.97205e-06
3.95064e-06
3.92876e-06
3.91307e-06
3.90446e-06
3.9089e-06
3.93172e-06
3.97626e-06
4.04608e-06
4.156e-06
4.30038e-06
4.514e-06
4.81278e-06
5.19611e-06
5.49978e-06
4.90949e-06
4.63404e-06
4.29933e-06
4.02637e-06
3.83544e-06
3.70059e-06
3.60272e-06
3.53912e-06
3.49924e-06
3.47964e-06
3.47683e-06
3.48592e-06
3.50122e-06
3.52233e-06
3.54277e-06
3.5682e-06
3.58957e-06
3.60959e-06
3.62453e-06
3.63779e-06
3.64766e-06
3.65594e-06
3.66145e-06
3.66536e-06
3.66705e-06
3.66694e-06
3.66507e-06
3.66097e-06
3.65553e-06
3.64726e-06
3.6376e-06
3.62455e-06
3.61011e-06
3.59058e-06
3.56972e-06
3.54478e-06
3.52499e-06
3.5047e-06
3.49e-06
3.48169e-06
3.48512e-06
3.50532e-06
3.54569e-06
3.60957e-06
3.70906e-06
3.8437e-06
4.0369e-06
4.30493e-06
4.64077e-06
4.9164e-06
4.38124e-06
4.13148e-06
3.82664e-06
3.57778e-06
3.40628e-06
3.29108e-06
3.20407e-06
3.14684e-06
3.11101e-06
3.09391e-06
3.09195e-06
3.10058e-06
3.11472e-06
3.13405e-06
3.15272e-06
3.17583e-06
3.18913e-06
3.20682e-06
3.22028e-06
3.23233e-06
3.24128e-06
3.24881e-06
3.25382e-06
3.25739e-06
3.25892e-06
3.25882e-06
3.25712e-06
3.25339e-06
3.24845e-06
3.24093e-06
3.23217e-06
3.22032e-06
3.2073e-06
3.18997e-06
3.17723e-06
3.15454e-06
3.13649e-06
3.11785e-06
3.10427e-06
3.09633e-06
3.09887e-06
3.1165e-06
3.15279e-06
3.21029e-06
3.29865e-06
3.41362e-06
3.58656e-06
3.8326e-06
4.13767e-06
4.3875e-06
3.88967e-06
3.65861e-06
3.39318e-06
3.1687e-06
3.01714e-06
2.91323e-06
2.83615e-06
2.78498e-06
2.75268e-06
2.73786e-06
2.73664e-06
2.74479e-06
2.75783e-06
2.77547e-06
2.79248e-06
2.8134e-06
2.82617e-06
2.84174e-06
2.85383e-06
2.86476e-06
2.87286e-06
2.87969e-06
2.88423e-06
2.88748e-06
2.88888e-06
2.88879e-06
2.88724e-06
2.88385e-06
2.87937e-06
2.87255e-06
2.86463e-06
2.85387e-06
2.84217e-06
2.82685e-06
2.81471e-06
2.79411e-06
2.77767e-06
2.76066e-06
2.74813e-06
2.74059e-06
2.74233e-06
2.75763e-06
2.79036e-06
2.84177e-06
2.91999e-06
3.02362e-06
3.17617e-06
3.39885e-06
3.66435e-06
3.89557e-06
3.43889e-06
3.22912e-06
2.99442e-06
2.79059e-06
2.65432e-06
2.56005e-06
2.49111e-06
2.44559e-06
2.42273e-06
2.41001e-06
2.40942e-06
2.41708e-06
2.42906e-06
2.4451e-06
2.46056e-06
2.47942e-06
2.49153e-06
2.50525e-06
2.51605e-06
2.52593e-06
2.53323e-06
2.53941e-06
2.54351e-06
2.54645e-06
2.54771e-06
2.54764e-06
2.54624e-06
2.54317e-06
2.53913e-06
2.53296e-06
2.52582e-06
2.5161e-06
2.50564e-06
2.49212e-06
2.48063e-06
2.46201e-06
2.44709e-06
2.4316e-06
2.42008e-06
2.41296e-06
2.41402e-06
2.42717e-06
2.45044e-06
2.49618e-06
2.56615e-06
2.6602e-06
2.79707e-06
2.99963e-06
3.23429e-06
3.44425e-06
3.0217e-06
2.83404e-06
2.62645e-06
2.44438e-06
2.32397e-06
2.24062e-06
2.17982e-06
2.13973e-06
2.11988e-06
2.10905e-06
2.10899e-06
2.11616e-06
2.12711e-06
2.14164e-06
2.15563e-06
2.17255e-06
2.18387e-06
2.19601e-06
2.20562e-06
2.2145e-06
2.22104e-06
2.22661e-06
2.23029e-06
2.23295e-06
2.23409e-06
2.23402e-06
2.23277e-06
2.23e-06
2.22637e-06
2.22082e-06
2.21441e-06
2.20567e-06
2.19635e-06
2.18441e-06
2.17365e-06
2.15694e-06
2.14343e-06
2.12938e-06
2.11884e-06
2.11215e-06
2.11262e-06
2.12384e-06
2.14407e-06
2.18435e-06
2.24604e-06
2.32921e-06
2.45005e-06
2.63115e-06
2.8388e-06
3.02653e-06
2.63891e-06
2.47283e-06
2.28793e-06
2.12788e-06
2.022e-06
1.94853e-06
1.89508e-06
1.86005e-06
1.84299e-06
1.83386e-06
1.83425e-06
1.8409e-06
1.85087e-06
1.86397e-06
1.87657e-06
1.89167e-06
1.90211e-06
1.91285e-06
1.92138e-06
1.92933e-06
1.93516e-06
1.94016e-06
1.94344e-06
1.94583e-06
1.94686e-06
1.9468e-06
1.94567e-06
1.94319e-06
1.93994e-06
1.93497e-06
1.92925e-06
1.92144e-06
1.91316e-06
1.90259e-06
1.89266e-06
1.87775e-06
1.86558e-06
1.85288e-06
1.84328e-06
1.83704e-06
1.83703e-06
1.8465e-06
1.86391e-06
1.89907e-06
1.95335e-06
2.02663e-06
2.13287e-06
2.29211e-06
2.47707e-06
2.64321e-06
2.28897e-06
2.1425e-06
1.978e-06
1.84028e-06
1.74666e-06
1.68251e-06
1.63616e-06
1.60562e-06
1.5911e-06
1.58352e-06
1.58425e-06
1.5904e-06
1.59941e-06
1.61116e-06
1.62246e-06
1.63585e-06
1.64532e-06
1.65485e-06
1.66239e-06
1.66945e-06
1.67463e-06
1.67908e-06
1.68199e-06
1.68413e-06
1.68505e-06
1.685e-06
1.68399e-06
1.68178e-06
1.6789e-06
1.67446e-06
1.6694e-06
1.66245e-06
1.65514e-06
1.64576e-06
1.63673e-06
1.62351e-06
1.6126e-06
1.60119e-06
1.5925e-06
1.58671e-06
1.5863e-06
1.5942e-06
1.60903e-06
1.6397e-06
1.68671e-06
1.75067e-06
1.84478e-06
1.9817e-06
2.14623e-06
2.29278e-06
1.97062e-06
1.84207e-06
1.6971e-06
1.57883e-06
1.49762e-06
1.44196e-06
1.40201e-06
1.37565e-06
1.36345e-06
1.35725e-06
1.35826e-06
1.36389e-06
1.37199e-06
1.38247e-06
1.39252e-06
1.40431e-06
1.41279e-06
1.42125e-06
1.42788e-06
1.43411e-06
1.43866e-06
1.44261e-06
1.44518e-06
1.44708e-06
1.44789e-06
1.44784e-06
1.44696e-06
1.44499e-06
1.44245e-06
1.43853e-06
1.43407e-06
1.42794e-06
1.42152e-06
1.41321e-06
1.40509e-06
1.39345e-06
1.38373e-06
1.37355e-06
1.36573e-06
1.36041e-06
1.35968e-06
1.36615e-06
1.37863e-06
1.40512e-06
1.4456e-06
1.50101e-06
1.58292e-06
1.70031e-06
1.84533e-06
1.97395e-06
1.68286e-06
1.57075e-06
1.44425e-06
1.34344e-06
1.27262e-06
1.22439e-06
1.19197e-06
1.16948e-06
1.1594e-06
1.15444e-06
1.15565e-06
1.16075e-06
1.16798e-06
1.17726e-06
1.18613e-06
1.19645e-06
1.20395e-06
1.21142e-06
1.2172e-06
1.22266e-06
1.22664e-06
1.2301e-06
1.23236e-06
1.23403e-06
1.23475e-06
1.23471e-06
1.23393e-06
1.2322e-06
1.22997e-06
1.22653e-06
1.22263e-06
1.21726e-06
1.21165e-06
1.20433e-06
1.19712e-06
1.18695e-06
1.17836e-06
1.16933e-06
1.16234e-06
1.1575e-06
1.15654e-06
1.16172e-06
1.17206e-06
1.19467e-06
1.22755e-06
1.27564e-06
1.34696e-06
1.44705e-06
1.57356e-06
1.68573e-06
1.42491e-06
1.32581e-06
1.21881e-06
1.13352e-06
1.07314e-06
1.03268e-06
1.00545e-06
9.86554e-07
9.78181e-07
9.74048e-07
9.75538e-07
9.80343e-07
9.86821e-07
9.94992e-07
1.00274e-06
1.0117e-06
1.01826e-06
1.0248e-06
1.02982e-06
1.03456e-06
1.03801e-06
1.04103e-06
1.04298e-06
1.04445e-06
1.04507e-06
1.04504e-06
1.04436e-06
1.04286e-06
1.04092e-06
1.03792e-06
1.03454e-06
1.02988e-06
1.02501e-06
1.0186e-06
1.01227e-06
1.00346e-06
9.95938e-07
9.87997e-07
9.81742e-07
9.77161e-07
9.75882e-07
9.80212e-07
9.88764e-07
1.00777e-06
1.03537e-06
1.07575e-06
1.13657e-06
1.22117e-06
1.32826e-06
1.42736e-06
1.19507e-06
1.11109e-06
1.02085e-06
9.47862e-07
8.98076e-07
8.64488e-07
8.41868e-07
8.26259e-07
8.19561e-07
8.16393e-07
8.17963e-07
8.22267e-07
8.27972e-07
8.35069e-07
8.41792e-07
8.49501e-07
8.55179e-07
8.60859e-07
8.65172e-07
8.69254e-07
8.72221e-07
8.7482e-07
8.76506e-07
8.77773e-07
8.78315e-07
8.78289e-07
8.77703e-07
8.76402e-07
8.74732e-07
8.72151e-07
8.69242e-07
8.65229e-07
8.61039e-07
8.55481e-07
8.49983e-07
8.42416e-07
8.3589e-07
8.28962e-07
8.23454e-07
8.19336e-07
8.17944e-07
8.21277e-07
8.28126e-07
8.43829e-07
8.66743e-07
9.00291e-07
9.50584e-07
1.02278e-06
1.11312e-06
1.19714e-06
9.93831e-07
9.2355e-07
8.4801e-07
7.87128e-07
7.467e-07
7.19088e-07
7.00465e-07
6.87857e-07
6.82631e-07
6.80291e-07
6.81893e-07
6.85719e-07
6.90696e-07
6.96813e-07
7.02583e-07
7.09166e-07
7.14025e-07
7.18908e-07
7.22588e-07
7.26068e-07
7.28596e-07
7.30816e-07
7.32256e-07
7.33343e-07
7.33809e-07
7.33788e-07
7.33286e-07
7.32172e-07
7.30746e-07
7.28542e-07
7.26063e-07
7.22641e-07
7.19064e-07
7.14286e-07
7.09563e-07
7.03121e-07
6.97514e-07
6.91519e-07
6.86713e-07
6.8304e-07
6.81584e-07
6.8406e-07
6.89412e-07
7.02103e-07
7.20953e-07
7.48548e-07
7.89588e-07
8.49458e-07
9.25194e-07
9.95543e-07
8.20416e-07
7.62382e-07
6.99663e-07
6.50359e-07
6.17621e-07
5.95327e-07
5.80442e-07
5.70361e-07
5.66403e-07
5.64765e-07
5.66362e-07
5.6974e-07
5.74048e-07
5.79279e-07
5.84183e-07
5.8977e-07
5.93884e-07
5.98041e-07
6.01157e-07
6.04099e-07
6.06235e-07
6.08115e-07
6.09336e-07
6.1026e-07
6.10659e-07
6.10642e-07
6.10215e-07
6.0927e-07
6.08061e-07
6.06195e-07
6.04099e-07
6.01206e-07
5.98174e-07
5.94106e-07
5.90088e-07
5.84646e-07
5.79863e-07
5.74732e-07
5.7056e-07
5.67306e-07
5.65828e-07
5.67576e-07
5.71638e-07
5.8179e-07
5.96846e-07
6.19134e-07
6.52302e-07
7.00965e-07
7.63685e-07
8.21816e-07
6.73248e-07
6.26125e-07
5.75815e-07
5.35419e-07
5.09562e-07
4.91994e-07
4.80407e-07
4.72472e-07
4.69583e-07
4.68531e-07
4.70096e-07
4.73068e-07
4.76777e-07
4.81226e-07
4.85356e-07
4.90085e-07
4.93535e-07
4.97044e-07
4.99669e-07
5.02138e-07
5.03934e-07
5.05514e-07
5.06543e-07
5.07323e-07
5.07663e-07
5.07649e-07
5.07288e-07
5.06492e-07
5.05473e-07
5.03905e-07
5.02143e-07
4.99714e-07
4.97158e-07
4.93722e-07
4.90328e-07
4.85758e-07
4.81703e-07
4.7734e-07
4.73736e-07
4.70863e-07
4.69393e-07
4.70532e-07
4.73504e-07
4.81497e-07
4.93214e-07
5.10777e-07
5.36958e-07
5.76928e-07
6.27172e-07
6.74359e-07
5.50204e-07
5.13467e-07
4.73565e-07
4.41491e-07
4.21268e-07
4.07507e-07
3.98651e-07
3.92556e-07
3.90551e-07
3.89981e-07
3.915e-07
3.94115e-07
3.97303e-07
4.01079e-07
4.04553e-07
4.0853e-07
4.1142e-07
4.14368e-07
4.16575e-07
4.18639e-07
4.20145e-07
4.21468e-07
4.22334e-07
4.22991e-07
4.23279e-07
4.23269e-07
4.22964e-07
4.22296e-07
4.21438e-07
4.20125e-07
4.18647e-07
4.16615e-07
4.14464e-07
4.11576e-07
4.0872e-07
4.04891e-07
4.01465e-07
3.97762e-07
3.94653e-07
3.92115e-07
3.90671e-07
3.9131e-07
3.93379e-07
3.9952e-07
4.08474e-07
4.22227e-07
4.42685e-07
4.74479e-07
5.14297e-07
5.51086e-07
4.51182e-07
4.22324e-07
3.90883e-07
3.66249e-07
3.5057e-07
3.39878e-07
3.33229e-07
3.28677e-07
3.27387e-07
3.27208e-07
3.28677e-07
3.3099e-07
3.33739e-07
3.36956e-07
3.39892e-07
3.4322e-07
3.45657e-07
3.48135e-07
3.49995e-07
3.51724e-07
3.5299e-07
3.54099e-07
3.5483e-07
3.55384e-07
3.5563e-07
3.55622e-07
3.55364e-07
3.54802e-07
3.54079e-07
3.52978e-07
3.51734e-07
3.50031e-07
3.48216e-07
3.45787e-07
3.43375e-07
3.40169e-07
3.37264e-07
3.34112e-07
3.31419e-07
3.29166e-07
3.27755e-07
3.27987e-07
3.29327e-07
3.33914e-07
3.40635e-07
3.51325e-07
3.67155e-07
3.91596e-07
4.22981e-07
4.51869e-07
3.72669e-07
3.50195e-07
3.25777e-07
3.07035e-07
2.95023e-07
2.86857e-07
2.81942e-07
2.78654e-07
2.77929e-07
2.78061e-07
2.79483e-07
2.8155e-07
2.83951e-07
2.86701e-07
2.89219e-07
2.92005e-07
2.94088e-07
2.96183e-07
2.97765e-07
2.99224e-07
3.00299e-07
3.01236e-07
3.0186e-07
3.0233e-07
3.02542e-07
3.02537e-07
3.02316e-07
3.0184e-07
3.01223e-07
3.00294e-07
2.99237e-07
2.97799e-07
2.96252e-07
2.94196e-07
2.92142e-07
2.89434e-07
2.86954e-07
2.84245e-07
2.81891e-07
2.79871e-07
2.78493e-07
2.78401e-07
2.79163e-07
2.82477e-07
2.87445e-07
2.95613e-07
3.07715e-07
3.26296e-07
3.50711e-07
3.73213e-07
3.11784e-07
2.94278e-07
2.75492e-07
2.61305e-07
2.52175e-07
2.45964e-07
2.42369e-07
2.40021e-07
2.39721e-07
2.40094e-07
2.41486e-07
2.43376e-07
2.45526e-07
2.47936e-07
2.50151e-07
2.52548e-07
2.54356e-07
2.56151e-07
2.57517e-07
2.58766e-07
2.59693e-07
2.60495e-07
2.61035e-07
2.6144e-07
2.61627e-07
2.61623e-07
2.61431e-07
2.61022e-07
2.60488e-07
2.59692e-07
2.5878e-07
2.57548e-07
2.5621e-07
2.54447e-07
2.52669e-07
2.50327e-07
2.48154e-07
2.45759e-07
2.43653e-07
2.41799e-07
2.40441e-07
2.40099e-07
2.40427e-07
2.42794e-07
2.46428e-07
2.52634e-07
2.61813e-07
2.75934e-07
2.94564e-07
3.12249e-07
2.64778e-07
2.51455e-07
2.37195e-07
2.26451e-07
2.19528e-07
2.14852e-07
2.12283e-07
2.10685e-07
2.10707e-07
2.11259e-07
2.12614e-07
2.14354e-07
2.16292e-07
2.18421e-07
2.20381e-07
2.22461e-07
2.24054e-07
2.25619e-07
2.2682e-07
2.27909e-07
2.28724e-07
2.29424e-07
2.299e-07
2.30255e-07
2.30422e-07
2.3042e-07
2.30249e-07
2.29892e-07
2.29421e-07
2.28727e-07
2.27924e-07
2.2685e-07
2.25671e-07
2.24133e-07
2.22567e-07
2.20526e-07
2.18603e-07
2.16483e-07
2.14578e-07
2.12868e-07
2.11539e-07
2.1101e-07
2.11007e-07
2.1262e-07
2.15216e-07
2.19887e-07
2.26832e-07
2.3755e-07
2.51515e-07
2.6526e-07
2.29539e-07
2.19422e-07
2.08116e-07
2.00027e-07
1.94717e-07
1.912e-07
1.89371e-07
1.88331e-07
1.88583e-07
1.89259e-07
1.90577e-07
1.92195e-07
1.93967e-07
1.95881e-07
1.97643e-07
1.99482e-07
2.0091e-07
2.02298e-07
2.03373e-07
2.0434e-07
2.0507e-07
2.05692e-07
2.0612e-07
2.06437e-07
2.06588e-07
2.06587e-07
2.06433e-07
2.06115e-07
2.05692e-07
2.05075e-07
2.04356e-07
2.03401e-07
2.02345e-07
2.0098e-07
1.99576e-07
1.97767e-07
1.96037e-07
1.94126e-07
1.92381e-07
1.90786e-07
1.89488e-07
1.8883e-07
1.88592e-07
1.89642e-07
1.9149e-07
1.95001e-07
2.00314e-07
2.08398e-07
2.19521e-07
2.29836e-07
2.029e-07
1.95045e-07
1.85984e-07
1.79813e-07
1.75683e-07
1.73015e-07
1.71735e-07
1.71086e-07
1.71492e-07
1.72245e-07
1.73521e-07
1.75035e-07
1.76673e-07
1.78414e-07
1.8002e-07
1.81667e-07
1.82965e-07
1.84216e-07
1.85191e-07
1.86062e-07
1.86726e-07
1.87287e-07
1.87677e-07
1.87964e-07
1.88104e-07
1.88103e-07
1.87963e-07
1.87675e-07
1.8729e-07
1.86733e-07
1.86079e-07
1.85218e-07
1.84258e-07
1.83029e-07
1.81754e-07
1.80126e-07
1.78553e-07
1.76806e-07
1.75194e-07
1.73698e-07
1.72438e-07
1.71699e-07
1.71303e-07
1.71958e-07
1.73251e-07
1.75912e-07
1.80034e-07
1.8621e-07
1.95157e-07
2.03085e-07
1.82492e-07
1.76118e-07
1.68882e-07
1.6403e-07
1.60755e-07
1.58714e-07
1.57818e-07
1.57442e-07
1.57944e-07
1.58734e-07
1.59961e-07
1.6138e-07
1.62899e-07
1.64497e-07
1.65971e-07
1.67462e-07
1.68651e-07
1.69789e-07
1.70681e-07
1.71476e-07
1.72084e-07
1.72596e-07
1.72954e-07
1.73217e-07
1.73346e-07
1.73346e-07
1.73216e-07
1.72954e-07
1.726e-07
1.72093e-07
1.71492e-07
1.70707e-07
1.69828e-07
1.6871e-07
1.67543e-07
1.66065e-07
1.64624e-07
1.63014e-07
1.61517e-07
1.60115e-07
1.58901e-07
1.58122e-07
1.57627e-07
1.58008e-07
1.58912e-07
1.60943e-07
1.64206e-07
1.69062e-07
1.76232e-07
1.82612e-07
1.66432e-07
1.61046e-07
1.55066e-07
1.51287e-07
1.48643e-07
1.47034e-07
1.46402e-07
1.46209e-07
1.46761e-07
1.47557e-07
1.48726e-07
1.50051e-07
1.51462e-07
1.52933e-07
1.54289e-07
1.55646e-07
1.56741e-07
1.57781e-07
1.586e-07
1.59328e-07
1.59888e-07
1.60357e-07
1.60688e-07
1.6093e-07
1.6105e-07
1.6105e-07
1.6093e-07
1.60689e-07
1.60363e-07
1.59897e-07
1.59345e-07
1.58626e-07
1.57817e-07
1.56795e-07
1.55723e-07
1.54375e-07
1.53049e-07
1.51565e-07
1.50174e-07
1.48862e-07
1.47705e-07
1.46918e-07
1.46371e-07
1.46567e-07
1.47204e-07
1.48802e-07
1.51434e-07
1.55211e-07
1.61158e-07
1.66515e-07
1.53114e-07
1.48475e-07
1.43489e-07
1.40455e-07
1.38271e-07
1.36976e-07
1.36524e-07
1.36449e-07
1.37018e-07
1.37795e-07
1.38897e-07
1.40129e-07
1.41435e-07
1.42788e-07
1.44034e-07
1.45271e-07
1.46277e-07
1.4723e-07
1.47981e-07
1.48648e-07
1.49164e-07
1.49595e-07
1.49899e-07
1.50122e-07
1.50233e-07
1.50233e-07
1.50123e-07
1.49901e-07
1.496e-07
1.49174e-07
1.48664e-07
1.48005e-07
1.47263e-07
1.46328e-07
1.45343e-07
1.44113e-07
1.42893e-07
1.4153e-07
1.4024e-07
1.3902e-07
1.37928e-07
1.3716e-07
1.36593e-07
1.36671e-07
1.37126e-07
1.38411e-07
1.40581e-07
1.43609e-07
1.4858e-07
1.53177e-07
1.41415e-07
1.37373e-07
1.33226e-07
1.30688e-07
1.28871e-07
1.278e-07
1.27471e-07
1.27471e-07
1.28033e-07
1.28774e-07
1.29802e-07
1.30938e-07
1.32141e-07
1.33379e-07
1.34521e-07
1.35644e-07
1.36565e-07
1.37436e-07
1.38122e-07
1.38731e-07
1.39204e-07
1.39599e-07
1.39878e-07
1.40083e-07
1.40185e-07
1.40186e-07
1.40084e-07
1.3988e-07
1.39605e-07
1.39214e-07
1.38747e-07
1.38145e-07
1.37467e-07
1.36613e-07
1.35712e-07
1.34594e-07
1.33476e-07
1.32229e-07
1.31041e-07
1.29915e-07
1.28896e-07
1.28163e-07
1.27601e-07
1.27604e-07
1.27934e-07
1.28989e-07
1.30807e-07
1.33334e-07
1.37472e-07
1.41467e-07
1.30637e-07
1.2716e-07
1.23621e-07
1.21496e-07
1.19974e-07
1.19081e-07
1.18841e-07
1.18888e-07
1.19431e-07
1.20126e-07
1.21075e-07
1.22116e-07
1.23217e-07
1.24343e-07
1.25381e-07
1.26396e-07
1.27233e-07
1.28027e-07
1.28649e-07
1.29202e-07
1.29633e-07
1.29992e-07
1.30247e-07
1.30434e-07
1.30528e-07
1.30528e-07
1.30435e-07
1.30249e-07
1.29998e-07
1.29643e-07
1.29217e-07
1.28671e-07
1.28055e-07
1.27278e-07
1.2646e-07
1.25449e-07
1.24431e-07
1.23299e-07
1.2221e-07
1.21179e-07
1.20238e-07
1.1955e-07
1.19007e-07
1.18962e-07
1.19202e-07
1.20076e-07
1.21608e-07
1.23717e-07
1.27246e-07
1.30691e-07
1.20609e-07
1.17629e-07
1.14567e-07
1.12813e-07
1.11535e-07
1.10794e-07
1.10624e-07
1.10708e-07
1.11225e-07
1.11872e-07
1.12744e-07
1.13692e-07
1.14694e-07
1.15713e-07
1.16653e-07
1.17567e-07
1.18323e-07
1.19044e-07
1.19604e-07
1.20104e-07
1.20495e-07
1.2082e-07
1.21051e-07
1.21221e-07
1.21307e-07
1.21307e-07
1.21222e-07
1.21054e-07
1.20826e-07
1.20504e-07
1.20118e-07
1.19625e-07
1.19071e-07
1.18365e-07
1.17626e-07
1.16717e-07
1.15793e-07
1.14771e-07
1.13778e-07
1.12839e-07
1.11974e-07
1.11334e-07
1.10816e-07
1.10735e-07
1.10905e-07
1.11625e-07
1.12919e-07
1.1465e-07
1.1771e-07
1.20661e-07
1.1175e-07
1.09176e-07
1.06546e-07
1.0509e-07
1.04017e-07
1.03408e-07
1.03295e-07
1.0341e-07
1.03902e-07
1.04508e-07
1.05311e-07
1.06178e-07
1.07093e-07
1.08017e-07
1.08871e-07
1.09695e-07
1.1038e-07
1.11039e-07
1.11543e-07
1.11995e-07
1.1235e-07
1.12646e-07
1.12856e-07
1.13011e-07
1.13089e-07
1.1309e-07
1.13012e-07
1.12859e-07
1.12651e-07
1.12359e-07
1.12009e-07
1.11562e-07
1.11064e-07
1.10418e-07
1.0975e-07
1.0893e-07
1.0809e-07
1.07164e-07
1.06257e-07
1.05397e-07
1.04601e-07
1.04002e-07
1.03509e-07
1.03396e-07
1.03508e-07
1.0409e-07
1.05195e-07
1.06629e-07
1.09245e-07
1.11799e-07
1.05437e-07
1.03193e-07
1.00799e-07
9.95907e-08
9.86622e-08
9.81524e-08
9.80812e-08
9.82221e-08
9.86974e-08
9.92757e-08
1.0003e-07
1.00841e-07
1.01695e-07
1.02554e-07
1.03347e-07
1.04109e-07
1.04742e-07
1.05359e-07
1.05823e-07
1.06242e-07
1.06572e-07
1.06846e-07
1.07041e-07
1.07185e-07
1.07258e-07
1.07259e-07
1.07187e-07
1.07044e-07
1.06851e-07
1.0658e-07
1.06255e-07
1.05841e-07
1.05385e-07
1.04775e-07
1.0416e-07
1.03402e-07
1.02621e-07
1.01762e-07
1.00915e-07
1.00111e-07
9.93618e-08
9.87894e-08
9.83138e-08
9.81741e-08
9.82448e-08
9.87068e-08
9.97098e-08
1.0088e-07
1.03254e-07
1.05482e-07
)
;

boundaryField
{
    fuel
    {
        type            fixedValue;
        value           nonuniform 0();
    }
    wall
    {
        type            zeroGradient;
    }
    outlet
    {
        type            zeroGradient;
    }
    frontAndBack
    {
        type            empty;
    }
    procBoundary3to2
    {
        type            processor;
        value           nonuniform List<scalar> 
51
(
1.11376e-05
1.11707e-05
1.12206e-05
1.12714e-05
1.13334e-05
1.13793e-05
1.1428e-05
1.14643e-05
1.14973e-05
1.15227e-05
1.15427e-05
1.15563e-05
1.15657e-05
1.15698e-05
1.15695e-05
1.15648e-05
1.15549e-05
1.15414e-05
1.15214e-05
1.14965e-05
1.1464e-05
1.14286e-05
1.1381e-05
1.13367e-05
1.12766e-05
1.12276e-05
1.11793e-05
1.11479e-05
1.1136e-05
1.11586e-05
1.12271e-05
1.13553e-05
1.15412e-05
1.18151e-05
1.22139e-05
1.27953e-05
1.35013e-05
1.44272e-05
1.51144e-05
1.39579e-05
1.33104e-05
1.24277e-05
1.17691e-05
1.12315e-05
1.0853e-05
1.06079e-05
1.04361e-05
1.03197e-05
1.02572e-05
1.02382e-05
1.02382e-05
)
;
    }
}


// ************************************************************************* //
