/*--------------------------------*- C++ -*----------------------------------*\
| =========                 |                                                 |
| \\      /  F ield         | OpenFOAM: The Open Source CFD Toolbox           |
|  \\    /   O peration     | Version:  dev                                   |
|   \\  /    A nd           | Web:      www.OpenFOAM.org                      |
|    \\/     M anipulation  |                                                 |
\*---------------------------------------------------------------------------*/
FoamFile
{
    version     2.0;
    format      ascii;
    class       volScalarField;
    location    "0.02";
    object      CH3;
}
// * * * * * * * * * * * * * * * * * * * * * * * * * * * * * * * * * * * * * //

dimensions      [0 0 0 0 0 0 0];

internalField   nonuniform List<scalar> 
250
(
0.000613099
0.000613096
0.000613024
0.000613143
0.00061331
0.000613477
0.000613565
0.000613661
0.000615616
0.000633678
1.04311e-06
0.000485187
0.000485188
0.0004852
0.000485223
0.000485335
0.00048549
0.000485771
0.000485647
0.000487184
0.00050129
1.15108e-06
0.000360352
0.000360349
0.000360387
0.000360213
0.000360292
0.000360519
0.000360387
0.000360468
0.000361115
0.000373402
1.0799e-06
0.000269082
0.000269077
0.00026912
0.000269019
0.00026905
0.000269045
0.000268896
0.000269025
0.000269107
0.000283116
1.04706e-06
0.000208916
0.000208913
0.000208933
0.000208791
0.0002087
0.000208474
0.000208088
0.000208329
0.000207499
0.000224667
1.16477e-06
0.000169576
0.000169555
0.000169666
0.00016957
0.000169819
0.000169885
0.000169577
0.000169711
0.000168861
0.000187554
2.17617e-06
0.000146185
0.000146167
0.000146252
0.000146107
0.000146291
0.000146176
0.000145788
0.000145797
0.000144881
0.000162981
9.57506e-06
0.000131739
0.000131722
0.000131786
0.000131595
0.000131782
0.000131489
0.000131042
0.000130853
0.000128988
0.000145516
5.01472e-05
0.000122784
0.000122767
0.000122813
0.000122573
0.000122544
0.000122356
0.000121809
0.000121377
0.000119413
0.000132077
0.000113049
0.000116304
0.000116288
0.000116308
0.000116013
0.000116063
0.00011577
0.000115478
0.000115018
0.000112535
0.000120998
0.000152455
0.000112392
0.00011239
0.000112022
0.000111611
0.000111245
0.000110869
0.000110194
0.000107486
0.000111579
0.000156933
0.000109355
0.00010939
0.000109072
0.000108691
0.000107832
0.000107386
0.000106724
0.000103612
0.000103445
0.00014628
0.000106828
0.000106847
0.000106463
0.000106107
0.000105348
0.000104473
0.000104018
0.000100361
9.67515e-05
0.000132847
0.000104639
0.000104647
0.000104194
0.000103791
0.000102981
0.000102134
0.000101344
9.77835e-05
9.08365e-05
0.000119807
0.000102609
0.000102608
0.000102082
0.000101618
0.000100618
9.98731e-05
9.90335e-05
9.53933e-05
8.56432e-05
0.000107807
0.000100635
0.000100624
0.00010002
9.94812e-05
9.85278e-05
9.74335e-05
9.65804e-05
9.29222e-05
8.19068e-05
9.59183e-05
9.86498e-05
9.863e-05
9.79405e-05
9.73107e-05
9.63552e-05
9.51824e-05
9.42746e-05
9.06324e-05
7.84994e-05
8.48815e-05
9.66105e-05
9.65809e-05
9.57971e-05
9.50551e-05
9.39197e-05
9.28529e-05
9.19124e-05
8.83344e-05
7.55616e-05
7.48571e-05
9.4482e-05
9.44418e-05
9.35531e-05
9.26706e-05
9.15866e-05
9.04268e-05
8.94605e-05
8.59943e-05
7.3358e-05
6.62443e-05
9.22327e-05
9.21808e-05
9.11744e-05
9.01074e-05
8.91311e-05
8.7868e-05
8.68889e-05
8.35789e-05
7.14273e-05
5.92714e-05
8.98306e-05
8.97654e-05
8.86257e-05
8.76652e-05
8.65249e-05
8.51502e-05
8.41686e-05
8.10556e-05
6.96627e-05
5.39548e-05
8.72412e-05
8.71602e-05
8.58639e-05
8.49098e-05
8.37347e-05
8.22447e-05
8.12698e-05
7.83906e-05
6.79689e-05
5.01389e-05
8.44256e-05
8.43252e-05
8.28355e-05
8.20549e-05
8.07388e-05
7.91208e-05
7.81624e-05
7.55491e-05
6.62604e-05
4.75646e-05
8.13391e-05
8.1214e-05
7.98557e-05
7.89336e-05
7.75056e-05
7.57455e-05
7.4818e-05
7.24306e-05
6.44603e-05
4.59318e-05
)
;

boundaryField
{
    fuel
    {
        type            fixedValue;
        value           uniform 0;
    }
    wall
    {
        type            zeroGradient;
    }
    outlet
    {
        type            zeroGradient;
    }
    frontAndBack
    {
        type            empty;
    }
    procBoundary3to0
    {
        type            processor;
        value           nonuniform List<scalar> 10(7.7928e-05 7.77675e-05 7.66153e-05 7.55341e-05 7.40005e-05 7.20879e-05 7.12194e-05 6.91353e-05 6.25054e-05 4.4962e-05);
    }
    procBoundary3to2
    {
        type            processor;
        value           nonuniform List<scalar> 
25
(
0.000613127
0.000485227
0.000360395
0.00026912
0.000208928
0.000169663
0.000146246
0.000131776
0.0001228
0.000116291
0.000112408
0.000112408
0.000109376
0.000106848
0.00010466
0.000102632
0.000100658
9.86738e-05
9.66352e-05
9.45072e-05
9.22583e-05
8.98564e-05
8.72668e-05
8.44507e-05
8.13632e-05
)
;
    }
}


// ************************************************************************* //
