/*--------------------------------*- C++ -*----------------------------------*\
| =========                 |                                                 |
| \\      /  F ield         | OpenFOAM: The Open Source CFD Toolbox           |
|  \\    /   O peration     | Version:  dev                                   |
|   \\  /    A nd           | Web:      www.OpenFOAM.org                      |
|    \\/     M anipulation  |                                                 |
\*---------------------------------------------------------------------------*/
FoamFile
{
    version     2.0;
    format      ascii;
    class       volScalarField;
    location    "0.02";
    object      CO;
}
// * * * * * * * * * * * * * * * * * * * * * * * * * * * * * * * * * * * * * //

dimensions      [0 0 0 0 0 0 0];

internalField   nonuniform List<scalar> 
1989
(
0.146672
0.14681
0.146965
0.147112
0.147282
0.147402
0.147527
0.147622
0.147704
0.147769
0.14782
0.147856
0.147881
0.147892
0.147892
0.14788
0.147855
0.147819
0.147768
0.147705
0.147624
0.147532
0.147409
0.147294
0.147126
0.146984
0.146833
0.146699
0.146588
0.146522
0.146521
0.146602
0.146769
0.147041
0.147473
0.14809
0.148848
0.149826
0.150559
0.149209
0.148469
0.147428
0.146663
0.146024
0.145584
0.145312
0.145145
0.145068
0.145068
0.145137
0.145253
0.145392
0.145549
0.145697
0.145869
0.14599
0.146117
0.146214
0.146297
0.146362
0.146414
0.14645
0.146475
0.146487
0.146486
0.146474
0.146449
0.146413
0.146362
0.146298
0.146216
0.146122
0.145998
0.145882
0.145712
0.145568
0.145415
0.14528
0.145167
0.145101
0.1451
0.145183
0.145352
0.145629
0.146069
0.146698
0.147473
0.148489
0.149241
0.147847
0.147081
0.14601
0.145225
0.144573
0.144129
0.143847
0.143673
0.143594
0.143602
0.143672
0.14379
0.14393
0.144088
0.144239
0.144413
0.144535
0.144663
0.144761
0.144845
0.144911
0.144963
0.145
0.145025
0.145037
0.145036
0.145024
0.144998
0.144962
0.14491
0.144846
0.144764
0.144669
0.144543
0.144426
0.144253
0.144109
0.143954
0.143817
0.143703
0.143636
0.143635
0.14371
0.143886
0.144175
0.144619
0.145262
0.146056
0.147102
0.14788
0.146441
0.14564
0.144549
0.143742
0.143079
0.142632
0.142339
0.142163
0.142085
0.142088
0.142157
0.142273
0.142413
0.142571
0.142721
0.142896
0.143018
0.143148
0.143246
0.14333
0.143396
0.143449
0.143485
0.143511
0.143522
0.143522
0.14351
0.143484
0.143448
0.143396
0.143332
0.143249
0.143154
0.143027
0.142909
0.142736
0.142591
0.142437
0.142301
0.142188
0.142122
0.142124
0.142202
0.142379
0.142679
0.143126
0.143781
0.144595
0.145662
0.146475
0.144974
0.144151
0.143035
0.142192
0.141517
0.141065
0.140754
0.140577
0.140497
0.140499
0.140569
0.140685
0.140827
0.140986
0.141138
0.141314
0.141437
0.141568
0.141668
0.141752
0.141818
0.141871
0.141908
0.141934
0.141945
0.141945
0.141933
0.141907
0.14187
0.141818
0.141753
0.14167
0.141574
0.141446
0.141327
0.141153
0.141007
0.140852
0.140714
0.1406
0.140534
0.140536
0.140616
0.140795
0.141112
0.141566
0.142233
0.143081
0.144177
0.145011
0.143423
0.142574
0.141447
0.140576
0.139897
0.139444
0.139153
0.138975
0.138896
0.138898
0.138968
0.139086
0.139228
0.139389
0.139541
0.139719
0.139843
0.139976
0.140076
0.140161
0.140227
0.140281
0.140318
0.140344
0.140355
0.140355
0.140343
0.140317
0.14028
0.140227
0.140163
0.140079
0.139982
0.139852
0.139732
0.139557
0.13941
0.139254
0.139116
0.139
0.138933
0.138935
0.139016
0.139195
0.139492
0.139947
0.140619
0.141493
0.142603
0.143461
0.141814
0.140946
0.139814
0.138911
0.138271
0.13781
0.137499
0.137314
0.137227
0.137226
0.137295
0.137414
0.137557
0.13772
0.137874
0.138055
0.138182
0.138318
0.13842
0.138508
0.138575
0.13863
0.138668
0.138694
0.138706
0.138705
0.138693
0.138666
0.138629
0.138575
0.138509
0.138423
0.138324
0.138192
0.138069
0.137891
0.137742
0.137584
0.137444
0.137329
0.137263
0.137268
0.137356
0.137542
0.137859
0.138321
0.138956
0.139858
0.140977
0.141853
0.140152
0.139261
0.138134
0.137238
0.136587
0.136127
0.135808
0.135621
0.135534
0.135532
0.135602
0.135722
0.135866
0.13603
0.136184
0.136367
0.136495
0.136632
0.136735
0.136823
0.136891
0.136946
0.136984
0.13701
0.137022
0.137022
0.137009
0.136982
0.136945
0.136891
0.136825
0.136738
0.136639
0.136505
0.136381
0.136202
0.136052
0.135893
0.135753
0.135637
0.13557
0.135575
0.135664
0.135852
0.136177
0.136639
0.137285
0.138178
0.139295
0.140191
0.13844
0.137571
0.136438
0.135524
0.134868
0.134392
0.134051
0.133857
0.133766
0.133762
0.133833
0.133953
0.134098
0.134264
0.13442
0.134605
0.134736
0.134876
0.13498
0.135069
0.135138
0.135194
0.135232
0.135259
0.135271
0.135271
0.135258
0.135231
0.135193
0.135138
0.135071
0.134983
0.134883
0.134747
0.134619
0.134438
0.134287
0.134127
0.133985
0.133868
0.133801
0.133808
0.133902
0.134098
0.134444
0.13492
0.135572
0.136482
0.137607
0.138478
0.136721
0.135832
0.134687
0.133737
0.133067
0.132577
0.132235
0.132037
0.131944
0.131941
0.132012
0.132133
0.132278
0.132445
0.132601
0.132786
0.132921
0.13306
0.133164
0.133254
0.133323
0.133379
0.133418
0.133445
0.133457
0.133456
0.133444
0.133416
0.133378
0.133323
0.133256
0.133168
0.133068
0.132933
0.132801
0.13262
0.132469
0.132307
0.132166
0.132048
0.131981
0.131988
0.132083
0.132282
0.132629
0.133119
0.133789
0.134731
0.13587
0.136759
0.134943
0.134014
0.132846
0.131891
0.131215
0.130749
0.130408
0.130205
0.130111
0.130107
0.130179
0.1303
0.130446
0.130614
0.13077
0.130956
0.131095
0.131233
0.131337
0.131427
0.131496
0.131552
0.131591
0.131618
0.13163
0.13163
0.131617
0.131589
0.131552
0.131496
0.131429
0.131341
0.131241
0.131107
0.130971
0.130789
0.130638
0.130476
0.130334
0.130216
0.130148
0.130155
0.130252
0.130456
0.130802
0.131269
0.131946
0.132888
0.134054
0.134982
0.133079
0.132132
0.130996
0.13003
0.129352
0.12886
0.128513
0.128302
0.128204
0.1282
0.128272
0.128394
0.128541
0.12871
0.128868
0.129054
0.129201
0.129338
0.129442
0.129534
0.129603
0.12966
0.129699
0.129727
0.129739
0.129739
0.129726
0.129698
0.12966
0.129603
0.129536
0.129447
0.129346
0.129213
0.12907
0.128887
0.128734
0.128571
0.128428
0.12831
0.128242
0.12825
0.128351
0.128563
0.128915
0.129406
0.130089
0.131035
0.132174
0.133119
0.131206
0.130241
0.129081
0.12809
0.127407
0.12694
0.126594
0.12638
0.12628
0.126275
0.126348
0.12647
0.126617
0.126786
0.126945
0.12713
0.127246
0.12738
0.127484
0.127575
0.127644
0.127701
0.127741
0.127768
0.12778
0.12778
0.127767
0.127739
0.127701
0.127645
0.127577
0.127488
0.127388
0.127257
0.127146
0.126965
0.126812
0.126648
0.126505
0.126387
0.126318
0.126326
0.126429
0.126645
0.126996
0.127461
0.128147
0.129125
0.130285
0.131247
0.129272
0.128266
0.127132
0.126129
0.12545
0.124976
0.12463
0.124414
0.124311
0.124306
0.124379
0.124501
0.124649
0.124818
0.124977
0.125161
0.125282
0.125414
0.125516
0.125608
0.125677
0.125734
0.125773
0.125801
0.125813
0.125813
0.1258
0.125772
0.125734
0.125677
0.12561
0.125521
0.125422
0.125293
0.125178
0.124997
0.124844
0.12468
0.124537
0.124419
0.12435
0.124359
0.124465
0.124682
0.125032
0.125505
0.126185
0.127179
0.128311
0.129316
0.127303
0.126273
0.125141
0.124117
0.123425
0.122937
0.122585
0.122367
0.122299
0.122294
0.122367
0.12249
0.122637
0.122806
0.122966
0.123148
0.123273
0.123403
0.123505
0.123596
0.123665
0.123722
0.123761
0.123789
0.123801
0.123801
0.123788
0.12376
0.123722
0.123666
0.123599
0.12351
0.123411
0.123285
0.123165
0.122986
0.122833
0.122669
0.122526
0.122408
0.122339
0.122347
0.122418
0.122639
0.122995
0.123482
0.124173
0.125189
0.126319
0.127348
0.125275
0.124233
0.123095
0.122066
0.121374
0.120886
0.120533
0.120314
0.120245
0.12024
0.120313
0.120435
0.120582
0.120751
0.120911
0.121091
0.12122
0.121349
0.12145
0.121541
0.121609
0.121667
0.121706
0.121733
0.121746
0.121745
0.121733
0.121705
0.121667
0.12161
0.121544
0.121455
0.121357
0.121232
0.12111
0.120932
0.120779
0.120615
0.120473
0.120355
0.120286
0.120294
0.120367
0.120588
0.120945
0.121431
0.122123
0.123145
0.124281
0.125322
0.123202
0.122152
0.120997
0.119976
0.119282
0.118794
0.11844
0.11822
0.11815
0.118145
0.118218
0.11834
0.118486
0.118655
0.118815
0.118993
0.119124
0.119252
0.119352
0.119443
0.119511
0.119569
0.119608
0.119635
0.119648
0.119647
0.119635
0.119607
0.119569
0.119513
0.119446
0.119358
0.119261
0.119136
0.119012
0.118837
0.118683
0.118519
0.118378
0.118261
0.118191
0.1182
0.118274
0.118495
0.118854
0.119341
0.120033
0.121048
0.122201
0.12325
0.121086
0.120024
0.118848
0.117848
0.117148
0.11666
0.116308
0.116086
0.116016
0.116011
0.116084
0.116205
0.116351
0.116519
0.116679
0.116855
0.116986
0.117114
0.117214
0.117305
0.117373
0.11743
0.117469
0.117497
0.117509
0.117509
0.117496
0.117468
0.117431
0.117374
0.117308
0.11722
0.117124
0.116999
0.116874
0.116701
0.116548
0.116384
0.116243
0.116127
0.116058
0.116067
0.116141
0.116364
0.116721
0.117206
0.117908
0.118901
0.120074
0.121134
0.118926
0.11785
0.11666
0.115674
0.114976
0.114489
0.114137
0.113915
0.113844
0.113839
0.113912
0.114032
0.114177
0.114345
0.114504
0.114679
0.11481
0.114938
0.115038
0.115128
0.115195
0.115253
0.115291
0.115319
0.115331
0.115331
0.115318
0.11529
0.115253
0.115197
0.115132
0.115044
0.114948
0.114824
0.114698
0.114527
0.114374
0.114211
0.114071
0.113956
0.113887
0.113896
0.11397
0.114195
0.11455
0.115034
0.115736
0.116714
0.117902
0.118976
0.116725
0.115635
0.114434
0.113458
0.112754
0.112264
0.111931
0.111708
0.111637
0.111632
0.111705
0.111823
0.111968
0.112135
0.112293
0.112466
0.112597
0.112725
0.112824
0.112914
0.112981
0.113038
0.113076
0.113104
0.113116
0.113116
0.113104
0.113076
0.113039
0.112983
0.112918
0.112831
0.112735
0.112611
0.112486
0.112317
0.112165
0.112002
0.111863
0.111749
0.11168
0.11169
0.111764
0.111989
0.112326
0.112814
0.113522
0.114489
0.115687
0.116776
0.114487
0.113359
0.112174
0.111204
0.110505
0.110023
0.109691
0.109468
0.109395
0.109386
0.10946
0.109581
0.109725
0.109892
0.110049
0.11022
0.110351
0.110478
0.110577
0.110666
0.110733
0.11079
0.110827
0.110855
0.110867
0.110867
0.110855
0.110827
0.110791
0.110735
0.11067
0.110583
0.110488
0.110365
0.11024
0.110074
0.109922
0.109761
0.109621
0.109506
0.109436
0.109449
0.109526
0.10975
0.110086
0.110567
0.11127
0.11223
0.113413
0.114538
0.1122
0.11107
0.10989
0.108908
0.108228
0.107753
0.10742
0.107199
0.107126
0.107117
0.10719
0.107309
0.107453
0.107618
0.107774
0.107943
0.108073
0.1082
0.108298
0.108387
0.108453
0.10851
0.108547
0.108575
0.108587
0.108587
0.108575
0.108547
0.108511
0.108456
0.108392
0.108305
0.108211
0.108088
0.107963
0.107799
0.107649
0.107489
0.107351
0.107237
0.107167
0.10718
0.107257
0.10748
0.107816
0.10829
0.108977
0.109946
0.111124
0.112252
0.109881
0.108747
0.107566
0.106588
0.105927
0.105456
0.105122
0.104903
0.10483
0.104821
0.104894
0.105012
0.105154
0.105318
0.105472
0.105639
0.105768
0.105894
0.105992
0.106081
0.106146
0.106203
0.10624
0.106267
0.106279
0.106279
0.106267
0.10624
0.106204
0.106149
0.106085
0.105999
0.105906
0.105784
0.10566
0.105498
0.10535
0.10519
0.105054
0.104941
0.104873
0.104886
0.104962
0.105183
0.10552
0.10599
0.106661
0.107622
0.108802
0.109934
0.107535
0.106393
0.105209
0.104252
0.103599
0.103133
0.102803
0.102585
0.102513
0.102504
0.102576
0.102692
0.102832
0.102994
0.103147
0.103313
0.10344
0.103565
0.103662
0.10375
0.103816
0.103871
0.103908
0.103936
0.103948
0.103948
0.103936
0.103909
0.103873
0.103818
0.103755
0.10367
0.103577
0.103456
0.103333
0.103174
0.103027
0.102869
0.102734
0.102624
0.102556
0.102569
0.102645
0.102865
0.103198
0.103662
0.104323
0.105269
0.106449
0.107588
0.105155
0.104008
0.102844
0.101888
0.10125
0.100791
0.100468
0.10025
0.100179
0.100169
0.10024
0.100354
0.100493
0.100653
0.100803
0.100968
0.101093
0.101218
0.101314
0.101401
0.101466
0.101521
0.101558
0.101586
0.101597
0.101597
0.101586
0.101559
0.101523
0.101469
0.101407
0.101322
0.10123
0.10111
0.100988
0.100831
0.100686
0.100531
0.100397
0.100289
0.100222
0.100235
0.10031
0.100531
0.100857
0.101313
0.101959
0.102908
0.104065
0.10521
0.102738
0.101602
0.100453
0.0995208
0.0988932
0.0984371
0.0981201
0.0979025
0.0978322
0.0978221
0.0978926
0.0980044
0.0981412
0.0982997
0.0984467
0.0986101
0.0987337
0.0988568
0.0989521
0.0990388
0.0991028
0.099158
0.0991942
0.0992215
0.0992333
0.0992334
0.0992217
0.0991949
0.0991598
0.0991062
0.0990444
0.0989606
0.0988691
0.0987506
0.0986308
0.098476
0.0983331
0.0981796
0.0980482
0.0979413
0.0978755
0.0978896
0.0979634
0.0981833
0.0985029
0.0989567
0.0995908
0.100519
0.101661
0.102793
0.100328
0.0991814
0.0980401
0.0971519
0.0965331
0.0960767
0.0957647
0.0955492
0.0954799
0.0954695
0.0955389
0.0956486
0.0957831
0.0959397
0.0960846
0.0962447
0.0963671
0.0964888
0.0965831
0.096669
0.0967325
0.0967871
0.0968231
0.0968502
0.0968619
0.0968621
0.0968505
0.0968239
0.0967891
0.0967361
0.096675
0.096592
0.0965015
0.0963845
0.0962662
0.0961141
0.0959735
0.0958223
0.0956929
0.0955882
0.0955234
0.0955379
0.0956107
0.0958286
0.096143
0.096597
0.0972213
0.098107
0.0992418
0.100385
0.0979136
0.0967532
0.0956262
0.0947795
0.0941707
0.0937172
0.0934094
0.093197
0.0931289
0.0931182
0.0931865
0.0932939
0.0934264
0.09358
0.0937234
0.0938793
0.0940008
0.094121
0.0942143
0.0942992
0.0943621
0.0944162
0.0944518
0.0944788
0.0944904
0.0944906
0.0944792
0.0944528
0.0944184
0.0943659
0.0943055
0.0942235
0.0941341
0.0940187
0.093902
0.0937526
0.0936146
0.0934656
0.0933386
0.0932363
0.0931727
0.0931874
0.0932591
0.0934738
0.093784
0.094235
0.0948488
0.095693
0.0968146
0.0979732
0.0955047
0.094327
0.0932187
0.0924121
0.0918145
0.0913631
0.0910587
0.0908463
0.0907786
0.0907676
0.0908354
0.0909416
0.0910733
0.0912256
0.0913687
0.0915226
0.0916432
0.0917617
0.0918539
0.0919378
0.0919999
0.0920535
0.0920887
0.0921155
0.0921271
0.0921273
0.092116
0.0920899
0.092056
0.0920041
0.0919444
0.0918635
0.0917752
0.0916615
0.0915462
0.0913983
0.0912613
0.0911128
0.090987
0.090886
0.0908229
0.090838
0.0909092
0.0911241
0.0914308
0.0918789
0.0924816
0.0932891
0.0943823
0.0955697
0.0930719
0.0919081
0.090826
0.0900594
0.0894742
0.0890299
0.0887315
0.0885225
0.0884559
0.0884448
0.0885113
0.088615
0.0887445
0.0888937
0.0890345
0.0891847
0.0893039
0.0894207
0.0895116
0.0895944
0.0896558
0.0897087
0.0897436
0.0897702
0.0897816
0.0897819
0.0897708
0.089745
0.0897114
0.0896602
0.0896013
0.0895216
0.0894345
0.0893227
0.089209
0.0890643
0.0889298
0.0887844
0.0886608
0.0885623
0.0885006
0.0885157
0.0885859
0.0887974
0.0890979
0.0895386
0.0901294
0.0908981
0.0919536
0.0931478
0.0906839
0.0895401
0.0884552
0.0877365
0.0871613
0.086727
0.0864337
0.0862292
0.0861636
0.0861526
0.0862176
0.0863188
0.0864459
0.0865919
0.0867302
0.0868768
0.0869943
0.0871092
0.0871988
0.0872803
0.087341
0.0873933
0.0874277
0.0874541
0.0874655
0.0874658
0.0874548
0.0874293
0.0873962
0.0873457
0.0872875
0.0872091
0.0871233
0.0870136
0.0869017
0.0867604
0.0866284
0.086486
0.086365
0.086269
0.0862087
0.0862238
0.086293
0.0864999
0.0867953
0.0872253
0.0878069
0.0885282
0.0895967
0.0907505
0.0883372
0.0872032
0.0861305
0.0854539
0.0848888
0.0844651
0.0841811
0.0839795
0.0839149
0.083904
0.0839676
0.0840662
0.0841907
0.0843334
0.0844692
0.0846119
0.0847277
0.0848406
0.0849288
0.085009
0.0850689
0.0851204
0.0851545
0.0851806
0.0851919
0.0851922
0.0851815
0.0851562
0.0851236
0.0850738
0.0850165
0.0849394
0.0848551
0.0847474
0.0846374
0.0844996
0.0843705
0.0842311
0.0841127
0.0840193
0.0839605
0.0839754
0.0840436
0.0842476
0.0845336
0.0849524
0.0855248
0.0862043
0.0872664
0.0883991
0.0860492
0.0849068
0.0838749
0.083228
0.0826725
0.0822625
0.0819869
0.0817892
0.0817255
0.0817149
0.0817769
0.0818729
0.0819948
0.0821341
0.0822672
0.0824061
0.08252
0.0826309
0.0827175
0.0827963
0.0828554
0.0829062
0.0829399
0.0829656
0.0829769
0.0829773
0.0829667
0.0829418
0.0829095
0.0828606
0.0828041
0.0827285
0.0826456
0.0825401
0.0824321
0.0822979
0.0821716
0.0820353
0.0819197
0.0818289
0.0817716
0.0817862
0.0818536
0.0820537
0.0823311
0.0827358
0.0832993
0.0839485
0.0849739
0.0861093
0.0838424
0.0826865
0.0816831
0.0810798
0.0805382
0.0801382
0.0798703
0.0796773
0.0796143
0.0796042
0.0796646
0.079758
0.0798772
0.0800131
0.0801434
0.0802784
0.0803904
0.0804992
0.0805842
0.0806616
0.0807198
0.0807698
0.0808031
0.0808286
0.0808397
0.0808402
0.0808297
0.0808052
0.0807734
0.0807253
0.0806697
0.0805955
0.0805142
0.0804109
0.0803049
0.0801744
0.0800508
0.079918
0.079805
0.0797168
0.0796611
0.0796751
0.0797419
0.0799373
0.0802069
0.0806014
0.0811513
0.0817563
0.082756
0.0839019
0.0817178
0.0805732
0.0796062
0.0790326
0.0785039
0.0781158
0.0778551
0.0776675
0.077605
0.0775956
0.0776543
0.0777452
0.0778617
0.0779941
0.0781216
0.0782528
0.0783628
0.0784695
0.0785529
0.0786287
0.0786861
0.0787353
0.0787682
0.0787934
0.0788044
0.078805
0.0787947
0.0787705
0.0787391
0.0786919
0.0786371
0.0785645
0.0784848
0.0783837
0.0782796
0.0781528
0.0780319
0.0779029
0.0777923
0.0777066
0.0776526
0.0776659
0.0777321
0.0779222
0.0781845
0.0785678
0.0791035
0.0796788
0.0806438
0.0817777
0.0797091
0.0785973
0.0776753
0.0771145
0.0766031
0.0762255
0.0759714
0.0757896
0.0757276
0.075719
0.0757761
0.0758645
0.0759784
0.0761073
0.0762321
0.0763596
0.0764675
0.0765723
0.076654
0.0767283
0.0767849
0.0768333
0.0768658
0.0768906
0.0769016
0.0769021
0.076892
0.0768682
0.0768372
0.0767909
0.0767369
0.0766659
0.0765878
0.0764887
0.0763867
0.0762636
0.0761451
0.0760199
0.0759118
0.0758285
0.0757762
0.0757885
0.0758544
0.0760385
0.0762942
0.076666
0.0771865
0.0777478
0.0786682
0.0797692
0.0778667
0.0768127
0.0759107
0.0753685
0.0748733
0.0745073
0.0742591
0.0740836
0.0740219
0.0740144
0.0740697
0.0741559
0.0742673
0.0743928
0.0745149
0.0746388
0.0747447
0.0748478
0.0749278
0.0750006
0.0750564
0.0751039
0.0751361
0.0751606
0.0751715
0.0751721
0.0751621
0.0751386
0.0751081
0.0750626
0.0750094
0.0749399
0.0748634
0.0747661
0.0746661
0.0745466
0.0744305
0.0743089
0.0742032
0.0741221
0.0740714
0.0740826
0.0741483
0.0743261
0.0745759
0.0749359
0.0754408
0.0759826
0.0768815
0.0779294
0.0762636
0.0752648
0.0743682
0.0738521
0.0733707
0.0730167
0.0727738
0.0726046
0.0725432
0.0725367
0.0725905
0.0726746
0.0727837
0.0729061
0.0730257
0.0731464
0.0732503
0.0733521
0.0734303
0.0735017
0.0735567
0.0736035
0.0736353
0.0736596
0.0736703
0.073671
0.0736611
0.0736379
0.0736078
0.0735631
0.0735107
0.0734425
0.0733678
0.0732719
0.0731738
0.0730575
0.0729437
0.0728254
0.0727219
0.0726428
0.0725937
0.0726036
0.0726691
0.0728406
0.0730851
0.0734325
0.0739251
0.074439
0.0753339
0.0763267
0.0749897
0.0740298
0.0731445
0.0726497
0.0721796
0.071837
0.0715984
0.071435
0.0713738
0.0713685
0.0714209
0.0715034
0.0716105
0.0717302
0.0718477
0.0719656
0.0720676
0.0721688
0.0722452
0.0723154
0.0723698
0.0724159
0.0724474
0.0724714
0.0724821
0.0724828
0.072473
0.0724501
0.0724203
0.0723763
0.0723245
0.0722576
0.0721846
0.0720892
0.0719931
0.0718796
0.0717677
0.0716522
0.0715505
0.071473
0.0714252
0.071434
0.0714992
0.071665
0.0719051
0.0722375
0.072726
0.0732172
0.0740971
0.0750524
0.0741953
0.0732734
0.0723679
0.0719035
0.0714411
0.0711069
0.0708714
0.0707122
0.0706512
0.0706468
0.0706983
0.0707797
0.0708854
0.0710033
0.0711194
0.0712354
0.071336
0.071437
0.0715121
0.0715814
0.0716354
0.071681
0.0717122
0.0717361
0.0717467
0.0717474
0.0717377
0.071715
0.0716855
0.0716419
0.0715905
0.0715244
0.0714532
0.0713572
0.0712629
0.0711512
0.0710406
0.070927
0.0708266
0.0707502
0.0707033
0.0707111
0.070776
0.0709375
0.0711746
0.0714873
0.0719902
0.0724423
0.0733393
0.0742573
)
;

boundaryField
{
    fuel
    {
        type            fixedValue;
        value           nonuniform 0();
    }
    wall
    {
        type            zeroGradient;
    }
    outlet
    {
        type            zeroGradient;
    }
    frontAndBack
    {
        type            empty;
    }
    procBoundary3to2
    {
        type            processor;
        value           nonuniform List<scalar> 
51
(
0.148049
0.148185
0.148338
0.148483
0.148651
0.14877
0.148893
0.148987
0.149068
0.149132
0.149183
0.149219
0.149243
0.149254
0.149253
0.149242
0.149217
0.149182
0.149132
0.149069
0.148989
0.148898
0.148777
0.148662
0.148498
0.148356
0.148207
0.148075
0.147965
0.147901
0.147899
0.147979
0.148143
0.14841
0.148831
0.149442
0.150175
0.151125
0.151828
0.150528
0.149806
0.148805
0.148055
0.147432
0.146997
0.146731
0.146566
0.146489
0.14649
0.146558
0.146558
)
;
    }
}


// ************************************************************************* //
