/*--------------------------------*- C++ -*----------------------------------*\
| =========                 |                                                 |
| \\      /  F ield         | OpenFOAM: The Open Source CFD Toolbox           |
|  \\    /   O peration     | Version:  dev                                   |
|   \\  /    A nd           | Web:      www.OpenFOAM.org                      |
|    \\/     M anipulation  |                                                 |
\*---------------------------------------------------------------------------*/
FoamFile
{
    version     2.0;
    format      ascii;
    class       volScalarField;
    location    "0.02";
    object      H2O;
}
// * * * * * * * * * * * * * * * * * * * * * * * * * * * * * * * * * * * * * //

dimensions      [0 0 0 0 0 0 0];

internalField   nonuniform List<scalar> 
1989
(
0.047782
0.0477975
0.0478216
0.0478461
0.0478771
0.0478989
0.0479227
0.0479402
0.0479558
0.0479673
0.0479766
0.0479826
0.0479868
0.0479884
0.0479882
0.0479862
0.0479818
0.0479759
0.0479666
0.0479554
0.0479401
0.0479235
0.0479004
0.0478798
0.0478498
0.0478266
0.0478038
0.0477896
0.0477857
0.0478003
0.0478393
0.0479089
0.0480074
0.0481456
0.0483465
0.04862
0.048964
0.0493845
0.0497188
0.0492653
0.0489307
0.0484866
0.0481417
0.0478607
0.0476569
0.0475197
0.0474207
0.0473526
0.047313
0.0472995
0.0473049
0.0473207
0.0473452
0.0473701
0.0474017
0.0474237
0.0474482
0.047466
0.0474819
0.0474936
0.0475031
0.0475092
0.0475134
0.0475151
0.0475149
0.0475129
0.0475083
0.0475023
0.0474928
0.0474815
0.047466
0.047449
0.0474254
0.0474046
0.0473739
0.0473505
0.0473272
0.0473127
0.0473085
0.0473231
0.0473622
0.0474325
0.047532
0.0476724
0.0478757
0.0481529
0.0485027
0.0489369
0.0492773
0.0488096
0.0484659
0.0480117
0.0476598
0.0473745
0.0471702
0.0470289
0.0469275
0.0468586
0.0468215
0.0468081
0.0468139
0.0468301
0.046855
0.0468803
0.0469124
0.0469347
0.0469597
0.0469779
0.0469941
0.0470059
0.0470155
0.0470217
0.0470261
0.0470278
0.0470276
0.0470255
0.0470209
0.0470148
0.0470052
0.0469937
0.046978
0.0469606
0.0469365
0.0469154
0.0468841
0.0468604
0.0468368
0.0468219
0.0468175
0.046832
0.0468713
0.0469392
0.0470411
0.0471859
0.0473899
0.0476719
0.048028
0.0484722
0.0488221
0.0483401
0.0479832
0.0475231
0.0471632
0.0468744
0.0466702
0.0465242
0.0464225
0.0463535
0.0463148
0.0463008
0.0463057
0.0463216
0.0463464
0.0463717
0.0464038
0.0464262
0.0464516
0.0464699
0.0464861
0.0464979
0.0465076
0.0465138
0.0465181
0.0465198
0.0465196
0.0465176
0.046513
0.0465069
0.0464972
0.0464858
0.0464701
0.0464525
0.0464281
0.0464069
0.0463756
0.046352
0.0463285
0.0463139
0.0463099
0.046325
0.0463657
0.0464345
0.0465367
0.0466861
0.0468902
0.0471762
0.0475392
0.04799
0.048353
0.0478498
0.0474847
0.0470172
0.0466449
0.0463526
0.0461474
0.0459943
0.0458923
0.0458228
0.0457835
0.0457697
0.0457748
0.045791
0.0458161
0.0458417
0.0458742
0.0458969
0.0459227
0.0459414
0.0459578
0.0459697
0.0459795
0.0459858
0.0459902
0.0459918
0.0459916
0.0459896
0.045985
0.0459788
0.045969
0.0459575
0.0459416
0.0459237
0.0458988
0.0458773
0.0458458
0.0458218
0.0457981
0.0457832
0.0457791
0.045794
0.0458349
0.0459047
0.0460072
0.0461635
0.0463689
0.0466586
0.0470332
0.047493
0.0478636
0.0473308
0.0469573
0.0464874
0.0461049
0.0458117
0.0456078
0.0454594
0.0453579
0.0452883
0.0452488
0.0452351
0.0452406
0.045257
0.0452825
0.0453082
0.0453412
0.0453642
0.0453906
0.0454096
0.0454261
0.0454381
0.0454481
0.0454544
0.0454588
0.0454605
0.0454603
0.0454583
0.0454536
0.0454474
0.0454375
0.0454259
0.0454098
0.0453916
0.0453663
0.0453444
0.0453126
0.0452883
0.0452643
0.0452492
0.0452448
0.0452596
0.0453005
0.0453706
0.0454726
0.0456241
0.0458285
0.0461193
0.0465031
0.0469666
0.0473451
0.0467924
0.0464132
0.0459427
0.0455487
0.0452699
0.0450639
0.0449077
0.0448039
0.044732
0.0446911
0.0446772
0.0446828
0.0446996
0.0447257
0.044752
0.044786
0.0448099
0.0448374
0.0448571
0.0448743
0.0448868
0.0448972
0.0449038
0.0449084
0.0449102
0.04491
0.0449079
0.044903
0.0448965
0.0448862
0.0448741
0.0448573
0.0448386
0.0448122
0.0447893
0.0447566
0.0447318
0.0447071
0.0446917
0.0446873
0.0447024
0.0447446
0.0448172
0.0449215
0.0450804
0.045287
0.0455638
0.0459581
0.0464236
0.0468068
0.046236
0.0458503
0.0453835
0.044991
0.0447093
0.044504
0.0443444
0.04424
0.0441678
0.0441269
0.0441132
0.044119
0.0441361
0.0441625
0.0441889
0.0442235
0.0442478
0.0442758
0.0442956
0.0443131
0.0443256
0.0443361
0.0443427
0.0443474
0.0443492
0.044349
0.0443469
0.0443419
0.0443354
0.044325
0.0443129
0.0442959
0.0442771
0.0442503
0.0442268
0.0441938
0.0441688
0.0441438
0.0441282
0.0441235
0.0441385
0.0441807
0.0442537
0.0443585
0.0445208
0.0447269
0.0450067
0.0453987
0.0458616
0.0462503
0.0456633
0.0452858
0.0448183
0.0444201
0.0441373
0.043927
0.04376
0.0436529
0.0435795
0.043538
0.0435243
0.0435304
0.0435479
0.0435749
0.0436019
0.043637
0.0436626
0.0436913
0.0437116
0.0437296
0.0437425
0.0437533
0.0437601
0.043765
0.0437668
0.0437666
0.0437644
0.0437593
0.0437526
0.0437419
0.0437295
0.043712
0.0436927
0.0436652
0.0436406
0.0436068
0.0435814
0.0435559
0.0435399
0.043535
0.0435499
0.0435927
0.0436672
0.0437748
0.0439443
0.0441549
0.0444365
0.0448334
0.045298
0.0456773
0.0450886
0.0447055
0.0442349
0.0438259
0.0435385
0.0433234
0.0431562
0.0430476
0.0429738
0.0429324
0.042919
0.0429252
0.0429429
0.0429701
0.0429973
0.0430326
0.0430594
0.0430881
0.0431084
0.0431265
0.0431394
0.0431503
0.0431572
0.0431621
0.043164
0.0431638
0.0431616
0.0431564
0.0431497
0.0431389
0.0431264
0.0431089
0.0430896
0.0430621
0.0430364
0.0430024
0.0429768
0.0429512
0.042935
0.0429299
0.0429446
0.0429874
0.0430623
0.0431714
0.0433409
0.0435562
0.0438434
0.0442496
0.0447183
0.0451024
0.0444946
0.0440987
0.0436213
0.0432123
0.0429232
0.0427156
0.0425496
0.042439
0.0423648
0.0423234
0.0423102
0.0423167
0.0423345
0.0423621
0.0423894
0.0424249
0.0424532
0.0424816
0.042502
0.0425202
0.0425331
0.0425441
0.042551
0.042556
0.0425579
0.0425577
0.0425555
0.0425503
0.0425435
0.0425326
0.0425201
0.0425025
0.0424832
0.042456
0.0424287
0.0423946
0.0423689
0.042343
0.0423267
0.0423215
0.0423359
0.0423786
0.042454
0.0425651
0.0427334
0.0429411
0.043231
0.0436353
0.0441125
0.0445088
0.0438721
0.0434709
0.0430057
0.0425935
0.0423041
0.0420882
0.0419207
0.0418073
0.0417318
0.0416902
0.0416773
0.0416841
0.0417023
0.0417305
0.0417583
0.0417944
0.0418251
0.0418534
0.0418739
0.0418926
0.0419058
0.0419171
0.0419242
0.0419293
0.0419312
0.041931
0.0419288
0.0419234
0.0419165
0.0419053
0.0418926
0.0418745
0.041855
0.041828
0.0417984
0.0417637
0.0417375
0.0417111
0.0416944
0.0416889
0.0417031
0.0417461
0.0418227
0.0419367
0.0421065
0.0423221
0.0426143
0.0430181
0.0434852
0.0438867
0.043247
0.0428403
0.0423679
0.0419492
0.0416582
0.0414509
0.0412841
0.0411695
0.0410934
0.0410519
0.0410393
0.0410463
0.0410647
0.041093
0.0411211
0.041157
0.0411775
0.0412048
0.0412253
0.041244
0.0412573
0.0412686
0.0412757
0.0412809
0.0412829
0.0412827
0.0412804
0.041275
0.0412681
0.0412569
0.0412441
0.041226
0.0412066
0.0411802
0.0411612
0.0411267
0.0411002
0.0410736
0.0410568
0.0410512
0.0410652
0.041108
0.0411853
0.0413006
0.0414694
0.0416765
0.0419688
0.0423823
0.0428552
0.0432621
0.0426021
0.0421816
0.0417196
0.0412973
0.0410089
0.0407993
0.0406331
0.0405177
0.0404409
0.0403995
0.0403872
0.0403944
0.0404129
0.0404414
0.0404697
0.0405055
0.0405277
0.0405543
0.0405746
0.0405933
0.0406066
0.040618
0.0406252
0.0406304
0.0406323
0.0406322
0.0406299
0.0406245
0.0406175
0.0406063
0.0405935
0.0405753
0.0405561
0.0405304
0.0405099
0.0404754
0.0404488
0.0404221
0.0404051
0.0403993
0.0404131
0.0404558
0.0405339
0.0406499
0.0408181
0.0410274
0.0413164
0.0417351
0.0421972
0.0426179
0.0419457
0.0415169
0.0410576
0.0406284
0.0403367
0.0401233
0.0399554
0.0398393
0.0397744
0.0397333
0.0397213
0.0397286
0.0397472
0.0397758
0.0398043
0.03984
0.0398635
0.0398897
0.0399098
0.0399286
0.0399419
0.0399534
0.0399605
0.0399658
0.0399677
0.0399676
0.0399653
0.0399598
0.0399529
0.0399416
0.0399288
0.0399107
0.0398915
0.0398664
0.0398446
0.0398102
0.0397835
0.0397566
0.0397395
0.0397337
0.0397472
0.0397896
0.0398558
0.0399726
0.0401426
0.0403557
0.0406474
0.0410738
0.0415329
0.0419619
0.0412691
0.0408375
0.0403774
0.0399476
0.0396561
0.0394435
0.0392757
0.0391595
0.0390944
0.0390536
0.0390418
0.0390492
0.039068
0.0390967
0.0391253
0.0391608
0.0391854
0.0392113
0.0392313
0.0392502
0.0392634
0.039275
0.0392821
0.0392874
0.0392894
0.0392892
0.039287
0.0392815
0.0392745
0.0392632
0.0392504
0.0392323
0.0392133
0.0391884
0.0391656
0.0391314
0.0391045
0.0390775
0.0390604
0.0390545
0.0390677
0.0391099
0.0391763
0.0392931
0.0394632
0.0396755
0.0399668
0.0403941
0.0408541
0.0412858
0.0405778
0.0401447
0.0396791
0.039254
0.0389627
0.0387506
0.0385824
0.0384664
0.0384013
0.0383607
0.0383493
0.0383568
0.0383756
0.0384044
0.0384332
0.0384684
0.0384937
0.0385196
0.0385396
0.0385584
0.0385717
0.0385832
0.0385903
0.0385957
0.0385977
0.0385975
0.0385953
0.0385898
0.0385828
0.0385715
0.0385587
0.0385406
0.0385217
0.0384968
0.0384733
0.0384394
0.0384125
0.0383854
0.0383682
0.0383622
0.0383752
0.0384171
0.0384836
0.0386001
0.0387705
0.0389822
0.0392735
0.0396963
0.0401617
0.0405949
0.0398722
0.039436
0.0389637
0.0385489
0.0382551
0.0380441
0.037877
0.0377606
0.0376956
0.0376554
0.0376442
0.0376517
0.0376706
0.0376995
0.0377283
0.0377633
0.037789
0.0378151
0.037835
0.0378538
0.0378671
0.0378787
0.0378858
0.0378912
0.0378931
0.037893
0.0378908
0.0378852
0.0378783
0.0378669
0.0378542
0.0378361
0.0378172
0.0377923
0.0377684
0.0377348
0.0377077
0.0376805
0.0376633
0.0376573
0.0376701
0.0377117
0.0377781
0.0378951
0.0380642
0.0382747
0.0385693
0.0389813
0.0394534
0.0398896
0.0391525
0.0387125
0.0382356
0.0378277
0.0375356
0.0373254
0.0371591
0.0370427
0.0369779
0.036938
0.0369271
0.0369346
0.0369535
0.0369825
0.0370114
0.0370462
0.0370721
0.0370983
0.0371182
0.037137
0.0371502
0.0371619
0.037169
0.0371744
0.0371764
0.0371762
0.037174
0.0371685
0.0371615
0.0371502
0.0371375
0.0371194
0.0371006
0.0370755
0.0370513
0.037018
0.0369909
0.0369637
0.0369465
0.0369405
0.036953
0.0369944
0.0370605
0.0371776
0.0373457
0.037555
0.0378491
0.0382536
0.0387301
0.0391702
0.0384196
0.0379748
0.0374954
0.0370931
0.0367997
0.0365892
0.0364295
0.0363134
0.036249
0.0362095
0.0361988
0.0362063
0.0362252
0.0362542
0.036283
0.0363176
0.0363436
0.03637
0.0363899
0.0364087
0.0364219
0.0364336
0.0364406
0.0364461
0.0364481
0.0364479
0.0364457
0.0364402
0.0364333
0.0364219
0.0364093
0.0363912
0.0363725
0.0363473
0.0363229
0.0362899
0.0362628
0.0362356
0.0362184
0.0362125
0.0362247
0.0362657
0.0363315
0.0364483
0.0366099
0.0368196
0.0371149
0.0375139
0.0379927
0.0384375
0.0376742
0.0372174
0.0367442
0.0363457
0.0360548
0.0358483
0.035689
0.0355736
0.0355089
0.0354687
0.0354589
0.0354673
0.0354865
0.0355155
0.0355442
0.0355786
0.0356046
0.0356311
0.0356509
0.0356698
0.0356829
0.0356946
0.0357017
0.0357071
0.0357091
0.035709
0.0357068
0.0357013
0.0356944
0.035683
0.0356705
0.0356524
0.0356337
0.0356084
0.0355839
0.0355513
0.0355243
0.0354971
0.0354797
0.035473
0.0354844
0.0355261
0.035592
0.0357082
0.0358691
0.0360751
0.0363681
0.0367629
0.0372357
0.0376923
0.0369122
0.0364559
0.0359863
0.0355836
0.0353011
0.0350978
0.0349386
0.0348243
0.0347602
0.0347204
0.0347108
0.0347192
0.0347384
0.0347672
0.0347958
0.03483
0.0348559
0.0348825
0.0349023
0.0349212
0.0349343
0.034946
0.034953
0.0349585
0.0349605
0.0349604
0.0349582
0.0349526
0.0349458
0.0349345
0.034922
0.0349039
0.0348852
0.0348599
0.0348355
0.0348031
0.0347763
0.0347492
0.0347318
0.0347252
0.0347363
0.0347776
0.034843
0.0349582
0.0351188
0.0353216
0.0356072
0.036005
0.0364744
0.0369305
0.0361398
0.0356831
0.0352144
0.0348145
0.03454
0.034339
0.0341794
0.0340668
0.0340033
0.0339639
0.0339546
0.0339629
0.033982
0.0340107
0.0340391
0.034073
0.0340988
0.0341255
0.0341452
0.0341641
0.0341771
0.0341888
0.0341958
0.0342013
0.0342033
0.0342032
0.0342011
0.0341955
0.0341887
0.0341774
0.0341649
0.0341469
0.0341283
0.034103
0.0340786
0.0340466
0.03402
0.033993
0.0339757
0.0339692
0.0339801
0.0340209
0.0340857
0.0341993
0.0343601
0.0345606
0.0348395
0.0352328
0.0357017
0.0361583
0.0353583
0.0349003
0.034431
0.0340407
0.0337701
0.0335716
0.0334143
0.0333022
0.0332395
0.0332006
0.0331916
0.0331997
0.0332187
0.0332472
0.0332753
0.033309
0.0333346
0.0333612
0.033381
0.0333998
0.0334128
0.0334244
0.0334314
0.0334369
0.0334389
0.0334389
0.0334367
0.0334312
0.0334244
0.0334131
0.0334007
0.0333828
0.0333642
0.0333389
0.0333148
0.0332831
0.0332567
0.0332299
0.0332128
0.0332064
0.033217
0.0332574
0.0333214
0.0334344
0.0335929
0.0337909
0.034065
0.0344511
0.0349191
0.0353771
0.0345656
0.0341067
0.0336466
0.0332581
0.032993
0.032798
0.0326441
0.0325323
0.0324705
0.032432
0.0324232
0.0324312
0.0324501
0.0324782
0.0325059
0.0325396
0.0325649
0.0325914
0.0326111
0.0326298
0.0326428
0.0326544
0.0326614
0.0326669
0.0326689
0.0326688
0.0326667
0.0326612
0.0326544
0.0326432
0.0326309
0.032613
0.0325944
0.0325693
0.0325453
0.0325141
0.0324879
0.0324615
0.0324445
0.0324382
0.0324487
0.0324886
0.0325517
0.0326644
0.0328195
0.0330138
0.0332821
0.033668
0.0341261
0.0345845
0.0337604
0.0333062
0.0328527
0.0324747
0.0322145
0.0320206
0.0318697
0.0317587
0.0316978
0.0316599
0.0316513
0.0316591
0.0316777
0.0317056
0.0317329
0.0317663
0.0317913
0.0318177
0.0318373
0.0318559
0.0318688
0.0318805
0.0318874
0.0318929
0.0318949
0.0318949
0.0318928
0.0318873
0.0318806
0.0318694
0.0318571
0.0318393
0.0318209
0.0317959
0.0317722
0.0317413
0.0317154
0.0316894
0.0316725
0.0316665
0.0316767
0.0317161
0.0317783
0.0318903
0.0320423
0.0322353
0.0324983
0.032875
0.0333261
0.0337797
0.032958
0.0325007
0.0320509
0.0316915
0.0314354
0.0312416
0.0310932
0.0309835
0.0309236
0.0308862
0.0308778
0.0308854
0.0309038
0.0309314
0.0309584
0.0309911
0.031016
0.0310421
0.0310617
0.0310802
0.0310931
0.0311046
0.0311116
0.0311171
0.0311191
0.031119
0.031117
0.0311115
0.0311048
0.0310937
0.0310815
0.0310638
0.0310455
0.0310207
0.0309972
0.0309668
0.0309413
0.0309156
0.0308991
0.0308932
0.0309032
0.0309421
0.0310033
0.031114
0.0312635
0.0314563
0.0317149
0.0320736
0.0325213
0.0329778
0.0321546
0.0316928
0.0312492
0.0309072
0.0306556
0.0304633
0.0303169
0.030209
0.0301502
0.0301133
0.0301052
0.0301125
0.0301307
0.0301577
0.0301845
0.0302164
0.0302412
0.0302671
0.0302865
0.030305
0.0303178
0.0303293
0.0303362
0.0303417
0.0303437
0.0303437
0.0303416
0.0303362
0.0303295
0.0303185
0.0303064
0.0302889
0.0302706
0.0302462
0.0302229
0.0301929
0.0301679
0.0301426
0.0301263
0.0301207
0.0301305
0.0301688
0.030229
0.0303379
0.0304852
0.0306766
0.0309305
0.0312718
0.0317137
0.0321755
0.0313534
0.0308855
0.03045
0.0301247
0.0298779
0.0296868
0.0295427
0.0294353
0.0293773
0.0293411
0.0293333
0.0293408
0.0293592
0.0293862
0.0294133
0.0294451
0.0294698
0.0294954
0.0295147
0.0295329
0.0295456
0.0295571
0.029564
0.0295695
0.0295715
0.0295715
0.0295694
0.029564
0.0295574
0.0295465
0.0295344
0.0295171
0.029499
0.0294749
0.0294518
0.0294219
0.0293967
0.0293712
0.0293549
0.0293491
0.0293585
0.0293963
0.0294556
0.029564
0.0297091
0.029899
0.030148
0.0304739
0.030904
0.0313763
0.0305433
0.0300822
0.0296559
0.0293472
0.0291056
0.0289176
0.0287764
0.0286708
0.0286139
0.0285783
0.0285707
0.0285779
0.028596
0.0286225
0.0286492
0.0286802
0.0287048
0.0287301
0.0287492
0.0287672
0.0287799
0.0287912
0.0287981
0.0288036
0.0288056
0.0288056
0.0288036
0.0287982
0.0287917
0.0287808
0.0287689
0.0287517
0.0287338
0.02871
0.0286872
0.0286579
0.0286331
0.0286082
0.0285921
0.0285867
0.0285959
0.0286329
0.0286913
0.0287978
0.0289399
0.0291266
0.0293706
0.0296804
0.0300968
0.0305705
0.0297486
0.029296
0.0288689
0.0285798
0.0283424
0.0281586
0.0280199
0.0279166
0.0278607
0.0278259
0.0278185
0.0278254
0.0278431
0.027869
0.0278953
0.0279256
0.0279499
0.0279749
0.0279937
0.0280116
0.0280241
0.0280354
0.0280422
0.0280477
0.0280497
0.0280497
0.0280477
0.0280424
0.0280359
0.0280251
0.0280133
0.0279964
0.0279787
0.0279553
0.0279327
0.0279041
0.0278798
0.0278555
0.0278397
0.0278346
0.0278436
0.0278799
0.0279372
0.0280415
0.028181
0.0283632
0.0286033
0.0288937
0.0293149
0.029772
0.0289681
0.0285199
0.0280978
0.0278258
0.0275927
0.0274132
0.0272789
0.0271771
0.0271222
0.0270881
0.0270808
0.0270875
0.0271049
0.0271302
0.027156
0.0271855
0.0272095
0.027234
0.0272527
0.0272703
0.0272827
0.0272939
0.0273006
0.0273061
0.0273081
0.0273081
0.0273062
0.0273009
0.0272945
0.0272838
0.0272721
0.0272555
0.027238
0.027215
0.0271928
0.0271649
0.0271411
0.0271173
0.0271019
0.027097
0.027106
0.0271415
0.0271978
0.0273005
0.0274357
0.0276133
0.0278496
0.0281229
0.0285414
0.0289896
0.0282077
0.0277566
0.0273506
0.0270908
0.0268615
0.0266876
0.0265573
0.0264574
0.0264034
0.0263701
0.026363
0.0263693
0.0263863
0.026411
0.0264363
0.026465
0.0264887
0.0265128
0.0265312
0.0265485
0.0265608
0.0265719
0.0265786
0.026584
0.026586
0.026586
0.0265841
0.0265789
0.0265725
0.026562
0.0265505
0.0265341
0.0265169
0.0264943
0.0264724
0.0264453
0.026422
0.0263989
0.0263839
0.0263793
0.0263881
0.0264228
0.0264781
0.026579
0.0267101
0.0268819
0.0271147
0.0273756
0.0277795
0.0282283
0.0274748
0.0270187
0.0266239
0.0263816
0.026158
0.025988
0.0258615
0.0257636
0.0257106
0.0256782
0.0256711
0.0256772
0.0256938
0.0257177
0.0257425
0.0257704
0.0257937
0.0258174
0.0258355
0.0258525
0.0258647
0.0258756
0.0258823
0.0258877
0.0258896
0.0258897
0.0258878
0.0258826
0.0258763
0.025866
0.0258546
0.0258385
0.0258216
0.0257995
0.025778
0.0257517
0.0257288
0.0257064
0.0256918
0.0256875
0.0256962
0.02573
0.0257844
0.0258832
0.0260105
0.0261783
0.0264055
0.0266487
0.0270426
0.0274953
0.0267685
0.026317
0.0259363
0.0257059
0.0254875
0.0253222
0.0251991
0.0251036
0.0250515
0.02502
0.0250129
0.0250187
0.0250348
0.025058
0.0250824
0.0251094
0.0251323
0.0251556
0.0251734
0.0251901
0.0252022
0.0252129
0.0252195
0.0252248
0.0252268
0.0252269
0.025225
0.0252199
0.0252137
0.0252035
0.0251922
0.0251765
0.0251598
0.0251382
0.0251171
0.0250916
0.0250692
0.0250476
0.0250333
0.0250294
0.025038
0.0250708
0.0251245
0.0252209
0.0253447
0.0255081
0.0257295
0.0259609
0.0263412
0.026789
0.0260998
0.0256614
0.0252981
0.0250727
0.0248613
0.0247001
0.0245801
0.0244872
0.0244358
0.0244052
0.0243982
0.0244036
0.0244194
0.0244419
0.0244656
0.0244919
0.0245144
0.0245372
0.0245547
0.024571
0.024583
0.0245935
0.0246001
0.0246054
0.0246074
0.0246075
0.0246056
0.0246006
0.0245944
0.0245844
0.0245733
0.0245579
0.0245415
0.0245204
0.0244997
0.024475
0.0244531
0.0244322
0.0244183
0.0244147
0.0244233
0.0244551
0.0245081
0.0246019
0.0247226
0.0248815
0.0250968
0.0253226
0.0256857
0.0261204
0.0254862
0.0250705
0.0247146
0.0244965
0.0242915
0.0241348
0.0240176
0.0239273
0.0238766
0.023847
0.0238399
0.023845
0.0238604
0.0238821
0.0239054
0.0239309
0.0239529
0.0239753
0.0239924
0.0240085
0.0240203
0.0240307
0.0240372
0.0240425
0.0240444
0.0240445
0.0240427
0.0240377
0.0240316
0.0240218
0.0240108
0.0239958
0.0239797
0.023959
0.0239387
0.0239148
0.0238934
0.0238732
0.0238598
0.0238564
0.0238651
0.0238958
0.0239482
0.0240394
0.0241572
0.0243116
0.0245207
0.0247389
0.025094
0.0255078
0.0249526
0.0245585
0.0242042
0.0239961
0.0237966
0.0236445
0.0235298
0.0234421
0.0233919
0.0233632
0.0233561
0.023361
0.0233759
0.023397
0.0234197
0.0234444
0.023466
0.0234881
0.0235049
0.0235206
0.0235323
0.0235425
0.023549
0.0235542
0.0235561
0.0235563
0.0235545
0.0235496
0.0235435
0.0235339
0.023523
0.0235083
0.0234926
0.0234722
0.0234523
0.0234292
0.0234082
0.0233888
0.0233757
0.0233725
0.0233813
0.023411
0.0234629
0.0235515
0.0236668
0.0238163
0.0240207
0.024228
0.0245822
0.0249744
0.0245289
0.0241499
0.0237994
0.0235995
0.0234043
0.0232565
0.0231438
0.0230584
0.0230087
0.0229809
0.0229736
0.0229783
0.0229928
0.0230133
0.0230356
0.0230597
0.0230809
0.0231028
0.0231192
0.0231346
0.0231462
0.0231563
0.0231627
0.0231678
0.0231698
0.0231699
0.0231681
0.0231633
0.0231573
0.0231478
0.023137
0.0231226
0.0231073
0.0230871
0.0230676
0.0230451
0.0230245
0.0230057
0.022993
0.02299
0.0229988
0.0230278
0.0230791
0.0231654
0.0232788
0.0234224
0.0236254
0.023824
0.0241728
0.0245505
0.0242649
0.0239006
0.0235416
0.0233533
0.0231611
0.0230165
0.0229051
0.0228214
0.022772
0.0227447
0.0227374
0.0227419
0.0227562
0.0227762
0.0227982
0.0228218
0.0228427
0.0228645
0.0228806
0.0228958
0.0229073
0.0229173
0.0229237
0.0229288
0.0229307
0.0229308
0.0229291
0.0229243
0.0229183
0.022909
0.0228983
0.022884
0.0228691
0.0228488
0.0228297
0.0228077
0.0227874
0.022769
0.0227565
0.0227537
0.0227626
0.022791
0.0228419
0.0229266
0.0230386
0.0231744
0.0233836
0.0235668
0.023923
0.0242862
)
;

boundaryField
{
    fuel
    {
        type            fixedValue;
        value           nonuniform 0();
    }
    wall
    {
        type            zeroGradient;
    }
    outlet
    {
        type            zeroGradient;
    }
    frontAndBack
    {
        type            empty;
    }
    procBoundary3to2
    {
        type            processor;
        value           nonuniform List<scalar> 
51
(
0.0482457
0.0482608
0.0482844
0.0483085
0.0483389
0.0483604
0.0483837
0.0484007
0.0484161
0.0484275
0.0484366
0.0484425
0.0484465
0.0484481
0.0484479
0.048446
0.0484416
0.0484358
0.0484267
0.0484156
0.0484006
0.0483843
0.0483618
0.0483414
0.0483121
0.0482892
0.0482668
0.0482529
0.0482493
0.048264
0.0483027
0.0483716
0.0484689
0.0486057
0.0488022
0.0490749
0.0494095
0.0498207
0.0501439
0.0497073
0.0493785
0.0489488
0.0486089
0.0483329
0.0481305
0.0479957
0.0478976
0.0478297
0.0477907
0.0477771
0.0477771
)
;
    }
}


// ************************************************************************* //
