/*--------------------------------*- C++ -*----------------------------------*\
| =========                 |                                                 |
| \\      /  F ield         | OpenFOAM: The Open Source CFD Toolbox           |
|  \\    /   O peration     | Version:  dev                                   |
|   \\  /    A nd           | Web:      www.OpenFOAM.org                      |
|    \\/     M anipulation  |                                                 |
\*---------------------------------------------------------------------------*/
FoamFile
{
    version     2.0;
    format      ascii;
    class       volScalarField;
    location    "0.02";
    object      H2O;
}
// * * * * * * * * * * * * * * * * * * * * * * * * * * * * * * * * * * * * * //

dimensions      [0 0 0 0 0 0 0];

internalField   nonuniform List<scalar> 
25
(
0.00802205
0.00746779
0.00693234
0.0064164
0.00592046
0.00544418
0.00498732
0.00455256
0.00413789
0.0037409
0.00337747
0.0030378
0.00272104
0.002427
0.00215536
0.00190363
0.00166703
0.00145308
0.0012636
0.00109164
0.000935406
0.000789834
0.000635624
0.000451635
0.000230688
)
;

boundaryField
{
    wall
    {
        type            zeroGradient;
    }
    fuel
    {
        type            fixedValue;
        value           nonuniform 0();
    }
    outlet
    {
        type            inletOutlet;
        inletValue      uniform 0;
        value           uniform 0.000230688;
    }
    procBoundary3to2
    {
        type            processor;
        value           uniform 0.00859124;
    }
}


// ************************************************************************* //
