/*--------------------------------*- C++ -*----------------------------------*\
| =========                 |                                                 |
| \\      /  F ield         | OpenFOAM: The Open Source CFD Toolbox           |
|  \\    /   O peration     | Version:  dev                                   |
|   \\  /    A nd           | Web:      www.OpenFOAM.org                      |
|    \\/     M anipulation  |                                                 |
\*---------------------------------------------------------------------------*/
FoamFile
{
    version     2.0;
    format      ascii;
    class       volScalarField;
    location    "0.02";
    object      HCCOH;
}
// * * * * * * * * * * * * * * * * * * * * * * * * * * * * * * * * * * * * * //

dimensions      [0 0 0 0 0 0 0];

internalField   nonuniform List<scalar> 
250
(
2.13108e-05
2.13111e-05
2.13091e-05
2.13066e-05
2.13104e-05
2.13122e-05
2.13068e-05
2.13083e-05
2.12924e-05
2.10958e-05
4.80784e-07
2.01281e-05
2.01287e-05
2.013e-05
2.01286e-05
2.01336e-05
2.01368e-05
2.01316e-05
2.01377e-05
2.01195e-05
1.99393e-05
1.01487e-06
1.81017e-05
1.81017e-05
1.81056e-05
1.8103e-05
1.81112e-05
1.81149e-05
1.81173e-05
1.81145e-05
1.80911e-05
1.77442e-05
1.35896e-06
1.66179e-05
1.66172e-05
1.66235e-05
1.66195e-05
1.66313e-05
1.66334e-05
1.66359e-05
1.66285e-05
1.65924e-05
1.60065e-05
1.58586e-06
1.55305e-05
1.55292e-05
1.55376e-05
1.55316e-05
1.55475e-05
1.55455e-05
1.55375e-05
1.55327e-05
1.5464e-05
1.46309e-05
1.7271e-06
1.46282e-05
1.46257e-05
1.46398e-05
1.46346e-05
1.46691e-05
1.46757e-05
1.46667e-05
1.46556e-05
1.45711e-05
1.34956e-05
1.77083e-06
1.38987e-05
1.38957e-05
1.39125e-05
1.39051e-05
1.3949e-05
1.39525e-05
1.39384e-05
1.39174e-05
1.38169e-05
1.25304e-05
1.66987e-06
1.32597e-05
1.32562e-05
1.32755e-05
1.32655e-05
1.33215e-05
1.33219e-05
1.33021e-05
1.32651e-05
1.31079e-05
1.16983e-05
1.38669e-06
1.26889e-05
1.26848e-05
1.27065e-05
1.2693e-05
1.27449e-05
1.27618e-05
1.27357e-05
1.26766e-05
1.25086e-05
1.0978e-05
1.08433e-06
1.20901e-05
1.20854e-05
1.21088e-05
1.20915e-05
1.21606e-05
1.2181e-05
1.2188e-05
1.21263e-05
1.19122e-05
1.03539e-05
9.65211e-07
1.15977e-05
1.16225e-05
1.15995e-05
1.16127e-05
1.16374e-05
1.16482e-05
1.15682e-05
1.13369e-05
9.81463e-06
1.00607e-06
1.11099e-05
1.11462e-05
1.11393e-05
1.11637e-05
1.11226e-05
1.11396e-05
1.10762e-05
1.07989e-05
9.34073e-06
1.13679e-06
1.06274e-05
1.06668e-05
1.06586e-05
1.07003e-05
1.06948e-05
1.06555e-05
1.06406e-05
1.02905e-05
8.93655e-06
1.31964e-06
1.01699e-05
1.02123e-05
1.02035e-05
1.02517e-05
1.02601e-05
1.02471e-05
1.01875e-05
9.86726e-06
8.55794e-06
1.54309e-06
9.73426e-06
9.77984e-06
9.77083e-06
9.82458e-06
9.82361e-06
9.85359e-06
9.79797e-06
9.47324e-06
8.19822e-06
1.7897e-06
9.31798e-06
9.36664e-06
9.35788e-06
9.41619e-06
9.45019e-06
9.44614e-06
9.40152e-06
9.07761e-06
7.91526e-06
2.06252e-06
8.91861e-06
8.97032e-06
8.96208e-06
9.02329e-06
9.08334e-06
9.09271e-06
9.0517e-06
8.72923e-06
7.62829e-06
2.34317e-06
8.5339e-06
8.58859e-06
8.58096e-06
8.6427e-06
8.70072e-06
8.75356e-06
8.71982e-06
8.40221e-06
7.35445e-06
2.62869e-06
8.16161e-06
8.21921e-06
8.21208e-06
8.27135e-06
8.36367e-06
8.42594e-06
8.40269e-06
8.09377e-06
7.13139e-06
2.91197e-06
7.79955e-06
7.85994e-06
7.85294e-06
7.90599e-06
8.03659e-06
8.10817e-06
8.09703e-06
7.80054e-06
6.9227e-06
3.18498e-06
7.44544e-06
7.50844e-06
7.50095e-06
7.58592e-06
7.71794e-06
7.79765e-06
7.79937e-06
7.51878e-06
6.72407e-06
3.43994e-06
7.09692e-06
7.16229e-06
7.15295e-06
7.25506e-06
7.40496e-06
7.49137e-06
7.50599e-06
7.24436e-06
6.53153e-06
3.66967e-06
6.75151e-06
6.81886e-06
6.80505e-06
6.94224e-06
7.09361e-06
7.18594e-06
7.21298e-06
6.97286e-06
6.34112e-06
3.86792e-06
6.40648e-06
6.47532e-06
6.49069e-06
6.62873e-06
6.78121e-06
6.87766e-06
6.91638e-06
6.69437e-06
6.14863e-06
4.0294e-06
)
;

boundaryField
{
    fuel
    {
        type            fixedValue;
        value           uniform 0;
    }
    wall
    {
        type            zeroGradient;
    }
    outlet
    {
        type            zeroGradient;
    }
    frontAndBack
    {
        type            empty;
    }
    procBoundary3to0
    {
        type            processor;
        value           nonuniform List<scalar> 10(6.0585e-06 6.12779e-06 6.17623e-06 6.3122e-06 6.4659e-06 6.56259e-06 6.61292e-06 6.41446e-06 5.94996e-06 4.14975e-06);
    }
    procBoundary3to2
    {
        type            processor;
        value           nonuniform List<scalar> 
25
(
2.13121e-05
2.01313e-05
1.81061e-05
1.66237e-05
1.55376e-05
1.464e-05
1.39126e-05
1.32757e-05
1.27067e-05
1.21091e-05
1.16028e-05
1.16028e-05
1.11162e-05
1.06342e-05
1.01771e-05
9.74187e-06
9.32593e-06
8.92685e-06
8.54237e-06
8.17027e-06
7.80833e-06
7.4543e-06
7.1058e-06
6.76033e-06
6.41519e-06
)
;
    }
}


// ************************************************************************* //
