/*--------------------------------*- C++ -*----------------------------------*\
| =========                 |                                                 |
| \\      /  F ield         | OpenFOAM: The Open Source CFD Toolbox           |
|  \\    /   O peration     | Version:  dev                                   |
|   \\  /    A nd           | Web:      www.OpenFOAM.org                      |
|    \\/     M anipulation  |                                                 |
\*---------------------------------------------------------------------------*/
FoamFile
{
    version     2.0;
    format      ascii;
    class       volScalarField;
    location    "0.02";
    object      OH;
}
// * * * * * * * * * * * * * * * * * * * * * * * * * * * * * * * * * * * * * //

dimensions      [0 0 0 0 0 0 0];

internalField   nonuniform List<scalar> 
25
(
6.1706e-09
4.45807e-09
3.21735e-09
2.32639e-09
1.68891e-09
1.23207e-09
9.02721e-10
6.6529e-10
4.92459e-10
3.64825e-10
2.7362e-10
2.06395e-10
1.56442e-10
1.1912e-10
9.11315e-11
6.99632e-11
5.35416e-11
4.11924e-11
3.20699e-11
2.51281e-11
1.9838e-11
1.57299e-11
1.21061e-11
8.42708e-12
4.29178e-12
)
;

boundaryField
{
    wall
    {
        type            zeroGradient;
    }
    fuel
    {
        type            fixedValue;
        value           nonuniform 0();
    }
    outlet
    {
        type            inletOutlet;
        inletValue      uniform 0;
        value           uniform 4.29178e-12;
    }
    procBoundary3to2
    {
        type            processor;
        value           uniform 8.48941e-09;
    }
}


// ************************************************************************* //
