/*--------------------------------*- C++ -*----------------------------------*\
| =========                 |                                                 |
| \\      /  F ield         | OpenFOAM: The Open Source CFD Toolbox           |
|  \\    /   O peration     | Version:  dev                                   |
|   \\  /    A nd           | Web:      www.OpenFOAM.org                      |
|    \\/     M anipulation  |                                                 |
\*---------------------------------------------------------------------------*/
FoamFile
{
    version     2.0;
    format      ascii;
    class       volVectorField;
    location    "0.02";
    object      U;
}
// * * * * * * * * * * * * * * * * * * * * * * * * * * * * * * * * * * * * * //

dimensions      [0 1 -1 0 0 0 0];

internalField   nonuniform List<vector> 
25
(
(8.03173e-14 -8.03173e-14 0.2885)
(7.53717e-14 -7.53717e-14 0.289326)
(7.0521e-14 -7.0521e-14 0.290158)
(6.59514e-14 -6.59514e-14 0.290844)
(6.13946e-14 -6.13946e-14 0.291582)
(5.71136e-14 -5.71136e-14 0.292363)
(5.29916e-14 -5.29916e-14 0.292931)
(4.88658e-14 -4.88658e-14 0.293522)
(4.49439e-14 -4.49439e-14 0.294023)
(4.13611e-14 -4.13611e-14 0.295195)
(3.77907e-14 -3.77907e-14 0.295934)
(3.44349e-14 -3.44349e-14 0.296419)
(3.11985e-14 -3.11985e-14 0.296935)
(2.81271e-14 -2.81271e-14 0.297331)
(2.54441e-14 -2.54441e-14 0.297851)
(2.28084e-14 -2.28084e-14 0.298052)
(2.02712e-14 -2.02712e-14 0.297825)
(1.80432e-14 -1.80432e-14 0.299098)
(1.58165e-14 -1.58165e-14 0.298674)
(1.37744e-14 -1.37744e-14 0.297214)
(1.187e-14 -1.187e-14 0.296763)
(9.96979e-15 -9.96979e-15 0.296823)
(8.01348e-15 -8.01348e-15 0.291452)
(5.36707e-15 -5.36707e-15 0.286793)
(3.13638e-15 -3.13638e-15 0.305338)
)
;

boundaryField
{
    wall
    {
        type            zeroGradient;
    }
    fuel
    {
        type            fixedValue;
        value           nonuniform 0();
    }
    outlet
    {
        type            pressureInletOutletVelocity;
        value           uniform (3.13638e-15 -3.13638e-15 0.305338);
    }
    procBoundary3to2
    {
        type            processor;
        value           uniform (8.53829e-14 -8.53829e-14 0.287708);
    }
}


// ************************************************************************* //
