/*--------------------------------*- C++ -*----------------------------------*\
| =========                 |                                                 |
| \\      /  F ield         | OpenFOAM: The Open Source CFD Toolbox           |
|  \\    /   O peration     | Version:  dev                                   |
|   \\  /    A nd           | Web:      www.OpenFOAM.org                      |
|    \\/     M anipulation  |                                                 |
\*---------------------------------------------------------------------------*/
FoamFile
{
    version     2.0;
    format      ascii;
    class       volScalarField;
    location    "0.12";
    object      A1C2H;
}
// * * * * * * * * * * * * * * * * * * * * * * * * * * * * * * * * * * * * * //

dimensions      [0 0 0 0 0 0 0];

internalField   nonuniform List<scalar> 
50
(
1.69721e-19
1.5047e-19
1.32588e-19
1.15989e-19
1.00688e-19
8.70097e-20
7.47726e-20
6.38738e-20
5.42771e-20
4.59605e-20
3.88213e-20
3.28237e-20
2.77004e-20
2.34e-20
1.98568e-20
1.69091e-20
1.446e-20
1.24073e-20
1.06826e-20
9.25173e-21
8.03848e-21
6.99913e-21
6.09073e-21
5.30098e-21
4.60115e-21
3.96951e-21
3.4067e-21
2.89501e-21
2.43044e-21
2.0202e-21
1.65568e-21
1.33584e-21
1.05972e-21
8.25885e-22
6.29623e-22
4.72908e-22
3.47268e-22
2.52135e-22
1.80731e-22
1.28408e-22
9.09138e-23
6.45689e-23
4.63479e-23
3.387e-23
2.53191e-23
1.93325e-23
1.48958e-23
1.12986e-23
8.23075e-24
6.08785e-24
)
;

boundaryField
{
    wall
    {
        type            zeroGradient;
    }
    fuel
    {
        type            fixedValue;
        value           nonuniform 0();
    }
    outlet
    {
        type            inletOutlet;
        inletValue      uniform 0;
        value           uniform 6.08785e-24;
    }
    procBoundary3to2
    {
        type            processor;
        value           uniform 1.9017e-19;
    }
}


// ************************************************************************* //
