/*--------------------------------*- C++ -*----------------------------------*\
| =========                 |                                                 |
| \\      /  F ield         | OpenFOAM: The Open Source CFD Toolbox           |
|  \\    /   O peration     | Version:  dev                                   |
|   \\  /    A nd           | Web:      www.OpenFOAM.org                      |
|    \\/     M anipulation  |                                                 |
\*---------------------------------------------------------------------------*/
FoamFile
{
    version     2.0;
    format      ascii;
    class       volScalarField;
    location    "0.12";
    object      A1C2H3*;
}
// * * * * * * * * * * * * * * * * * * * * * * * * * * * * * * * * * * * * * //

dimensions      [0 0 0 0 0 0 0];

internalField   nonuniform List<scalar> 
250
(
2.91688e-08
2.91685e-08
2.9169e-08
2.91681e-08
2.91687e-08
2.91674e-08
2.91879e-08
2.92601e-08
2.98369e-08
3.3171e-08
5.58944e-10
5.20898e-09
5.20909e-09
5.20926e-09
5.20874e-09
5.21036e-09
5.20798e-09
5.22038e-09
5.2354e-09
5.45285e-09
6.58036e-09
7.24329e-10
1.14507e-09
1.14521e-09
1.14529e-09
1.14503e-09
1.14598e-09
1.14439e-09
1.15081e-09
1.15226e-09
1.23728e-09
1.69748e-09
4.702e-09
4.07755e-10
4.07851e-10
4.07908e-10
4.07781e-10
4.08256e-10
4.07351e-10
4.1116e-10
4.10808e-10
4.58401e-10
7.41097e-10
5.60187e-08
2.0404e-10
2.04113e-10
2.04157e-10
2.04079e-10
2.04321e-10
2.03786e-10
2.06404e-10
2.05813e-10
2.40553e-10
4.05589e-10
2.72496e-08
1.21907e-10
1.21964e-10
1.21988e-10
1.21938e-10
1.22033e-10
1.21729e-10
1.23606e-10
1.22815e-10
1.45436e-10
2.56763e-10
8.15878e-09
7.92295e-11
7.93247e-11
7.93828e-11
7.93271e-11
7.91607e-11
7.92874e-11
8.10354e-11
8.12711e-11
9.99825e-11
1.84274e-10
3.05632e-09
5.61023e-11
5.619e-11
5.62327e-11
5.61873e-11
5.60361e-11
5.61894e-11
5.75698e-11
5.80496e-11
7.38371e-11
1.4565e-10
1.76946e-09
4.18396e-11
4.19179e-11
4.19496e-11
4.19102e-11
4.19948e-11
4.18677e-11
4.27254e-11
4.23084e-11
5.63735e-11
1.23634e-10
1.41396e-09
3.24406e-11
3.25423e-11
3.25703e-11
3.25164e-11
3.27406e-11
3.2512e-11
3.33251e-11
3.34252e-11
4.46926e-11
1.07674e-10
1.29901e-09
2.60017e-11
2.60217e-11
2.5962e-11
2.6124e-11
2.59975e-11
2.6635e-11
2.69271e-11
3.67193e-11
9.64801e-11
1.24253e-09
2.14971e-11
2.1511e-11
2.14344e-11
2.15142e-11
2.15069e-11
2.20304e-11
2.24291e-11
3.09843e-11
8.70169e-11
1.19116e-09
1.82618e-11
1.82704e-11
1.81644e-11
1.85654e-11
1.82792e-11
1.87197e-11
1.91827e-11
2.66051e-11
7.88745e-11
1.12934e-09
1.5845e-11
1.58489e-11
1.56921e-11
1.6051e-11
1.58635e-11
1.62455e-11
1.67511e-11
2.37762e-11
7.16078e-11
1.05283e-09
1.39758e-11
1.39756e-11
1.40013e-11
1.41072e-11
1.39928e-11
1.43321e-11
1.4862e-11
2.15046e-11
6.54222e-11
9.62659e-10
1.24864e-11
1.24809e-11
1.24842e-11
1.25686e-11
1.25013e-11
1.28073e-11
1.3345e-11
1.93959e-11
5.96819e-11
8.61757e-10
1.12705e-11
1.12584e-11
1.12398e-11
1.13229e-11
1.12835e-11
1.15616e-11
1.20941e-11
1.75837e-11
5.40194e-11
7.55671e-10
1.02595e-11
1.02401e-11
1.01928e-11
1.02945e-11
1.02709e-11
1.05245e-11
1.10418e-11
1.59951e-11
4.86848e-11
6.51003e-10
9.40815e-12
9.3824e-12
9.40517e-12
9.43393e-12
9.41834e-12
9.64944e-12
1.01441e-11
1.48519e-11
4.37379e-11
5.4049e-10
8.68629e-12
8.65624e-12
8.72932e-12
8.70657e-12
8.6956e-12
8.90526e-12
9.36935e-12
1.37322e-11
3.91943e-11
4.49288e-10
8.07315e-12
8.03911e-12
8.09965e-12
8.08908e-12
8.08175e-12
8.27025e-12
8.77051e-12
1.26837e-11
3.50384e-11
3.64074e-10
7.5544e-12
7.57696e-12
7.57177e-12
7.56576e-12
7.56201e-12
7.72767e-12
8.22547e-12
1.17567e-11
3.12767e-11
2.97622e-10
7.17378e-12
7.19604e-12
7.18551e-12
7.18175e-12
7.17871e-12
7.33161e-12
7.79882e-12
1.09392e-11
2.78919e-11
2.30826e-10
6.83925e-12
6.85701e-12
6.84623e-12
6.84221e-12
6.84145e-12
6.97734e-12
7.42313e-12
1.02188e-11
2.48977e-11
1.85511e-10
)
;

boundaryField
{
    fuel
    {
        type            fixedValue;
        value           uniform 0;
    }
    wall
    {
        type            zeroGradient;
    }
    outlet
    {
        type            zeroGradient;
    }
    frontAndBack
    {
        type            empty;
    }
    procBoundary3to0
    {
        type            processor;
        value           nonuniform List<scalar> 10(6.60419e-12 6.61718e-12 6.60785e-12 6.60287e-12 6.60342e-12 6.72493e-12 7.14515e-12 9.58402e-12 2.22603e-11 1.48388e-10);
    }
    procBoundary3to2
    {
        type            processor;
        value           nonuniform List<scalar> 
25
(
2.91684e-08
5.20928e-09
1.14524e-09
4.07847e-10
2.04101e-10
1.21948e-10
7.92928e-11
5.61561e-11
4.1886e-11
3.24948e-11
2.59237e-11
2.59237e-11
2.1451e-11
1.82508e-11
1.58628e-11
1.40125e-11
1.25335e-11
1.13216e-11
1.03097e-11
9.45375e-12
8.72475e-12
8.10272e-12
7.57326e-12
7.18111e-12
6.86615e-12
)
;
    }
}


// ************************************************************************* //
