/*--------------------------------*- C++ -*----------------------------------*\
| =========                 |                                                 |
| \\      /  F ield         | OpenFOAM: The Open Source CFD Toolbox           |
|  \\    /   O peration     | Version:  dev                                   |
|   \\  /    A nd           | Web:      www.OpenFOAM.org                      |
|    \\/     M anipulation  |                                                 |
\*---------------------------------------------------------------------------*/
FoamFile
{
    version     2.0;
    format      ascii;
    class       volScalarField;
    location    "0.12";
    object      A2-1;
}
// * * * * * * * * * * * * * * * * * * * * * * * * * * * * * * * * * * * * * //

dimensions      [0 0 0 0 0 0 0];

internalField   nonuniform List<scalar> 
250
(
5.87781e-08
5.87822e-08
5.87809e-08
5.87789e-08
5.87808e-08
5.87768e-08
5.88325e-08
5.89388e-08
6.01289e-08
6.47163e-08
7.14798e-10
3.66883e-08
3.66911e-08
3.66904e-08
3.66875e-08
3.66963e-08
3.66807e-08
3.67684e-08
3.69157e-08
3.86738e-08
4.75401e-08
5.35501e-10
1.5026e-08
1.5028e-08
1.50284e-08
1.50257e-08
1.50359e-08
1.50167e-08
1.50997e-08
1.5159e-08
1.64732e-08
2.26389e-08
1.16708e-09
6.46901e-09
6.47052e-09
6.4714e-09
6.46934e-09
6.47673e-09
6.46223e-09
6.52605e-09
6.54337e-09
7.46202e-09
1.14974e-08
9.38025e-09
3.2092e-09
3.21041e-09
3.21118e-09
3.2098e-09
3.21394e-09
3.20489e-09
3.25071e-09
3.25493e-09
3.9386e-09
6.82266e-09
4.15769e-08
1.82905e-09
1.82997e-09
1.83043e-09
1.82957e-09
1.83122e-09
1.82622e-09
1.8582e-09
1.85553e-09
2.2986e-09
4.6331e-09
4.11608e-08
1.13854e-09
1.14005e-09
1.14101e-09
1.14014e-09
1.13757e-09
1.13953e-09
1.16798e-09
1.17972e-09
1.53445e-09
3.43326e-09
3.328e-08
7.80649e-10
7.82001e-10
7.82696e-10
7.82019e-10
7.79622e-10
7.82095e-10
8.03952e-10
8.1783e-10
1.11008e-09
2.77434e-09
3.00321e-08
5.6725e-10
5.68427e-10
5.6894e-10
5.68378e-10
5.69413e-10
5.67808e-10
5.8135e-10
5.80712e-10
8.34674e-10
2.40543e-09
2.99903e-08
4.29834e-10
4.31318e-10
4.31762e-10
4.31014e-10
4.34098e-10
4.30979e-10
4.43484e-10
4.49741e-10
6.54333e-10
2.14473e-09
3.07231e-08
3.3735e-10
3.3767e-10
3.36862e-10
3.39066e-10
3.37374e-10
3.47089e-10
3.55454e-10
5.32888e-10
1.96394e-09
3.0755e-08
2.73575e-10
2.73802e-10
2.72783e-10
2.73803e-10
2.73787e-10
2.81689e-10
2.91046e-10
4.4629e-10
1.80793e-09
2.95773e-08
2.28432e-10
2.28581e-10
2.27177e-10
2.32636e-10
2.28738e-10
2.35321e-10
2.45156e-10
3.80554e-10
1.66737e-09
2.73365e-08
1.95236e-10
1.95318e-10
1.93228e-10
1.98076e-10
1.95545e-10
2.0119e-10
2.11269e-10
3.38314e-10
1.53481e-09
2.44368e-08
1.70001e-10
1.70025e-10
1.70397e-10
1.71797e-10
1.70279e-10
1.75231e-10
1.85352e-10
3.04581e-10
1.41611e-09
2.13284e-08
1.50259e-10
1.50215e-10
1.50288e-10
1.51366e-10
1.505e-10
1.54913e-10
1.64885e-10
2.73438e-10
1.30141e-09
1.8324e-08
1.34444e-10
1.34316e-10
1.34101e-10
1.35133e-10
1.3465e-10
1.3862e-10
1.48296e-10
2.46816e-10
1.18475e-09
1.56218e-08
1.21536e-10
1.21315e-10
1.20727e-10
1.21983e-10
1.21714e-10
1.25302e-10
1.34575e-10
2.23582e-10
1.07217e-09
1.33161e-08
1.10865e-10
1.10561e-10
1.10848e-10
1.11179e-10
1.1102e-10
1.14267e-10
1.23061e-10
2.06937e-10
9.65575e-10
1.11755e-08
1.01981e-10
1.01617e-10
1.02523e-10
1.02214e-10
1.02117e-10
1.0505e-10
1.13281e-10
1.90715e-10
8.65933e-10
9.54524e-09
9.45798e-11
9.41615e-11
9.49106e-11
9.47499e-11
9.46995e-11
9.73316e-11
1.05854e-10
1.75605e-10
7.73278e-10
8.09233e-09
8.84645e-11
8.8717e-11
8.86776e-11
8.85703e-11
8.85644e-11
9.08831e-11
9.92302e-11
1.62333e-10
6.87953e-10
6.96106e-09
8.41432e-11
8.439e-11
8.42845e-11
8.41994e-11
8.42041e-11
8.63364e-11
9.42051e-11
1.50734e-10
6.10031e-10
5.77833e-09
8.05802e-11
8.07684e-11
8.06614e-11
8.05636e-11
8.05977e-11
8.24915e-11
9.00022e-11
1.40671e-10
5.40128e-10
4.9193e-09
)
;

boundaryField
{
    fuel
    {
        type            fixedValue;
        value           uniform 0;
    }
    wall
    {
        type            zeroGradient;
    }
    outlet
    {
        type            zeroGradient;
    }
    frontAndBack
    {
        type            empty;
    }
    procBoundary3to0
    {
        type            processor;
        value           nonuniform List<scalar> 10(7.84178e-11 7.85394e-11 7.84566e-11 7.8332e-11 7.8387e-11 8.00695e-11 8.72146e-11 1.32033e-10 4.77941e-10 4.15462e-09);
    }
    procBoundary3to2
    {
        type            processor;
        value           nonuniform List<scalar> 
25
(
5.87816e-08
3.66904e-08
1.50276e-08
6.47026e-09
3.21014e-09
1.82968e-09
1.13952e-09
7.81463e-10
5.67936e-10
4.30619e-10
3.36231e-10
3.36231e-10
2.72919e-10
2.28269e-10
1.95471e-10
1.70492e-10
1.50887e-10
1.35121e-10
1.222e-10
1.11469e-10
1.02493e-10
9.49802e-11
8.87332e-11
8.42742e-11
8.09173e-11
)
;
    }
}


// ************************************************************************* //
