/*--------------------------------*- C++ -*----------------------------------*\
| =========                 |                                                 |
| \\      /  F ield         | OpenFOAM: The Open Source CFD Toolbox           |
|  \\    /   O peration     | Version:  dev                                   |
|   \\  /    A nd           | Web:      www.OpenFOAM.org                      |
|    \\/     M anipulation  |                                                 |
\*---------------------------------------------------------------------------*/
FoamFile
{
    version     2.0;
    format      ascii;
    class       volScalarField;
    location    "0.12";
    object      A2C2HA*;
}
// * * * * * * * * * * * * * * * * * * * * * * * * * * * * * * * * * * * * * //

dimensions      [0 0 0 0 0 0 0];

internalField   nonuniform List<scalar> 
250
(
1.00009e-09
1.00017e-09
1.00018e-09
1.00012e-09
1.00025e-09
1.00033e-09
1.00062e-09
1.00414e-09
1.03202e-09
1.18976e-09
6.9733e-12
6.66536e-10
6.6656e-10
6.66591e-10
6.66511e-10
6.66579e-10
6.6667e-10
6.67172e-10
6.72377e-10
7.1598e-10
1.08472e-09
5.16799e-12
3.21223e-10
3.21261e-10
3.21282e-10
3.21202e-10
3.21244e-10
3.21296e-10
3.21692e-10
3.25487e-10
3.57598e-10
6.61336e-10
1.73029e-12
1.58836e-10
1.58896e-10
1.58896e-10
1.5884e-10
1.5885e-10
1.58895e-10
1.59173e-10
1.61734e-10
1.83762e-10
4.06725e-10
5.47996e-13
8.67362e-11
8.6804e-11
8.67918e-11
8.67537e-11
8.67364e-11
8.6788e-11
8.69838e-11
8.87466e-11
1.04872e-10
2.70996e-10
2.32417e-13
5.27672e-11
5.28309e-11
5.28151e-11
5.27896e-11
5.27519e-11
5.2812e-11
5.29486e-11
5.41733e-11
6.50275e-11
1.94938e-10
1.38796e-13
3.45391e-11
3.46094e-11
3.45928e-11
3.45606e-11
3.44692e-11
3.45947e-11
3.4765e-11
3.6111e-11
4.50504e-11
1.48314e-10
1.10733e-13
2.45948e-11
2.46579e-11
2.46424e-11
2.46159e-11
2.45404e-11
2.4647e-11
2.47942e-11
2.59261e-11
3.34588e-11
1.17203e-10
1.12197e-13
1.84742e-11
1.85369e-11
1.85218e-11
1.84904e-11
1.85119e-11
1.85309e-11
1.86348e-11
1.95675e-11
2.61576e-11
9.49311e-11
1.4003e-13
1.40569e-11
1.41111e-11
1.40987e-11
1.40676e-11
1.41241e-11
1.4111e-11
1.42018e-11
1.50097e-11
2.11018e-11
7.83668e-11
2.06111e-13
1.11351e-11
1.11249e-11
1.10916e-11
1.11448e-11
1.11391e-11
1.12223e-11
1.19374e-11
1.71771e-11
6.55585e-11
3.5809e-13
9.04706e-12
9.03865e-12
8.99901e-12
9.03551e-12
9.05418e-12
9.13124e-12
9.76891e-12
1.42695e-11
5.54613e-11
6.23124e-13
7.5279e-12
7.52105e-12
7.46961e-12
7.48251e-12
7.53799e-12
7.60938e-12
8.1808e-12
1.20022e-11
4.63859e-11
9.59242e-13
6.38661e-12
6.38128e-12
6.30888e-12
6.44901e-12
6.40055e-12
6.4658e-12
6.98072e-12
1.04049e-11
3.94793e-11
1.36028e-12
5.50331e-12
5.49975e-12
5.51192e-12
5.55356e-12
5.52005e-12
5.58059e-12
6.04618e-12
8.98763e-12
3.24516e-11
1.84531e-12
4.80025e-12
4.79814e-12
4.8004e-12
4.84144e-12
4.81905e-12
4.87594e-12
5.29797e-12
7.77289e-12
2.72582e-11
2.41326e-12
4.22582e-12
4.22495e-12
4.21812e-12
4.25988e-12
4.24615e-12
4.30013e-12
4.68333e-12
6.75628e-12
2.28518e-11
3.01214e-12
3.74514e-12
3.7454e-12
3.72955e-12
3.77371e-12
3.76674e-12
3.81822e-12
4.1661e-12
5.89544e-12
1.91122e-11
3.57833e-12
3.33431e-12
3.3357e-12
3.31295e-12
3.35913e-12
3.35709e-12
3.4062e-12
3.72077e-12
5.16019e-12
1.59575e-11
4.06261e-12
2.97667e-12
2.97931e-12
2.96668e-12
2.99976e-12
3.00072e-12
3.04726e-12
3.32856e-12
4.52798e-12
1.33375e-11
4.439e-12
2.66034e-12
2.66425e-12
2.68084e-12
2.68332e-12
2.68589e-12
2.72928e-12
2.97477e-12
3.98059e-12
1.08564e-11
4.69611e-12
2.37626e-12
2.38133e-12
2.39507e-12
2.40021e-12
2.40373e-12
2.44292e-12
2.69047e-12
3.50668e-12
8.74214e-12
4.83382e-12
2.14711e-12
2.15288e-12
2.16571e-12
2.17294e-12
2.17696e-12
2.21021e-12
2.43494e-12
3.09551e-12
7.2527e-12
4.85562e-12
1.94119e-12
1.94754e-12
1.94394e-12
1.9534e-12
1.95744e-12
1.99963e-12
2.19796e-12
2.73454e-12
6.04842e-12
4.76561e-12
)
;

boundaryField
{
    fuel
    {
        type            fixedValue;
        value           uniform 0;
    }
    wall
    {
        type            zeroGradient;
    }
    outlet
    {
        type            zeroGradient;
    }
    frontAndBack
    {
        type            empty;
    }
    procBoundary3to0
    {
        type            processor;
        value           nonuniform List<scalar> 10(1.75612e-12 1.76291e-12 1.75857e-12 1.76885e-12 1.77282e-12 1.80967e-12 1.99068e-12 2.44963e-12 5.07721e-12 4.57953e-12);
    }
    procBoundary3to2
    {
        type            processor;
        value           nonuniform List<scalar> 
25
(
1.00029e-09
6.66621e-10
3.21332e-10
1.58989e-10
8.6905e-11
5.29282e-11
3.47118e-11
2.47502e-11
1.86233e-11
1.41833e-11
1.10899e-11
1.10899e-11
9.00831e-12
7.4947e-12
6.35818e-12
5.47903e-12
4.77962e-12
4.20843e-12
3.73073e-12
3.32275e-12
2.96803e-12
2.6549e-12
2.37466e-12
2.14914e-12
1.93032e-12
)
;
    }
}


// ************************************************************************* //
