/*--------------------------------*- C++ -*----------------------------------*\
| =========                 |                                                 |
| \\      /  F ield         | OpenFOAM: The Open Source CFD Toolbox           |
|  \\    /   O peration     | Version:  dev                                   |
|   \\  /    A nd           | Web:      www.OpenFOAM.org                      |
|    \\/     M anipulation  |                                                 |
\*---------------------------------------------------------------------------*/
FoamFile
{
    version     2.0;
    format      ascii;
    class       volScalarField;
    location    "0.12";
    object      A2R5-;
}
// * * * * * * * * * * * * * * * * * * * * * * * * * * * * * * * * * * * * * //

dimensions      [0 0 0 0 0 0 0];

internalField   nonuniform List<scalar> 
250
(
1.46608e-08
1.46631e-08
1.46635e-08
1.46634e-08
1.46622e-08
1.46638e-08
1.46855e-08
1.47497e-08
1.53286e-08
1.73228e-08
8.82496e-10
2.75692e-08
2.75741e-08
2.75761e-08
2.75767e-08
2.75721e-08
2.75774e-08
2.76333e-08
2.78058e-08
2.93474e-08
3.49568e-08
1.99145e-09
2.83535e-08
2.83612e-08
2.83647e-08
2.83654e-08
2.83602e-08
2.83658e-08
2.8452e-08
2.86553e-08
3.07279e-08
3.728e-08
1.97045e-09
2.54454e-08
2.54554e-08
2.54607e-08
2.54605e-08
2.54545e-08
2.54601e-08
2.55705e-08
2.57624e-08
2.80739e-08
3.42984e-08
2.65686e-09
2.22343e-08
2.22464e-08
2.22534e-08
2.22518e-08
2.2242e-08
2.22511e-08
2.23763e-08
2.25478e-08
2.49739e-08
3.05923e-08
1.17788e-08
1.95635e-08
1.95776e-08
1.95854e-08
1.95822e-08
1.95657e-08
1.95828e-08
1.97128e-08
1.98584e-08
2.21128e-08
2.73185e-08
2.20185e-08
1.73719e-08
1.73915e-08
1.74028e-08
1.73963e-08
1.73632e-08
1.74066e-08
1.75605e-08
1.77521e-08
1.99879e-08
2.43944e-08
2.74123e-08
1.57064e-08
1.57292e-08
1.57404e-08
1.57316e-08
1.5703e-08
1.57462e-08
1.59005e-08
1.61114e-08
1.83254e-08
2.20134e-08
2.89854e-08
1.43451e-08
1.43703e-08
1.43811e-08
1.43695e-08
1.43722e-08
1.4381e-08
1.45079e-08
1.46221e-08
1.68922e-08
2.019e-08
2.80155e-08
1.31873e-08
1.32181e-08
1.32288e-08
1.32111e-08
1.32378e-08
1.32301e-08
1.3376e-08
1.35362e-08
1.56698e-08
1.85753e-08
2.5554e-08
1.21797e-08
1.21889e-08
1.21652e-08
1.21919e-08
1.21943e-08
1.23368e-08
1.25192e-08
1.4616e-08
1.72684e-08
2.24645e-08
1.12676e-08
1.1275e-08
1.12423e-08
1.12654e-08
1.12836e-08
1.14254e-08
1.1624e-08
1.3669e-08
1.6072e-08
1.93491e-08
1.04469e-08
1.04522e-08
1.04066e-08
1.05275e-08
1.04641e-08
1.06052e-08
1.08164e-08
1.27814e-08
1.50025e-08
1.6547e-08
9.69545e-09
9.69823e-09
9.63323e-09
9.75855e-09
9.71251e-09
9.85371e-09
1.00756e-08
1.20945e-08
1.40397e-08
1.41838e-08
8.9989e-09
8.99904e-09
9.0021e-09
9.04644e-09
9.01542e-09
9.15672e-09
9.38608e-09
1.14466e-08
1.32211e-08
1.22839e-08
8.34772e-09
8.34438e-09
8.33962e-09
8.38411e-09
8.3637e-09
8.5045e-09
8.73722e-09
1.07499e-08
1.24686e-08
1.0791e-08
7.73517e-09
7.72758e-09
7.71321e-09
7.76472e-09
7.75084e-09
7.89016e-09
8.12196e-09
1.00659e-08
1.17299e-08
9.63729e-09
7.15629e-09
7.14412e-09
7.1146e-09
7.1822e-09
7.17193e-09
7.30867e-09
7.53531e-09
9.39184e-09
1.10263e-08
8.75961e-09
6.60725e-09
6.59135e-09
6.60604e-09
6.63204e-09
6.62318e-09
6.75614e-09
6.97349e-09
8.84995e-09
1.03578e-08
8.02181e-09
6.08497e-09
6.06687e-09
6.11763e-09
6.10968e-09
6.10143e-09
6.2293e-09
6.4321e-09
8.26556e-09
9.71261e-09
7.49432e-09
5.58691e-09
5.56637e-09
5.60966e-09
5.61135e-09
5.60396e-09
5.72506e-09
5.96166e-09
7.66305e-09
9.08258e-09
7.0486e-09
5.11077e-09
5.13875e-09
5.12792e-09
5.1339e-09
5.12798e-09
5.23921e-09
5.48204e-09
7.07381e-09
8.46228e-09
6.70957e-09
4.70527e-09
4.73297e-09
4.71835e-09
4.72742e-09
4.7208e-09
4.82909e-09
5.05174e-09
6.49583e-09
7.84757e-09
6.3453e-09
4.28676e-09
4.31111e-09
4.29616e-09
4.30655e-09
4.30097e-09
4.40189e-09
4.61276e-09
5.92497e-09
7.23617e-09
6.06553e-09
)
;

boundaryField
{
    fuel
    {
        type            fixedValue;
        value           uniform 0;
    }
    wall
    {
        type            zeroGradient;
    }
    outlet
    {
        type            zeroGradient;
    }
    frontAndBack
    {
        type            empty;
    }
    procBoundary3to0
    {
        type            processor;
        value           nonuniform List<scalar> 10(3.91923e-09 3.94031e-09 3.92583e-09 3.93725e-09 3.93164e-09 4.02675e-09 4.2179e-09 5.35643e-09 6.62847e-09 5.7925e-09);
    }
    procBoundary3to2
    {
        type            processor;
        value           nonuniform List<scalar> 
25
(
1.4663e-08
2.7574e-08
2.83612e-08
2.54552e-08
2.22455e-08
1.95754e-08
1.73869e-08
1.57227e-08
1.43625e-08
1.32073e-08
1.21525e-08
1.21525e-08
1.12496e-08
1.04408e-08
9.70069e-09
9.01324e-09
8.36832e-09
7.75918e-09
7.18095e-09
6.63007e-09
6.1039e-09
5.60014e-09
5.11615e-09
4.70112e-09
4.30722e-09
)
;
    }
}


// ************************************************************************* //
