/*--------------------------------*- C++ -*----------------------------------*\
| =========                 |                                                 |
| \\      /  F ield         | OpenFOAM: The Open Source CFD Toolbox           |
|  \\    /   O peration     | Version:  dev                                   |
|   \\  /    A nd           | Web:      www.OpenFOAM.org                      |
|    \\/     M anipulation  |                                                 |
\*---------------------------------------------------------------------------*/
FoamFile
{
    version     2.0;
    format      ascii;
    class       volScalarField;
    location    "0.12";
    object      C4H;
}
// * * * * * * * * * * * * * * * * * * * * * * * * * * * * * * * * * * * * * //

dimensions      [0 0 0 0 0 0 0];

internalField   nonuniform List<scalar> 
13
(
1.91979e-12
1.42307e-12
1.04767e-12
7.65736e-13
5.55484e-13
3.98337e-13
2.84085e-13
2.00865e-13
1.4077e-13
9.77631e-14
6.72178e-14
4.58147e-14
3.0953e-14
)
;

boundaryField
{
    wall
    {
        type            zeroGradient;
    }
    fuel
    {
        type            fixedValue;
        value           nonuniform 0();
    }
    outlet
    {
        type            inletOutlet;
        inletValue      nonuniform 0();
        value           nonuniform 0();
    }
    procBoundary3to2
    {
        type            processor;
        value           uniform 2.56839e-12;
    }
    procBoundary3to4
    {
        type            processor;
        value           uniform 2.07456e-14;
    }
}


// ************************************************************************* //
