/*--------------------------------*- C++ -*----------------------------------*\
| =========                 |                                                 |
| \\      /  F ield         | OpenFOAM: The Open Source CFD Toolbox           |
|  \\    /   O peration     | Version:  dev                                   |
|   \\  /    A nd           | Web:      www.OpenFOAM.org                      |
|    \\/     M anipulation  |                                                 |
\*---------------------------------------------------------------------------*/
FoamFile
{
    version     2.0;
    format      ascii;
    class       volScalarField;
    location    "0.12";
    object      CO;
}
// * * * * * * * * * * * * * * * * * * * * * * * * * * * * * * * * * * * * * //

dimensions      [0 0 0 0 0 0 0];

internalField   nonuniform List<scalar> 
250
(
0.134871
0.134871
0.134872
0.134871
0.134872
0.134871
0.134867
0.134823
0.134457
0.131581
0.0136505
0.157019
0.157019
0.157018
0.15702
0.15702
0.157018
0.157011
0.15695
0.156477
0.153112
0.0377208
0.163413
0.163412
0.163411
0.163414
0.163415
0.163411
0.163399
0.163311
0.162677
0.158441
0.0622717
0.166303
0.166299
0.166299
0.166302
0.166306
0.166299
0.166282
0.166163
0.165351
0.160258
0.0851728
0.168128
0.168122
0.168123
0.168127
0.168135
0.168122
0.168099
0.167949
0.166957
0.161153
0.105026
0.16953
0.169521
0.169523
0.169529
0.169542
0.169522
0.169492
0.169309
0.168225
0.161806
0.121264
0.170782
0.170769
0.170771
0.170781
0.170802
0.170769
0.170726
0.170468
0.16924
0.162427
0.134002
0.171867
0.17185
0.171853
0.171865
0.171883
0.171849
0.171798
0.171497
0.170153
0.163088
0.143739
0.172873
0.172852
0.172856
0.172872
0.172869
0.17285
0.172796
0.172461
0.171004
0.163811
0.151103
0.17393
0.173906
0.173911
0.173932
0.173916
0.173902
0.17384
0.173463
0.171841
0.164589
0.156663
0.174897
0.174902
0.174931
0.174911
0.17489
0.174821
0.174403
0.172729
0.165417
0.160868
0.175833
0.175839
0.175879
0.175859
0.175824
0.175747
0.175293
0.173593
0.166272
0.164031
0.176723
0.176728
0.176783
0.176768
0.17671
0.176627
0.176141
0.174444
0.167252
0.166396
0.177568
0.177573
0.177651
0.177522
0.17755
0.177463
0.176949
0.175169
0.168175
0.168171
0.178372
0.178376
0.178374
0.178326
0.178349
0.178258
0.177721
0.175935
0.16931
0.169523
0.179135
0.179139
0.179146
0.179092
0.179108
0.179013
0.178458
0.176708
0.170304
0.170575
0.179859
0.179861
0.179879
0.179818
0.179828
0.179729
0.179161
0.177456
0.171293
0.171422
0.180542
0.180544
0.180576
0.180506
0.180508
0.180405
0.179832
0.178179
0.172268
0.172135
0.181186
0.181186
0.18123
0.181152
0.181148
0.181042
0.180472
0.178874
0.17322
0.172766
0.181788
0.181787
0.181812
0.181755
0.181747
0.18164
0.181082
0.179538
0.174137
0.173353
0.182349
0.182347
0.182316
0.182315
0.182305
0.182197
0.181668
0.180167
0.175147
0.173924
0.182869
0.182865
0.182836
0.182831
0.18282
0.182715
0.182155
0.180757
0.176152
0.17449
0.183289
0.183284
0.183255
0.183247
0.183234
0.183138
0.182599
0.181304
0.176975
0.175055
0.183659
0.183654
0.183654
0.183643
0.18363
0.183515
0.18301
0.181808
0.177745
0.175623
)
;

boundaryField
{
    fuel
    {
        type            fixedValue;
        value           uniform 0;
    }
    wall
    {
        type            zeroGradient;
    }
    outlet
    {
        type            zeroGradient;
    }
    frontAndBack
    {
        type            empty;
    }
    procBoundary3to0
    {
        type            processor;
        value           nonuniform List<scalar> 10(0.183978 0.183973 0.183974 0.183962 0.183949 0.183842 0.183361 0.182215 0.178459 0.176191);
    }
    procBoundary3to2
    {
        type            processor;
        value           nonuniform List<scalar> 
25
(
0.134871
0.157018
0.163409
0.166294
0.168115
0.169511
0.170755
0.171832
0.17283
0.173881
0.174923
0.174923
0.175861
0.176751
0.177597
0.1784
0.179162
0.179885
0.180566
0.181207
0.181806
0.182362
0.182874
0.183287
0.183682
)
;
    }
}


// ************************************************************************* //
