/*--------------------------------*- C++ -*----------------------------------*\
| =========                 |                                                 |
| \\      /  F ield         | OpenFOAM: The Open Source CFD Toolbox           |
|  \\    /   O peration     | Version:  dev                                   |
|   \\  /    A nd           | Web:      www.OpenFOAM.org                      |
|    \\/     M anipulation  |                                                 |
\*---------------------------------------------------------------------------*/
FoamFile
{
    version     2.0;
    format      ascii;
    class       volScalarField;
    location    "0.12";
    object      H2;
}
// * * * * * * * * * * * * * * * * * * * * * * * * * * * * * * * * * * * * * //

dimensions      [0 0 0 0 0 0 0];

internalField   nonuniform List<scalar> 
250
(
0.00610377
0.0061037
0.00610369
0.00610371
0.0061037
0.0061037
0.00610324
0.00610185
0.00609041
0.00602534
0.000394441
0.00702543
0.00702523
0.00702521
0.00702525
0.00702519
0.00702532
0.00702387
0.00702261
0.00700016
0.00692123
0.00106371
0.00745002
0.00744967
0.0074496
0.00744968
0.00744964
0.00744983
0.00744714
0.0074458
0.00740882
0.00730322
0.0018468
0.00771309
0.00771256
0.00771243
0.00771256
0.00771268
0.00771273
0.00770886
0.00770739
0.00765591
0.0075273
0.00351998
0.00789461
0.00789387
0.00789368
0.00789388
0.00789434
0.00789404
0.00788917
0.00788749
0.00782145
0.00767396
0.00588843
0.00803055
0.00802958
0.00802936
0.00802964
0.00803062
0.00802971
0.0080241
0.0080227
0.00795308
0.0077783
0.00650782
0.00814483
0.00814342
0.00814301
0.00814349
0.00814552
0.00814302
0.00813546
0.00813094
0.00805094
0.00786318
0.00673036
0.00823817
0.00823642
0.008236
0.00823664
0.00823848
0.00823591
0.0082276
0.00822134
0.00813192
0.00793157
0.00681054
0.00832086
0.00831883
0.0083184
0.00831926
0.00831909
0.0083187
0.00831147
0.00831083
0.00820727
0.00798614
0.0068282
0.00839653
0.00839402
0.00839356
0.00839487
0.00839308
0.00839379
0.00838469
0.00838095
0.00827716
0.00803915
0.00682461
0.00846653
0.00846612
0.00846793
0.00846608
0.00846609
0.00845667
0.00845104
0.00834199
0.00808683
0.00682046
0.00853374
0.00853341
0.008536
0.00853429
0.00853314
0.00852332
0.00851605
0.0084039
0.00813654
0.00682603
0.00859678
0.00859656
0.00860029
0.00859068
0.00859604
0.00858588
0.00857709
0.00846485
0.00818735
0.00684682
0.00865636
0.0086563
0.00866175
0.00865153
0.00865559
0.00864507
0.00863479
0.00851318
0.00823935
0.00688597
0.00871295
0.00871306
0.00871287
0.00870932
0.00871218
0.00870133
0.0086897
0.00855977
0.00828887
0.00694438
0.00876684
0.00876722
0.00876768
0.00876411
0.00876608
0.00875497
0.00874224
0.00861113
0.00833951
0.00702184
0.00881824
0.00881899
0.00882031
0.00881609
0.00881748
0.00880622
0.00879267
0.00866244
0.00839419
0.00711616
0.00886731
0.00886851
0.0088712
0.00886548
0.00886654
0.00885523
0.00884117
0.00871363
0.00845039
0.00722364
0.00891419
0.0089158
0.00891453
0.00891247
0.00891337
0.00890213
0.00888791
0.00875465
0.00850694
0.00735622
0.00895897
0.00896089
0.00895624
0.00895727
0.00895808
0.00894704
0.00893309
0.00879905
0.00856366
0.0074842
0.00900177
0.00900399
0.00899988
0.00900009
0.0090008
0.0089901
0.0089721
0.00884487
0.00862026
0.00762568
0.00904269
0.00904046
0.00904126
0.00904111
0.00904166
0.00903161
0.00901181
0.00888951
0.00867629
0.00775634
0.00907707
0.00907475
0.00907597
0.00907556
0.00907615
0.00906616
0.00904701
0.00893301
0.00873141
0.00791464
0.00911239
0.00911031
0.0091116
0.0091111
0.00911156
0.00910203
0.0090827
0.00897567
0.00878521
0.00804432
)
;

boundaryField
{
    fuel
    {
        type            fixedValue;
        value           uniform 0;
    }
    wall
    {
        type            zeroGradient;
    }
    outlet
    {
        type            zeroGradient;
    }
    frontAndBack
    {
        type            empty;
    }
    procBoundary3to0
    {
        type            processor;
        value           nonuniform List<scalar> 10(0.00914281 0.00914101 0.00914227 0.0091417 0.00914213 0.00913296 0.00911425 0.00901796 0.00883756 0.00817128);
    }
    procBoundary3to2
    {
        type            processor;
        value           nonuniform List<scalar> 
25
(
0.00610375
0.00702533
0.00744984
0.00771282
0.00789424
0.00803008
0.00814413
0.00823731
0.00831984
0.00839527
0.00846887
0.00846887
0.00853543
0.00859752
0.00865612
0.00871186
0.00876512
0.00881612
0.00886503
0.00891197
0.00895703
0.00900029
0.0090419
0.00907718
0.00911028
)
;
    }
}


// ************************************************************************* //
