/*--------------------------------*- C++ -*----------------------------------*\
| =========                 |                                                 |
| \\      /  F ield         | OpenFOAM: The Open Source CFD Toolbox           |
|  \\    /   O peration     | Version:  dev                                   |
|   \\  /    A nd           | Web:      www.OpenFOAM.org                      |
|    \\/     M anipulation  |                                                 |
\*---------------------------------------------------------------------------*/
FoamFile
{
    version     2.0;
    format      ascii;
    class       volScalarField;
    location    "0.12";
    object      P2-;
}
// * * * * * * * * * * * * * * * * * * * * * * * * * * * * * * * * * * * * * //

dimensions      [0 0 0 0 0 0 0];

internalField   nonuniform List<scalar> 
250
(
3.10395e-09
3.10418e-09
3.10412e-09
3.10405e-09
3.10408e-09
3.10375e-09
3.10745e-09
3.11113e-09
3.17723e-09
3.35268e-09
1.19405e-10
4.61665e-09
4.61697e-09
4.61702e-09
4.61689e-09
4.61728e-09
4.61572e-09
4.62786e-09
4.64139e-09
4.86662e-09
5.72201e-09
2.03779e-10
2.974e-09
2.97445e-09
2.97456e-09
2.97424e-09
2.97579e-09
2.9724e-09
2.98992e-09
2.99605e-09
3.25958e-09
4.15805e-09
1.3398e-10
1.5287e-09
1.52909e-09
1.52928e-09
1.5289e-09
1.53064e-09
1.52706e-09
1.54367e-09
1.54207e-09
1.76445e-09
2.45352e-09
3.87914e-10
7.5535e-10
7.55619e-10
7.55789e-10
7.55481e-10
7.56682e-10
7.54038e-10
7.66607e-10
7.62433e-10
9.33111e-10
1.44229e-09
2.67422e-09
3.87352e-10
3.87505e-10
3.87586e-10
3.87395e-10
3.87986e-10
3.86377e-10
3.9472e-10
3.89702e-10
4.90273e-10
9.06215e-10
5.75344e-09
2.05675e-10
2.05946e-10
2.0615e-10
2.05963e-10
2.0548e-10
2.0571e-10
2.12411e-10
2.12056e-10
2.83771e-10
5.99442e-10
7.41788e-09
1.19515e-10
1.19721e-10
1.1985e-10
1.19726e-10
1.19283e-10
1.19666e-10
1.2418e-10
1.24768e-10
1.76453e-10
4.30806e-10
8.13702e-09
7.41902e-11
7.43416e-11
7.44223e-11
7.43381e-11
7.45456e-11
7.41745e-11
7.65523e-11
7.45929e-11
1.13649e-10
3.37687e-10
8.15754e-09
4.87509e-11
4.89451e-11
4.90066e-11
4.89055e-11
4.94382e-11
4.88465e-11
5.07357e-11
5.04268e-11
7.73391e-11
2.7363e-10
7.59206e-09
3.38523e-11
3.38902e-11
3.37959e-11
3.41429e-11
3.38245e-11
3.50849e-11
3.52921e-11
5.58146e-11
2.30729e-10
6.63416e-09
2.48566e-11
2.488e-11
2.47711e-11
2.49114e-11
2.48623e-11
2.57638e-11
2.6199e-11
4.22304e-11
1.96066e-10
5.51404e-09
1.91664e-11
1.91796e-11
1.90367e-11
1.96742e-11
1.91872e-11
1.98617e-11
2.04005e-11
3.30154e-11
1.6757e-10
4.41831e-09
1.53573e-11
1.53628e-11
1.51543e-11
1.56793e-11
1.53803e-11
1.59099e-11
1.64991e-11
2.75768e-11
1.43389e-10
3.4514e-09
1.26751e-11
1.26751e-11
1.2721e-11
1.28689e-11
1.2696e-11
1.31291e-11
1.37347e-11
2.35523e-11
1.23878e-10
2.66014e-09
1.07016e-11
1.06956e-11
1.07093e-11
1.08167e-11
1.07197e-11
1.10846e-11
1.1682e-11
2.01072e-11
1.06925e-10
2.03903e-09
9.19473e-12
9.18214e-12
9.16794e-12
9.26515e-12
9.21048e-12
9.52394e-12
1.0097e-11
1.73459e-11
9.14133e-11
1.56622e-09
8.00863e-12
7.98937e-12
7.94203e-12
8.05453e-12
8.02269e-12
8.2953e-12
8.834e-12
1.50655e-11
7.78355e-11
1.21496e-09
7.0524e-12
7.02795e-12
7.05415e-12
7.08564e-12
7.06537e-12
7.304e-12
7.80227e-12
1.34854e-11
6.60499e-11
9.27437e-10
6.26736e-12
6.23993e-12
6.31517e-12
6.29352e-12
6.27964e-12
6.48887e-12
6.94033e-12
1.20013e-11
5.59357e-11
7.30239e-10
5.6143e-12
5.58376e-12
5.64357e-12
5.63538e-12
5.62603e-12
5.80876e-12
6.28302e-12
1.06591e-11
4.72221e-11
5.71704e-10
5.06594e-12
5.09085e-12
5.08498e-12
5.08224e-12
5.07682e-12
5.23347e-12
5.69069e-12
9.50078e-12
3.97441e-11
4.59317e-10
4.6543e-12
4.67813e-12
4.66717e-12
4.66748e-12
4.66282e-12
4.80514e-12
5.21988e-12
8.49371e-12
3.33247e-11
3.5217e-10
4.2813e-12
4.30086e-12
4.28939e-12
4.29039e-12
4.28788e-12
4.41262e-12
4.79504e-12
7.61069e-12
2.79024e-11
2.80906e-10
)
;

boundaryField
{
    fuel
    {
        type            fixedValue;
        value           uniform 0;
    }
    wall
    {
        type            zeroGradient;
    }
    outlet
    {
        type            zeroGradient;
    }
    frontAndBack
    {
        type            empty;
    }
    procBoundary3to0
    {
        type            processor;
        value           nonuniform List<scalar> 10(3.99507e-12 4.01045e-12 3.99992e-12 4.00102e-12 3.99945e-12 4.11045e-12 4.45796e-12 6.82808e-12 2.33282e-11 2.22321e-10);
    }
    procBoundary3to2
    {
        type            processor;
        value           nonuniform List<scalar> 
25
(
3.10417e-09
4.6169e-09
2.97441e-09
1.52909e-09
7.55621e-10
3.87502e-10
2.05886e-10
1.19664e-10
7.42969e-11
4.8866e-11
3.37225e-11
3.37225e-11
2.47904e-11
1.91565e-11
1.53864e-11
1.27255e-11
1.07606e-11
9.25441e-12
8.06402e-12
7.10029e-12
6.30585e-12
5.64237e-12
5.0826e-12
4.65949e-12
4.30603e-12
)
;
    }
}


// ************************************************************************* //
