/*--------------------------------*- C++ -*----------------------------------*\
| =========                 |                                                 |
| \\      /  F ield         | OpenFOAM: The Open Source CFD Toolbox           |
|  \\    /   O peration     | Version:  dev                                   |
|   \\  /    A nd           | Web:      www.OpenFOAM.org                      |
|    \\/     M anipulation  |                                                 |
\*---------------------------------------------------------------------------*/
FoamFile
{
    version     2.0;
    format      ascii;
    class       volScalarField;
    location    "0.07";
    object      A2;
}
// * * * * * * * * * * * * * * * * * * * * * * * * * * * * * * * * * * * * * //

dimensions      [0 0 0 0 0 0 0];

internalField   nonuniform List<scalar> 
25
(
1.16178e-10
3.25126e-11
8.72801e-12
2.36417e-12
6.4451e-13
1.85999e-13
5.81411e-14
2.14571e-14
1.01049e-14
5.92556e-15
4.11343e-15
3.12201e-15
2.49436e-15
2.04593e-15
1.69825e-15
1.41477e-15
1.17737e-15
9.76468e-16
8.06373e-16
6.63086e-16
5.43324e-16
4.44125e-16
3.62701e-16
2.9638e-16
2.42526e-16
)
;

boundaryField
{
    wall
    {
        type            zeroGradient;
    }
    fuel
    {
        type            fixedValue;
        value           uniform 0;
    }
    outlet
    {
        type            inletOutlet;
        inletValue      nonuniform 0();
        value           nonuniform 0();
    }
    procBoundary0to1
    {
        type            processor;
        value           uniform 1.99936e-16;
    }
}


// ************************************************************************* //
