/*--------------------------------*- C++ -*----------------------------------*\
| =========                 |                                                 |
| \\      /  F ield         | OpenFOAM: The Open Source CFD Toolbox           |
|  \\    /   O peration     | Version:  dev                                   |
|   \\  /    A nd           | Web:      www.OpenFOAM.org                      |
|    \\/     M anipulation  |                                                 |
\*---------------------------------------------------------------------------*/
FoamFile
{
    version     2.0;
    format      ascii;
    class       volScalarField;
    location    "0.07";
    object      C6H5OH;
}
// * * * * * * * * * * * * * * * * * * * * * * * * * * * * * * * * * * * * * //

dimensions      [0 0 0 0 0 0 0];

internalField   nonuniform List<scalar> 
25
(
4.05657e-11
1.26098e-10
1.8923e-10
2.15744e-10
2.02898e-10
1.63997e-10
1.18841e-10
8.09308e-11
5.33956e-11
3.49208e-11
2.30684e-11
1.56096e-11
1.09551e-11
8.09599e-12
6.37076e-12
5.3897e-12
4.92272e-12
4.83693e-12
5.05715e-12
5.54169e-12
6.26766e-12
7.2223e-12
8.39682e-12
9.78471e-12
1.13785e-11
)
;

boundaryField
{
    wall
    {
        type            zeroGradient;
    }
    fuel
    {
        type            fixedValue;
        value           uniform 0;
    }
    outlet
    {
        type            inletOutlet;
        inletValue      nonuniform 0();
        value           nonuniform 0();
    }
    procBoundary0to1
    {
        type            processor;
        value           uniform 1.31677e-11;
    }
}


// ************************************************************************* //
