/*--------------------------------*- C++ -*----------------------------------*\
| =========                 |                                                 |
| \\      /  F ield         | OpenFOAM: The Open Source CFD Toolbox           |
|  \\    /   O peration     | Version:  dev                                   |
|   \\  /    A nd           | Web:      www.OpenFOAM.org                      |
|    \\/     M anipulation  |                                                 |
\*---------------------------------------------------------------------------*/
FoamFile
{
    version     2.0;
    format      ascii;
    class       volScalarField;
    location    "0.07";
    object      HCCO;
}
// * * * * * * * * * * * * * * * * * * * * * * * * * * * * * * * * * * * * * //

dimensions      [0 0 0 0 0 0 0];

internalField   nonuniform List<scalar> 
25
(
0.000128492
8.3769e-05
4.45125e-05
2.26441e-05
1.15635e-05
6.20759e-06
3.46502e-06
2.02551e-06
1.24755e-06
7.9312e-07
5.24756e-07
3.53333e-07
2.41709e-07
1.66696e-07
1.152e-07
7.94507e-08
5.45658e-08
3.7298e-08
2.53943e-08
1.7254e-08
1.17323e-08
8.01402e-09
5.52471e-09
3.86381e-09
2.75444e-09
)
;

boundaryField
{
    wall
    {
        type            zeroGradient;
    }
    fuel
    {
        type            fixedValue;
        value           uniform 0;
    }
    outlet
    {
        type            inletOutlet;
        inletValue      nonuniform 0();
        value           nonuniform 0();
    }
    procBoundary0to1
    {
        type            processor;
        value           uniform 2.00525e-09;
    }
}


// ************************************************************************* //
