/*--------------------------------*- C++ -*----------------------------------*\
| =========                 |                                                 |
| \\      /  F ield         | OpenFOAM: The Open Source CFD Toolbox           |
|  \\    /   O peration     | Version:  dev                                   |
|   \\  /    A nd           | Web:      www.OpenFOAM.org                      |
|    \\/     M anipulation  |                                                 |
\*---------------------------------------------------------------------------*/
FoamFile
{
    version     2.0;
    format      ascii;
    class       volScalarField;
    location    "0.07";
    object      n-C4H5;
}
// * * * * * * * * * * * * * * * * * * * * * * * * * * * * * * * * * * * * * //

dimensions      [0 0 0 0 0 0 0];

internalField   nonuniform List<scalar> 
25
(
1.4615e-08
5.02749e-09
1.62906e-09
5.31987e-10
1.77491e-10
6.30387e-11
2.40658e-11
9.87102e-12
4.33953e-12
1.95816e-12
9.13978e-13
4.2673e-13
2.0048e-13
9.47068e-14
4.50818e-14
2.17094e-14
1.0628e-14
5.31617e-15
2.72863e-15
1.44115e-15
7.83962e-16
4.38886e-16
2.52448e-16
1.49103e-16
9.07658e-17
)
;

boundaryField
{
    wall
    {
        type            zeroGradient;
    }
    fuel
    {
        type            fixedValue;
        value           uniform 0;
    }
    outlet
    {
        type            inletOutlet;
        inletValue      nonuniform 0();
        value           nonuniform 0();
    }
    procBoundary0to1
    {
        type            processor;
        value           uniform 5.63151e-17;
    }
}


// ************************************************************************* //
