/*--------------------------------*- C++ -*----------------------------------*\
| =========                 |                                                 |
| \\      /  F ield         | OpenFOAM: The Open Source CFD Toolbox           |
|  \\    /   O peration     | Version:  dev                                   |
|   \\  /    A nd           | Web:      www.OpenFOAM.org                      |
|    \\/     M anipulation  |                                                 |
\*---------------------------------------------------------------------------*/
FoamFile
{
    version     2.0;
    format      ascii;
    class       volScalarField;
    location    "0.07";
    object      P2-;
}
// * * * * * * * * * * * * * * * * * * * * * * * * * * * * * * * * * * * * * //

dimensions      [0 0 0 0 0 0 0];

internalField   nonuniform List<scalar> 
25
(
3.34203e-16
5.27034e-16
6.7619e-16
6.75532e-16
5.47566e-16
3.79508e-16
2.39685e-16
1.47713e-16
9.24031e-17
6.04767e-17
4.23525e-17
3.20921e-17
2.63698e-17
2.33762e-17
2.2062e-17
2.1803e-17
2.21614e-17
2.27861e-17
2.33857e-17
2.37341e-17
2.36828e-17
2.31655e-17
2.21905e-17
2.08237e-17
1.91657e-17
)
;

boundaryField
{
    wall
    {
        type            zeroGradient;
    }
    fuel
    {
        type            fixedValue;
        value           uniform 0;
    }
    outlet
    {
        type            inletOutlet;
        inletValue      nonuniform 0();
        value           nonuniform 0();
    }
    procBoundary0to1
    {
        type            processor;
        value           uniform 1.73285e-17;
    }
}


// ************************************************************************* //
