/*--------------------------------*- C++ -*----------------------------------*\
| =========                 |                                                 |
| \\      /  F ield         | OpenFOAM: The Open Source CFD Toolbox           |
|  \\    /   O peration     | Version:  dev                                   |
|   \\  /    A nd           | Web:      www.OpenFOAM.org                      |
|    \\/     M anipulation  |                                                 |
\*---------------------------------------------------------------------------*/
FoamFile
{
    version     2.0;
    format      ascii;
    class       volScalarField;
    location    "0.07";
    object      P2-H;
}
// * * * * * * * * * * * * * * * * * * * * * * * * * * * * * * * * * * * * * //

dimensions      [0 0 0 0 0 0 0];

internalField   nonuniform List<scalar> 
25
(
8.31486e-22
2.42778e-21
4.05872e-21
4.68988e-21
4.13869e-21
2.96058e-21
1.8472e-21
1.08819e-21
6.29081e-22
3.67737e-22
2.23938e-22
1.46652e-22
1.03372e-22
8.25325e-23
7.33371e-23
7.08649e-23
7.22172e-23
7.55159e-23
7.94447e-23
8.30806e-23
8.58431e-23
8.74727e-23
8.79848e-23
8.7607e-23
8.66907e-23
)
;

boundaryField
{
    wall
    {
        type            zeroGradient;
    }
    fuel
    {
        type            fixedValue;
        value           uniform 0;
    }
    outlet
    {
        type            inletOutlet;
        inletValue      nonuniform 0();
        value           nonuniform 0();
    }
    procBoundary0to1
    {
        type            processor;
        value           uniform 8.55802e-23;
    }
}


// ************************************************************************* //
