/*--------------------------------*- C++ -*----------------------------------*\
| =========                 |                                                 |
| \\      /  F ield         | OpenFOAM: The Open Source CFD Toolbox           |
|  \\    /   O peration     | Version:  dev                                   |
|   \\  /    A nd           | Web:      www.OpenFOAM.org                      |
|    \\/     M anipulation  |                                                 |
\*---------------------------------------------------------------------------*/
FoamFile
{
    version     2.0;
    format      ascii;
    class       volScalarField;
    location    "0.09";
    object      A2C2HA*;
}
// * * * * * * * * * * * * * * * * * * * * * * * * * * * * * * * * * * * * * //

dimensions      [0 0 0 0 0 0 0];

internalField   nonuniform List<scalar> 
25
(
5.64738e-18
4.44561e-18
3.5949e-18
2.99896e-18
2.59567e-18
2.33143e-18
2.17813e-18
2.11694e-18
2.1354e-18
2.22541e-18
2.3818e-18
2.60143e-18
2.88241e-18
3.22369e-18
3.6315e-18
4.10299e-18
4.62259e-18
5.19943e-18
5.83026e-18
6.50999e-18
7.23156e-18
7.98569e-18
8.76098e-18
9.54399e-18
1.03195e-17
)
;

boundaryField
{
    wall
    {
        type            zeroGradient;
    }
    fuel
    {
        type            fixedValue;
        value           nonuniform 0();
    }
    outlet
    {
        type            inletOutlet;
        inletValue      nonuniform 0();
        value           nonuniform 0();
    }
    procBoundary1to0
    {
        type            processor;
        value           uniform 7.34112e-18;
    }
    procBoundary1to2
    {
        type            processor;
        value           uniform 1.10726e-17;
    }
}


// ************************************************************************* //
