/*--------------------------------*- C++ -*----------------------------------*\
| =========                 |                                                 |
| \\      /  F ield         | OpenFOAM: The Open Source CFD Toolbox           |
|  \\    /   O peration     | Version:  dev                                   |
|   \\  /    A nd           | Web:      www.OpenFOAM.org                      |
|    \\/     M anipulation  |                                                 |
\*---------------------------------------------------------------------------*/
FoamFile
{
    version     2.0;
    format      ascii;
    class       volScalarField;
    location    "0.09";
    object      A2R5;
}
// * * * * * * * * * * * * * * * * * * * * * * * * * * * * * * * * * * * * * //

dimensions      [0 0 0 0 0 0 0];

internalField   nonuniform List<scalar> 
25
(
3.26104e-14
2.71154e-14
2.3148e-14
2.03666e-14
1.85567e-14
1.75305e-14
1.7216e-14
1.75877e-14
1.86577e-14
2.04685e-14
2.30897e-14
2.66145e-14
3.11584e-14
3.68588e-14
4.39972e-14
5.2736e-14
6.30119e-14
7.52512e-14
8.9703e-14
1.06634e-13
1.26328e-13
1.49076e-13
1.75178e-13
2.04926e-13
2.38603e-13
)
;

boundaryField
{
    wall
    {
        type            zeroGradient;
    }
    fuel
    {
        type            fixedValue;
        value           nonuniform 0();
    }
    outlet
    {
        type            inletOutlet;
        inletValue      nonuniform 0();
        value           nonuniform 0();
    }
    procBoundary1to0
    {
        type            processor;
        value           uniform 4.01607e-14;
    }
    procBoundary1to2
    {
        type            processor;
        value           uniform 2.76461e-13;
    }
}


// ************************************************************************* //
