/*--------------------------------*- C++ -*----------------------------------*\
| =========                 |                                                 |
| \\      /  F ield         | OpenFOAM: The Open Source CFD Toolbox           |
|  \\    /   O peration     | Version:  dev                                   |
|   \\  /    A nd           | Web:      www.OpenFOAM.org                      |
|    \\/     M anipulation  |                                                 |
\*---------------------------------------------------------------------------*/
FoamFile
{
    version     2.0;
    format      ascii;
    class       volScalarField;
    location    "0.09";
    object      A4-;
}
// * * * * * * * * * * * * * * * * * * * * * * * * * * * * * * * * * * * * * //

dimensions      [0 0 0 0 0 0 0];

internalField   nonuniform List<scalar> 
2000
(
1.05752e-10
1.05402e-10
1.05131e-10
1.04992e-10
1.04985e-10
1.04938e-10
1.04955e-10
1.04931e-10
1.04947e-10
1.04933e-10
1.04944e-10
1.04935e-10
1.04943e-10
1.04937e-10
1.04942e-10
1.04938e-10
1.04942e-10
1.04939e-10
1.04941e-10
1.0494e-10
1.04941e-10
1.0494e-10
1.04941e-10
1.04941e-10
1.04941e-10
1.04941e-10
1.04941e-10
1.04941e-10
1.0494e-10
1.04941e-10
1.0494e-10
1.04941e-10
1.04939e-10
1.04942e-10
1.04938e-10
1.04942e-10
1.04937e-10
1.04943e-10
1.04935e-10
1.04944e-10
1.04933e-10
1.04947e-10
1.04932e-10
1.04955e-10
1.04938e-10
1.04985e-10
1.04992e-10
1.05131e-10
1.05402e-10
1.05752e-10
3.42902e-10
3.4198e-10
3.41148e-10
3.40721e-10
3.40701e-10
3.40555e-10
3.40606e-10
3.40533e-10
3.40582e-10
3.40538e-10
3.40574e-10
3.40544e-10
3.4057e-10
3.40551e-10
3.40567e-10
3.40555e-10
3.40567e-10
3.40557e-10
3.40565e-10
3.40559e-10
3.40564e-10
3.40561e-10
3.40564e-10
3.40562e-10
3.40563e-10
3.40563e-10
3.40562e-10
3.40564e-10
3.40561e-10
3.40564e-10
3.40559e-10
3.40565e-10
3.40557e-10
3.40567e-10
3.40555e-10
3.40567e-10
3.40551e-10
3.4057e-10
3.40545e-10
3.40574e-10
3.40538e-10
3.40582e-10
3.40534e-10
3.40607e-10
3.40555e-10
3.40701e-10
3.40722e-10
3.41148e-10
3.4198e-10
3.42902e-10
7.13211e-10
7.11353e-10
7.0957e-10
7.08676e-10
7.08605e-10
7.08312e-10
7.08407e-10
7.08264e-10
7.08358e-10
7.08272e-10
7.08341e-10
7.08285e-10
7.08333e-10
7.08298e-10
7.08329e-10
7.08305e-10
7.08328e-10
7.0831e-10
7.08324e-10
7.08314e-10
7.08323e-10
7.08317e-10
7.08323e-10
7.08319e-10
7.08321e-10
7.08321e-10
7.08319e-10
7.08323e-10
7.08317e-10
7.08323e-10
7.08314e-10
7.08324e-10
7.0831e-10
7.08328e-10
7.08305e-10
7.0833e-10
7.08298e-10
7.08333e-10
7.08285e-10
7.08341e-10
7.08272e-10
7.08358e-10
7.08264e-10
7.08407e-10
7.08312e-10
7.08605e-10
7.08676e-10
7.0957e-10
7.11352e-10
7.13211e-10
1.16552e-09
1.16266e-09
1.15978e-09
1.15835e-09
1.15819e-09
1.15774e-09
1.15786e-09
1.15765e-09
1.15779e-09
1.15766e-09
1.15776e-09
1.15768e-09
1.15775e-09
1.1577e-09
1.15775e-09
1.15771e-09
1.15775e-09
1.15772e-09
1.15774e-09
1.15772e-09
1.15774e-09
1.15773e-09
1.15774e-09
1.15773e-09
1.15773e-09
1.15773e-09
1.15773e-09
1.15774e-09
1.15773e-09
1.15774e-09
1.15772e-09
1.15774e-09
1.15772e-09
1.15774e-09
1.15771e-09
1.15775e-09
1.1577e-09
1.15775e-09
1.15768e-09
1.15776e-09
1.15766e-09
1.15779e-09
1.15765e-09
1.15786e-09
1.15774e-09
1.15819e-09
1.15835e-09
1.15978e-09
1.16266e-09
1.16552e-09
1.63262e-09
1.62885e-09
1.6249e-09
1.62295e-09
1.62265e-09
1.62206e-09
1.6222e-09
1.62193e-09
1.62209e-09
1.62194e-09
1.62206e-09
1.62196e-09
1.62205e-09
1.62198e-09
1.62204e-09
1.622e-09
1.62204e-09
1.62201e-09
1.62203e-09
1.62202e-09
1.62203e-09
1.62202e-09
1.62203e-09
1.62203e-09
1.62203e-09
1.62203e-09
1.62203e-09
1.62203e-09
1.62202e-09
1.62203e-09
1.62202e-09
1.62203e-09
1.62201e-09
1.62204e-09
1.622e-09
1.62204e-09
1.62198e-09
1.62205e-09
1.62196e-09
1.62206e-09
1.62194e-09
1.62209e-09
1.62193e-09
1.6222e-09
1.62206e-09
1.62265e-09
1.62295e-09
1.6249e-09
1.62885e-09
1.63262e-09
2.06057e-09
2.05616e-09
2.05142e-09
2.04904e-09
2.04861e-09
2.0479e-09
2.04803e-09
2.04772e-09
2.0479e-09
2.04773e-09
2.04786e-09
2.04775e-09
2.04785e-09
2.04778e-09
2.04784e-09
2.0478e-09
2.04784e-09
2.04781e-09
2.04784e-09
2.04782e-09
2.04783e-09
2.04782e-09
2.04783e-09
2.04783e-09
2.04783e-09
2.04783e-09
2.04783e-09
2.04783e-09
2.04782e-09
2.04783e-09
2.04782e-09
2.04784e-09
2.04781e-09
2.04784e-09
2.0478e-09
2.04784e-09
2.04778e-09
2.04785e-09
2.04775e-09
2.04786e-09
2.04773e-09
2.0479e-09
2.04773e-09
2.04803e-09
2.0479e-09
2.04861e-09
2.04904e-09
2.05142e-09
2.05616e-09
2.06057e-09
2.4248e-09
2.42011e-09
2.41497e-09
2.41235e-09
2.41177e-09
2.41101e-09
2.4111e-09
2.41078e-09
2.41095e-09
2.41078e-09
2.41091e-09
2.4108e-09
2.4109e-09
2.41083e-09
2.41089e-09
2.41085e-09
2.41089e-09
2.41086e-09
2.41089e-09
2.41087e-09
2.41088e-09
2.41087e-09
2.41089e-09
2.41088e-09
2.41088e-09
2.41088e-09
2.41088e-09
2.41089e-09
2.41087e-09
2.41088e-09
2.41087e-09
2.41089e-09
2.41086e-09
2.41089e-09
2.41085e-09
2.41089e-09
2.41083e-09
2.4109e-09
2.4108e-09
2.41091e-09
2.41077e-09
2.41095e-09
2.41078e-09
2.4111e-09
2.41101e-09
2.41177e-09
2.41235e-09
2.41498e-09
2.42011e-09
2.4248e-09
2.71926e-09
2.71463e-09
2.70954e-09
2.70684e-09
2.70616e-09
2.70538e-09
2.70542e-09
2.70511e-09
2.70525e-09
2.70509e-09
2.70521e-09
2.70511e-09
2.7052e-09
2.70514e-09
2.7052e-09
2.70516e-09
2.7052e-09
2.70517e-09
2.70519e-09
2.70518e-09
2.70519e-09
2.70518e-09
2.70519e-09
2.70519e-09
2.70519e-09
2.70519e-09
2.70519e-09
2.70519e-09
2.70518e-09
2.70519e-09
2.70518e-09
2.70519e-09
2.70517e-09
2.7052e-09
2.70516e-09
2.7052e-09
2.70514e-09
2.7052e-09
2.70511e-09
2.70521e-09
2.70509e-09
2.70525e-09
2.70511e-09
2.70542e-09
2.70538e-09
2.70616e-09
2.70684e-09
2.70954e-09
2.71463e-09
2.71926e-09
2.9465e-09
2.94224e-09
2.93757e-09
2.93497e-09
2.93422e-09
2.93347e-09
2.93344e-09
2.93316e-09
2.93326e-09
2.93312e-09
2.93322e-09
2.93314e-09
2.93321e-09
2.93316e-09
2.93321e-09
2.93318e-09
2.93321e-09
2.93319e-09
2.93321e-09
2.93319e-09
2.93321e-09
2.9332e-09
2.93321e-09
2.93321e-09
2.93321e-09
2.93321e-09
2.93321e-09
2.93321e-09
2.9332e-09
2.93321e-09
2.93319e-09
2.93321e-09
2.93319e-09
2.93321e-09
2.93318e-09
2.93321e-09
2.93316e-09
2.93321e-09
2.93314e-09
2.93322e-09
2.93312e-09
2.93326e-09
2.93316e-09
2.93344e-09
2.93347e-09
2.93422e-09
2.93498e-09
2.93757e-09
2.94224e-09
2.9465e-09
3.11515e-09
3.1115e-09
3.10755e-09
3.1052e-09
3.10441e-09
3.10372e-09
3.10363e-09
3.10338e-09
3.10343e-09
3.10332e-09
3.10339e-09
3.10333e-09
3.10339e-09
3.10335e-09
3.10339e-09
3.10336e-09
3.10339e-09
3.10337e-09
3.10339e-09
3.10338e-09
3.10339e-09
3.10338e-09
3.10339e-09
3.10339e-09
3.10339e-09
3.10339e-09
3.10339e-09
3.10339e-09
3.10338e-09
3.10339e-09
3.10338e-09
3.10339e-09
3.10337e-09
3.10339e-09
3.10336e-09
3.10339e-09
3.10335e-09
3.10339e-09
3.10333e-09
3.10339e-09
3.10332e-09
3.10343e-09
3.10338e-09
3.10363e-09
3.10372e-09
3.10441e-09
3.1052e-09
3.10755e-09
3.1115e-09
3.11515e-09
3.23384e-09
3.23095e-09
3.22792e-09
3.22594e-09
3.22516e-09
3.22454e-09
3.22439e-09
3.22418e-09
3.22419e-09
3.22411e-09
3.22415e-09
3.2241e-09
3.22414e-09
3.22412e-09
3.22414e-09
3.22413e-09
3.22415e-09
3.22413e-09
3.22415e-09
3.22414e-09
3.22415e-09
3.22414e-09
3.22415e-09
3.22415e-09
3.22415e-09
3.22415e-09
3.22415e-09
3.22415e-09
3.22414e-09
3.22415e-09
3.22414e-09
3.22415e-09
3.22413e-09
3.22415e-09
3.22413e-09
3.22414e-09
3.22412e-09
3.22414e-09
3.2241e-09
3.22415e-09
3.22411e-09
3.22419e-09
3.22418e-09
3.22439e-09
3.22454e-09
3.22516e-09
3.22594e-09
3.22792e-09
3.23095e-09
3.23384e-09
3.31485e-09
3.31288e-09
3.31101e-09
3.30949e-09
3.30877e-09
3.30825e-09
3.30803e-09
3.30787e-09
3.30783e-09
3.30778e-09
3.30778e-09
3.30777e-09
3.30778e-09
3.30777e-09
3.30778e-09
3.30778e-09
3.30779e-09
3.30778e-09
3.30779e-09
3.30779e-09
3.30779e-09
3.30779e-09
3.30779e-09
3.30779e-09
3.30779e-09
3.30779e-09
3.30779e-09
3.30779e-09
3.30779e-09
3.30779e-09
3.30779e-09
3.30779e-09
3.30778e-09
3.30779e-09
3.30778e-09
3.30778e-09
3.30777e-09
3.30778e-09
3.30777e-09
3.30778e-09
3.30778e-09
3.30783e-09
3.30787e-09
3.30803e-09
3.30825e-09
3.30877e-09
3.30949e-09
3.31101e-09
3.31288e-09
3.31485e-09
3.36136e-09
3.36027e-09
3.35947e-09
3.35843e-09
3.35779e-09
3.35737e-09
3.3571e-09
3.35698e-09
3.35689e-09
3.35687e-09
3.35685e-09
3.35685e-09
3.35684e-09
3.35685e-09
3.35685e-09
3.35685e-09
3.35685e-09
3.35685e-09
3.35685e-09
3.35686e-09
3.35686e-09
3.35686e-09
3.35686e-09
3.35686e-09
3.35686e-09
3.35686e-09
3.35686e-09
3.35686e-09
3.35686e-09
3.35686e-09
3.35686e-09
3.35685e-09
3.35685e-09
3.35685e-09
3.35685e-09
3.35685e-09
3.35685e-09
3.35684e-09
3.35685e-09
3.35685e-09
3.35687e-09
3.35689e-09
3.35698e-09
3.35711e-09
3.35737e-09
3.35779e-09
3.35843e-09
3.35947e-09
3.36027e-09
3.36136e-09
3.38405e-09
3.38393e-09
3.38427e-09
3.38375e-09
3.38321e-09
3.38289e-09
3.38258e-09
3.3825e-09
3.38236e-09
3.38237e-09
3.38231e-09
3.38233e-09
3.38231e-09
3.38233e-09
3.38231e-09
3.38233e-09
3.38232e-09
3.38233e-09
3.38232e-09
3.38233e-09
3.38232e-09
3.38233e-09
3.38233e-09
3.38233e-09
3.38233e-09
3.38233e-09
3.38233e-09
3.38233e-09
3.38233e-09
3.38233e-09
3.38233e-09
3.38232e-09
3.38233e-09
3.38232e-09
3.38233e-09
3.38231e-09
3.38233e-09
3.38231e-09
3.38233e-09
3.38231e-09
3.38237e-09
3.38236e-09
3.3825e-09
3.38258e-09
3.38289e-09
3.38321e-09
3.38375e-09
3.38427e-09
3.38393e-09
3.38405e-09
3.38898e-09
3.38974e-09
3.3911e-09
3.39109e-09
3.39068e-09
3.39047e-09
3.39013e-09
3.39008e-09
3.38991e-09
3.38993e-09
3.38985e-09
3.38988e-09
3.38984e-09
3.38987e-09
3.38985e-09
3.38987e-09
3.38985e-09
3.38987e-09
3.38986e-09
3.38987e-09
3.38986e-09
3.38987e-09
3.38986e-09
3.38987e-09
3.38986e-09
3.38986e-09
3.38987e-09
3.38986e-09
3.38987e-09
3.38986e-09
3.38987e-09
3.38986e-09
3.38987e-09
3.38985e-09
3.38987e-09
3.38985e-09
3.38987e-09
3.38984e-09
3.38988e-09
3.38985e-09
3.38993e-09
3.38991e-09
3.39008e-09
3.39013e-09
3.39047e-09
3.39068e-09
3.39109e-09
3.3911e-09
3.38974e-09
3.38898e-09
3.38101e-09
3.3826e-09
3.38486e-09
3.38533e-09
3.38506e-09
3.38494e-09
3.38458e-09
3.38455e-09
3.38435e-09
3.38439e-09
3.38429e-09
3.38433e-09
3.38428e-09
3.38431e-09
3.38428e-09
3.38431e-09
3.38428e-09
3.3843e-09
3.38429e-09
3.3843e-09
3.38429e-09
3.3843e-09
3.3843e-09
3.3843e-09
3.3843e-09
3.3843e-09
3.3843e-09
3.3843e-09
3.3843e-09
3.38429e-09
3.3843e-09
3.38429e-09
3.3843e-09
3.38428e-09
3.38431e-09
3.38428e-09
3.38431e-09
3.38428e-09
3.38433e-09
3.38429e-09
3.38439e-09
3.38435e-09
3.38455e-09
3.38458e-09
3.38494e-09
3.38506e-09
3.38533e-09
3.38486e-09
3.3826e-09
3.38102e-09
3.36334e-09
3.36575e-09
3.36891e-09
3.36987e-09
3.36976e-09
3.36973e-09
3.36935e-09
3.36934e-09
3.36912e-09
3.36916e-09
3.36905e-09
3.3691e-09
3.36903e-09
3.36907e-09
3.36903e-09
3.36906e-09
3.36904e-09
3.36906e-09
3.36904e-09
3.36906e-09
3.36905e-09
3.36906e-09
3.36905e-09
3.36905e-09
3.36905e-09
3.36905e-09
3.36905e-09
3.36905e-09
3.36906e-09
3.36905e-09
3.36906e-09
3.36904e-09
3.36906e-09
3.36904e-09
3.36906e-09
3.36903e-09
3.36907e-09
3.36903e-09
3.3691e-09
3.36905e-09
3.36916e-09
3.36912e-09
3.36934e-09
3.36935e-09
3.36973e-09
3.36976e-09
3.36987e-09
3.36891e-09
3.36575e-09
3.36334e-09
3.33994e-09
3.34309e-09
3.34699e-09
3.34838e-09
3.34842e-09
3.34847e-09
3.34809e-09
3.34809e-09
3.34784e-09
3.3479e-09
3.34777e-09
3.34783e-09
3.34775e-09
3.34779e-09
3.34775e-09
3.34778e-09
3.34775e-09
3.34777e-09
3.34775e-09
3.34777e-09
3.34776e-09
3.34777e-09
3.34776e-09
3.34777e-09
3.34776e-09
3.34776e-09
3.34777e-09
3.34776e-09
3.34777e-09
3.34776e-09
3.34777e-09
3.34775e-09
3.34777e-09
3.34775e-09
3.34778e-09
3.34775e-09
3.34779e-09
3.34775e-09
3.34783e-09
3.34777e-09
3.3479e-09
3.34784e-09
3.34809e-09
3.34809e-09
3.34847e-09
3.34842e-09
3.34838e-09
3.34699e-09
3.34309e-09
3.33994e-09
3.311e-09
3.31495e-09
3.31962e-09
3.32146e-09
3.32165e-09
3.32179e-09
3.32139e-09
3.32142e-09
3.32114e-09
3.32121e-09
3.32106e-09
3.32112e-09
3.32104e-09
3.32108e-09
3.32103e-09
3.32107e-09
3.32103e-09
3.32106e-09
3.32104e-09
3.32106e-09
3.32104e-09
3.32105e-09
3.32104e-09
3.32105e-09
3.32105e-09
3.32105e-09
3.32105e-09
3.32104e-09
3.32105e-09
3.32104e-09
3.32106e-09
3.32104e-09
3.32106e-09
3.32103e-09
3.32107e-09
3.32103e-09
3.32108e-09
3.32104e-09
3.32112e-09
3.32106e-09
3.32121e-09
3.32114e-09
3.32142e-09
3.32139e-09
3.32179e-09
3.32165e-09
3.32146e-09
3.31962e-09
3.31495e-09
3.311e-09
3.27876e-09
3.28339e-09
3.28865e-09
3.29085e-09
3.2912e-09
3.29141e-09
3.29101e-09
3.29104e-09
3.29075e-09
3.29082e-09
3.29066e-09
3.29072e-09
3.29063e-09
3.29068e-09
3.29062e-09
3.29066e-09
3.29062e-09
3.29065e-09
3.29063e-09
3.29065e-09
3.29063e-09
3.29064e-09
3.29063e-09
3.29064e-09
3.29064e-09
3.29064e-09
3.29064e-09
3.29063e-09
3.29064e-09
3.29063e-09
3.29065e-09
3.29063e-09
3.29065e-09
3.29062e-09
3.29066e-09
3.29062e-09
3.29068e-09
3.29063e-09
3.29072e-09
3.29066e-09
3.29082e-09
3.29075e-09
3.29104e-09
3.29101e-09
3.29141e-09
3.2912e-09
3.29085e-09
3.28865e-09
3.28339e-09
3.27876e-09
3.24553e-09
3.25081e-09
3.25658e-09
3.25912e-09
3.25961e-09
3.25989e-09
3.25948e-09
3.25953e-09
3.25922e-09
3.25929e-09
3.25912e-09
3.25919e-09
3.25909e-09
3.25914e-09
3.25907e-09
3.25911e-09
3.25907e-09
3.2591e-09
3.25908e-09
3.2591e-09
3.25908e-09
3.25909e-09
3.25908e-09
3.25909e-09
3.25908e-09
3.25908e-09
3.25909e-09
3.25908e-09
3.25909e-09
3.25908e-09
3.2591e-09
3.25908e-09
3.2591e-09
3.25907e-09
3.25911e-09
3.25907e-09
3.25914e-09
3.25909e-09
3.25919e-09
3.25912e-09
3.25929e-09
3.25922e-09
3.25953e-09
3.25948e-09
3.25989e-09
3.25961e-09
3.25912e-09
3.25658e-09
3.25081e-09
3.24553e-09
3.21075e-09
3.21665e-09
3.22289e-09
3.22574e-09
3.22636e-09
3.2267e-09
3.22629e-09
3.22634e-09
3.22602e-09
3.22609e-09
3.22591e-09
3.22598e-09
3.22587e-09
3.22592e-09
3.22585e-09
3.2259e-09
3.22585e-09
3.22588e-09
3.22586e-09
3.22588e-09
3.22586e-09
3.22587e-09
3.22586e-09
3.22587e-09
3.22586e-09
3.22586e-09
3.22587e-09
3.22586e-09
3.22587e-09
3.22586e-09
3.22588e-09
3.22586e-09
3.22588e-09
3.22585e-09
3.2259e-09
3.22586e-09
3.22592e-09
3.22587e-09
3.22598e-09
3.22591e-09
3.22609e-09
3.22602e-09
3.22634e-09
3.22629e-09
3.22669e-09
3.22635e-09
3.22574e-09
3.22289e-09
3.21665e-09
3.21075e-09
3.17483e-09
3.18027e-09
3.1868e-09
3.18991e-09
3.19068e-09
3.19107e-09
3.19068e-09
3.19073e-09
3.1904e-09
3.19046e-09
3.19028e-09
3.19034e-09
3.19023e-09
3.19027e-09
3.19021e-09
3.19025e-09
3.1902e-09
3.19023e-09
3.1902e-09
3.19022e-09
3.19021e-09
3.19022e-09
3.19021e-09
3.19021e-09
3.19021e-09
3.19021e-09
3.19021e-09
3.19021e-09
3.19022e-09
3.19021e-09
3.19022e-09
3.1902e-09
3.19023e-09
3.1902e-09
3.19025e-09
3.19021e-09
3.19027e-09
3.19023e-09
3.19034e-09
3.19028e-09
3.19046e-09
3.1904e-09
3.19073e-09
3.19068e-09
3.19107e-09
3.19067e-09
3.18991e-09
3.1868e-09
3.18027e-09
3.17483e-09
3.13802e-09
3.14396e-09
3.15084e-09
3.1542e-09
3.15508e-09
3.15554e-09
3.15515e-09
3.1552e-09
3.15485e-09
3.15491e-09
3.15472e-09
3.15478e-09
3.15466e-09
3.15471e-09
3.15464e-09
3.15468e-09
3.15463e-09
3.15467e-09
3.15464e-09
3.15466e-09
3.15464e-09
3.15465e-09
3.15464e-09
3.15464e-09
3.15464e-09
3.15464e-09
3.15464e-09
3.15464e-09
3.15465e-09
3.15464e-09
3.15466e-09
3.15464e-09
3.15467e-09
3.15463e-09
3.15468e-09
3.15464e-09
3.15471e-09
3.15466e-09
3.15478e-09
3.15472e-09
3.15491e-09
3.15485e-09
3.1552e-09
3.15515e-09
3.15553e-09
3.15508e-09
3.1542e-09
3.15084e-09
3.14396e-09
3.13802e-09
3.09902e-09
3.10548e-09
3.11275e-09
3.11639e-09
3.1174e-09
3.11791e-09
3.11752e-09
3.11758e-09
3.11722e-09
3.11727e-09
3.11707e-09
3.11713e-09
3.11701e-09
3.11706e-09
3.11698e-09
3.11702e-09
3.11697e-09
3.117e-09
3.11697e-09
3.11699e-09
3.11697e-09
3.11699e-09
3.11697e-09
3.11698e-09
3.11698e-09
3.11698e-09
3.11698e-09
3.11697e-09
3.11699e-09
3.11697e-09
3.11699e-09
3.11697e-09
3.117e-09
3.11697e-09
3.11702e-09
3.11698e-09
3.11706e-09
3.11701e-09
3.11713e-09
3.11707e-09
3.11727e-09
3.11722e-09
3.11758e-09
3.11752e-09
3.11791e-09
3.1174e-09
3.11639e-09
3.11275e-09
3.10548e-09
3.09903e-09
3.05931e-09
3.06618e-09
3.07372e-09
3.07755e-09
3.07866e-09
3.07922e-09
3.07883e-09
3.07888e-09
3.07852e-09
3.07857e-09
3.07836e-09
3.07842e-09
3.07829e-09
3.07833e-09
3.07826e-09
3.0783e-09
3.07824e-09
3.07828e-09
3.07825e-09
3.07827e-09
3.07825e-09
3.07826e-09
3.07825e-09
3.07825e-09
3.07825e-09
3.07825e-09
3.07825e-09
3.07825e-09
3.07826e-09
3.07825e-09
3.07827e-09
3.07825e-09
3.07828e-09
3.07824e-09
3.0783e-09
3.07826e-09
3.07834e-09
3.07829e-09
3.07842e-09
3.07836e-09
3.07857e-09
3.07852e-09
3.07888e-09
3.07883e-09
3.07922e-09
3.07866e-09
3.07755e-09
3.07372e-09
3.06618e-09
3.05931e-09
3.01893e-09
3.02622e-09
3.03398e-09
3.03798e-09
3.03918e-09
3.03978e-09
3.03939e-09
3.03944e-09
3.03906e-09
3.03911e-09
3.03889e-09
3.03895e-09
3.03882e-09
3.03886e-09
3.03878e-09
3.03882e-09
3.03876e-09
3.0388e-09
3.03877e-09
3.03879e-09
3.03877e-09
3.03878e-09
3.03877e-09
3.03877e-09
3.03877e-09
3.03877e-09
3.03877e-09
3.03877e-09
3.03878e-09
3.03877e-09
3.03879e-09
3.03877e-09
3.0388e-09
3.03876e-09
3.03882e-09
3.03878e-09
3.03886e-09
3.03882e-09
3.03895e-09
3.03889e-09
3.03911e-09
3.03906e-09
3.03944e-09
3.03939e-09
3.03978e-09
3.03918e-09
3.03798e-09
3.03397e-09
3.02622e-09
3.01893e-09
2.97798e-09
2.98564e-09
2.99359e-09
2.99773e-09
2.99901e-09
2.99965e-09
2.99926e-09
2.99931e-09
2.99892e-09
2.99897e-09
2.99874e-09
2.99879e-09
2.99866e-09
2.9987e-09
2.99862e-09
2.99865e-09
2.9986e-09
2.99863e-09
2.9986e-09
2.99862e-09
2.9986e-09
2.99861e-09
2.9986e-09
2.99861e-09
2.9986e-09
2.9986e-09
2.99861e-09
2.9986e-09
2.99861e-09
2.9986e-09
2.99862e-09
2.9986e-09
2.99863e-09
2.9986e-09
2.99865e-09
2.99862e-09
2.9987e-09
2.99866e-09
2.99879e-09
2.99874e-09
2.99897e-09
2.99892e-09
2.99931e-09
2.99926e-09
2.99965e-09
2.99901e-09
2.99773e-09
2.99359e-09
2.98564e-09
2.97798e-09
2.93649e-09
2.94448e-09
2.95261e-09
2.95687e-09
2.95823e-09
2.95889e-09
2.9585e-09
2.95855e-09
2.95816e-09
2.95819e-09
2.95796e-09
2.95801e-09
2.95787e-09
2.95791e-09
2.95782e-09
2.95786e-09
2.9578e-09
2.95784e-09
2.9578e-09
2.95783e-09
2.9578e-09
2.95782e-09
2.9578e-09
2.95781e-09
2.95781e-09
2.95781e-09
2.95781e-09
2.9578e-09
2.95782e-09
2.9578e-09
2.95783e-09
2.9578e-09
2.95784e-09
2.9578e-09
2.95786e-09
2.95782e-09
2.95791e-09
2.95787e-09
2.95801e-09
2.95796e-09
2.95819e-09
2.95816e-09
2.95855e-09
2.9585e-09
2.95889e-09
2.95823e-09
2.95687e-09
2.95261e-09
2.94448e-09
2.93649e-09
2.89453e-09
2.90281e-09
2.91111e-09
2.91546e-09
2.91687e-09
2.91757e-09
2.91718e-09
2.91722e-09
2.91682e-09
2.91685e-09
2.91661e-09
2.91665e-09
2.91651e-09
2.91655e-09
2.91646e-09
2.9165e-09
2.91644e-09
2.91647e-09
2.91644e-09
2.91646e-09
2.91644e-09
2.91645e-09
2.91643e-09
2.91644e-09
2.91644e-09
2.91644e-09
2.91644e-09
2.91643e-09
2.91645e-09
2.91644e-09
2.91646e-09
2.91644e-09
2.91647e-09
2.91644e-09
2.9165e-09
2.91646e-09
2.91655e-09
2.91651e-09
2.91665e-09
2.91661e-09
2.91685e-09
2.91682e-09
2.91722e-09
2.91718e-09
2.91757e-09
2.91687e-09
2.91546e-09
2.91111e-09
2.90281e-09
2.89453e-09
2.85215e-09
2.86069e-09
2.86912e-09
2.87355e-09
2.87501e-09
2.87573e-09
2.87534e-09
2.87538e-09
2.87496e-09
2.87499e-09
2.87474e-09
2.87478e-09
2.87463e-09
2.87467e-09
2.87458e-09
2.87462e-09
2.87456e-09
2.87459e-09
2.87456e-09
2.87458e-09
2.87455e-09
2.87457e-09
2.87455e-09
2.87456e-09
2.87456e-09
2.87456e-09
2.87456e-09
2.87455e-09
2.87457e-09
2.87455e-09
2.87458e-09
2.87456e-09
2.87459e-09
2.87456e-09
2.87462e-09
2.87458e-09
2.87467e-09
2.87463e-09
2.87478e-09
2.87474e-09
2.87499e-09
2.87496e-09
2.87538e-09
2.87534e-09
2.87573e-09
2.87501e-09
2.87354e-09
2.86912e-09
2.86069e-09
2.85215e-09
2.8094e-09
2.81817e-09
2.82671e-09
2.83119e-09
2.8327e-09
2.83344e-09
2.83304e-09
2.83308e-09
2.83266e-09
2.83267e-09
2.83242e-09
2.83246e-09
2.83231e-09
2.83234e-09
2.83225e-09
2.83228e-09
2.83222e-09
2.83226e-09
2.83222e-09
2.83224e-09
2.83222e-09
2.83223e-09
2.83221e-09
2.83222e-09
2.83222e-09
2.83222e-09
2.83222e-09
2.83221e-09
2.83223e-09
2.83222e-09
2.83224e-09
2.83222e-09
2.83226e-09
2.83222e-09
2.83228e-09
2.83225e-09
2.83234e-09
2.83231e-09
2.83246e-09
2.83242e-09
2.83267e-09
2.83265e-09
2.83308e-09
2.83304e-09
2.83344e-09
2.8327e-09
2.83119e-09
2.82671e-09
2.81817e-09
2.8094e-09
2.76635e-09
2.77531e-09
2.78394e-09
2.78846e-09
2.79e-09
2.79076e-09
2.79035e-09
2.79038e-09
2.78995e-09
2.78996e-09
2.78971e-09
2.78974e-09
2.78958e-09
2.78962e-09
2.78952e-09
2.78956e-09
2.78949e-09
2.78953e-09
2.78949e-09
2.78951e-09
2.78949e-09
2.7895e-09
2.78948e-09
2.78949e-09
2.78949e-09
2.78949e-09
2.78949e-09
2.78948e-09
2.7895e-09
2.78949e-09
2.78951e-09
2.78949e-09
2.78953e-09
2.78949e-09
2.78956e-09
2.78952e-09
2.78962e-09
2.78958e-09
2.78974e-09
2.78971e-09
2.78996e-09
2.78995e-09
2.79038e-09
2.79035e-09
2.79076e-09
2.79e-09
2.78846e-09
2.78394e-09
2.77531e-09
2.76635e-09
2.72306e-09
2.73218e-09
2.74087e-09
2.74542e-09
2.74698e-09
2.74775e-09
2.74734e-09
2.74736e-09
2.74692e-09
2.74692e-09
2.74666e-09
2.74669e-09
2.74653e-09
2.74656e-09
2.74646e-09
2.7465e-09
2.74643e-09
2.74647e-09
2.74643e-09
2.74645e-09
2.74642e-09
2.74644e-09
2.74642e-09
2.74643e-09
2.74642e-09
2.74642e-09
2.74643e-09
2.74642e-09
2.74644e-09
2.74642e-09
2.74645e-09
2.74643e-09
2.74647e-09
2.74643e-09
2.7465e-09
2.74646e-09
2.74656e-09
2.74653e-09
2.74669e-09
2.74666e-09
2.74692e-09
2.74692e-09
2.74736e-09
2.74734e-09
2.74775e-09
2.74698e-09
2.74542e-09
2.74087e-09
2.73218e-09
2.72306e-09
2.67958e-09
2.68883e-09
2.69756e-09
2.70212e-09
2.70369e-09
2.70447e-09
2.70405e-09
2.70407e-09
2.70362e-09
2.70362e-09
2.70335e-09
2.70337e-09
2.70321e-09
2.70324e-09
2.70314e-09
2.70317e-09
2.70311e-09
2.70314e-09
2.7031e-09
2.70312e-09
2.7031e-09
2.70311e-09
2.70309e-09
2.7031e-09
2.7031e-09
2.7031e-09
2.7031e-09
2.70309e-09
2.70311e-09
2.7031e-09
2.70312e-09
2.7031e-09
2.70314e-09
2.70311e-09
2.70317e-09
2.70314e-09
2.70324e-09
2.70321e-09
2.70337e-09
2.70335e-09
2.70362e-09
2.70362e-09
2.70407e-09
2.70405e-09
2.70447e-09
2.70369e-09
2.70212e-09
2.69756e-09
2.68883e-09
2.67958e-09
2.636e-09
2.64532e-09
2.65408e-09
2.65864e-09
2.66022e-09
2.661e-09
2.66057e-09
2.66058e-09
2.66013e-09
2.66011e-09
2.65984e-09
2.65986e-09
2.65969e-09
2.65972e-09
2.65962e-09
2.65965e-09
2.65958e-09
2.65961e-09
2.65957e-09
2.65959e-09
2.65957e-09
2.65958e-09
2.65957e-09
2.65957e-09
2.65957e-09
2.65957e-09
2.65957e-09
2.65957e-09
2.65958e-09
2.65957e-09
2.65959e-09
2.65957e-09
2.65961e-09
2.65958e-09
2.65965e-09
2.65962e-09
2.65972e-09
2.65969e-09
2.65986e-09
2.65984e-09
2.66011e-09
2.66013e-09
2.66058e-09
2.66057e-09
2.66099e-09
2.66021e-09
2.65863e-09
2.65408e-09
2.64532e-09
2.636e-09
2.59235e-09
2.60172e-09
2.61048e-09
2.61503e-09
2.6166e-09
2.61738e-09
2.61695e-09
2.61695e-09
2.61649e-09
2.61647e-09
2.61619e-09
2.6162e-09
2.61603e-09
2.61606e-09
2.61595e-09
2.61598e-09
2.61592e-09
2.61595e-09
2.61591e-09
2.61593e-09
2.6159e-09
2.61591e-09
2.6159e-09
2.61591e-09
2.6159e-09
2.6159e-09
2.61591e-09
2.6159e-09
2.61591e-09
2.6159e-09
2.61593e-09
2.61591e-09
2.61595e-09
2.61592e-09
2.61598e-09
2.61595e-09
2.61606e-09
2.61603e-09
2.6162e-09
2.61619e-09
2.61647e-09
2.61649e-09
2.61695e-09
2.61695e-09
2.61738e-09
2.6166e-09
2.61503e-09
2.61048e-09
2.60172e-09
2.59235e-09
2.54871e-09
2.55809e-09
2.56683e-09
2.57135e-09
2.57292e-09
2.5737e-09
2.57325e-09
2.57325e-09
2.57278e-09
2.57275e-09
2.57246e-09
2.57247e-09
2.5723e-09
2.57232e-09
2.57221e-09
2.57224e-09
2.57217e-09
2.57221e-09
2.57216e-09
2.57219e-09
2.57216e-09
2.57217e-09
2.57215e-09
2.57216e-09
2.57216e-09
2.57216e-09
2.57216e-09
2.57216e-09
2.57217e-09
2.57216e-09
2.57219e-09
2.57216e-09
2.57221e-09
2.57217e-09
2.57224e-09
2.57221e-09
2.57232e-09
2.5723e-09
2.57247e-09
2.57246e-09
2.57275e-09
2.57278e-09
2.57325e-09
2.57325e-09
2.5737e-09
2.57292e-09
2.57135e-09
2.56683e-09
2.55808e-09
2.54871e-09
2.50514e-09
2.51447e-09
2.52319e-09
2.52768e-09
2.52923e-09
2.53e-09
2.52954e-09
2.52952e-09
2.52905e-09
2.52901e-09
2.52872e-09
2.52872e-09
2.52855e-09
2.52856e-09
2.52846e-09
2.52849e-09
2.52842e-09
2.52845e-09
2.52841e-09
2.52843e-09
2.5284e-09
2.52841e-09
2.5284e-09
2.5284e-09
2.5284e-09
2.5284e-09
2.5284e-09
2.5284e-09
2.52841e-09
2.5284e-09
2.52843e-09
2.52841e-09
2.52845e-09
2.52842e-09
2.52849e-09
2.52846e-09
2.52857e-09
2.52855e-09
2.52872e-09
2.52872e-09
2.52901e-09
2.52905e-09
2.52952e-09
2.52954e-09
2.52999e-09
2.52923e-09
2.52768e-09
2.52319e-09
2.51447e-09
2.50514e-09
2.46166e-09
2.47094e-09
2.47961e-09
2.48405e-09
2.48558e-09
2.48633e-09
2.48587e-09
2.48584e-09
2.48536e-09
2.48531e-09
2.48502e-09
2.48501e-09
2.48484e-09
2.48485e-09
2.48474e-09
2.48477e-09
2.4847e-09
2.48473e-09
2.48469e-09
2.48471e-09
2.48468e-09
2.48469e-09
2.48468e-09
2.48468e-09
2.48468e-09
2.48468e-09
2.48468e-09
2.48468e-09
2.48469e-09
2.48468e-09
2.48471e-09
2.48469e-09
2.48473e-09
2.4847e-09
2.48477e-09
2.48474e-09
2.48485e-09
2.48484e-09
2.48501e-09
2.48502e-09
2.48531e-09
2.48536e-09
2.48584e-09
2.48587e-09
2.48633e-09
2.48558e-09
2.48405e-09
2.47961e-09
2.47094e-09
2.46166e-09
)
;

boundaryField
{
    fuel
    {
        type            fixedValue;
        value           uniform 0;
    }
    wall
    {
        type            zeroGradient;
    }
    outlet
    {
        type            zeroGradient;
    }
    frontAndBack
    {
        type            empty;
    }
    procBoundary1to0
    {
        type            processor;
        value           nonuniform List<scalar> 
50
(
2.41832e-09
2.42757e-09
2.43614e-09
2.44053e-09
2.44203e-09
2.44277e-09
2.44229e-09
2.44225e-09
2.44176e-09
2.4417e-09
2.44141e-09
2.4414e-09
2.44122e-09
2.44123e-09
2.44112e-09
2.44114e-09
2.44107e-09
2.4411e-09
2.44106e-09
2.44108e-09
2.44105e-09
2.44106e-09
2.44105e-09
2.44106e-09
2.44105e-09
2.44105e-09
2.44106e-09
2.44105e-09
2.44106e-09
2.44105e-09
2.44108e-09
2.44106e-09
2.4411e-09
2.44107e-09
2.44114e-09
2.44112e-09
2.44123e-09
2.44122e-09
2.4414e-09
2.44141e-09
2.4417e-09
2.44176e-09
2.44225e-09
2.44229e-09
2.44276e-09
2.44202e-09
2.44052e-09
2.43614e-09
2.42757e-09
2.41832e-09
)
;
    }
}


// ************************************************************************* //
