/*--------------------------------*- C++ -*----------------------------------*\
| =========                 |                                                 |
| \\      /  F ield         | OpenFOAM: The Open Source CFD Toolbox           |
|  \\    /   O peration     | Version:  dev                                   |
|   \\  /    A nd           | Web:      www.OpenFOAM.org                      |
|    \\/     M anipulation  |                                                 |
\*---------------------------------------------------------------------------*/
FoamFile
{
    version     2.0;
    format      ascii;
    class       volScalarField;
    location    "0.09";
    object      C4H;
}
// * * * * * * * * * * * * * * * * * * * * * * * * * * * * * * * * * * * * * //

dimensions      [0 0 0 0 0 0 0];

internalField   nonuniform List<scalar> 
250
(
5.73252e-10
6.01936e-10
6.20416e-10
5.75573e-10
5.53747e-10
5.41142e-10
5.42684e-10
5.32992e-10
5.37838e-10
5.34809e-10
3.83687e-10
3.85165e-10
3.92131e-10
3.608e-10
3.46417e-10
3.37793e-10
3.39159e-10
3.32496e-10
3.35885e-10
3.33725e-10
3.26606e-10
3.47566e-10
3.21472e-10
3.56208e-10
3.25737e-10
3.74055e-10
3.59545e-10
4.08566e-10
4.61934e-10
4.3862e-10
2.39566e-10
2.30894e-10
2.32404e-10
2.12064e-10
2.03263e-10
1.97695e-10
1.98759e-10
1.94476e-10
1.96687e-10
1.95252e-10
1.90602e-10
2.04161e-10
1.87232e-10
2.095e-10
1.89782e-10
2.20262e-10
2.10606e-10
2.42002e-10
2.77815e-10
2.69527e-10
1.38105e-10
1.28297e-10
1.27766e-10
1.15579e-10
1.10665e-10
1.07287e-10
1.08026e-10
1.05479e-10
1.06809e-10
1.05932e-10
1.03127e-10
1.11246e-10
1.01072e-10
1.14304e-10
1.02475e-10
1.2033e-10
1.14312e-10
1.33038e-10
1.54904e-10
1.54091e-10
7.24399e-11
6.48261e-11
6.41605e-11
5.74993e-11
5.46159e-11
5.31471e-11
5.36063e-11
5.2224e-11
5.29527e-11
5.24653e-11
5.09249e-11
5.53635e-11
4.97829e-11
5.69644e-11
5.04886e-11
6.00482e-11
5.66193e-11
6.68329e-11
7.88966e-11
8.0871e-11
3.38491e-11
2.93118e-11
2.87808e-11
2.55333e-11
2.41918e-11
2.34927e-11
2.37426e-11
2.30729e-11
2.34287e-11
2.31884e-11
2.24348e-11
2.46044e-11
2.18695e-11
2.53549e-11
2.21883e-11
2.67673e-11
2.50243e-11
3.00039e-11
3.59109e-11
3.73352e-11
1.36504e-11
1.14452e-11
1.11622e-11
9.79321e-12
9.2612e-12
8.96578e-12
9.08176e-12
8.80143e-12
8.95125e-12
8.84971e-12
8.53163e-12
9.44998e-12
8.29078e-12
9.75547e-12
8.41626e-12
1.03163e-11
9.55229e-12
1.16509e-11
1.41449e-11
1.49007e-11
4.53233e-12
3.67921e-12
3.57002e-12
3.09386e-12
2.92172e-12
2.81771e-12
2.86163e-12
2.76504e-12
2.81688e-12
2.7819e-12
2.67141e-12
2.99218e-12
2.58726e-12
3.09517e-12
2.62841e-12
3.27908e-12
3.00442e-12
3.73149e-12
4.59961e-12
4.96749e-12
1.15782e-12
9.10559e-13
8.81346e-13
7.5383e-13
7.11472e-13
6.83193e-13
6.95884e-13
6.7034e-13
6.84069e-13
6.74926e-13
6.4541e-13
7.31589e-13
6.22893e-13
7.58382e-13
6.33381e-13
8.04774e-13
7.29438e-13
9.21914e-13
1.1546e-12
1.27925e-12
2.09154e-13
1.59904e-13
1.54945e-13
1.30846e-13
1.23594e-13
1.18162e-13
1.20724e-13
1.15972e-13
1.1852e-13
1.1686e-13
1.11296e-13
1.27597e-13
1.07063e-13
1.32511e-13
1.08973e-13
1.40734e-13
1.26372e-13
1.61879e-13
2.05872e-13
2.32671e-13
2.39886e-14
1.78186e-14
1.73305e-14
1.44156e-14
1.3637e-14
1.2971e-14
1.3296e-14
1.27355e-14
1.30331e-14
1.28439e-14
1.21812e-14
1.41331e-14
1.16786e-14
1.47055e-14
1.19054e-14
1.5627e-14
1.39284e-14
1.8037e-14
2.34019e-14
2.6815e-14
1.52072e-15
1.09499e-15
1.07356e-15
8.76735e-16
8.31705e-16
7.8653e-16
8.08928e-16
7.72647e-16
7.91411e-16
7.79835e-16
7.3677e-16
8.64212e-16
7.04242e-16
9.00672e-16
7.19755e-16
9.56534e-16
8.5177e-16
1.10544e-15
1.48108e-15
1.69815e-15
5.61289e-17
3.93673e-17
3.89632e-17
3.12694e-17
2.97608e-17
2.79946e-17
2.88754e-17
2.75179e-17
2.81973e-17
2.77958e-17
2.61715e-17
3.09759e-17
2.49588e-17
3.23191e-17
2.55839e-17
3.42709e-17
3.06342e-17
3.95761e-17
5.48996e-17
6.23829e-17
)
;

boundaryField
{
    fuel
    {
        type            fixedValue;
        value           nonuniform 0();
    }
    wall
    {
        type            zeroGradient;
    }
    outlet
    {
        type            zeroGradient;
    }
    frontAndBack
    {
        type            empty;
    }
    procBoundary1to0
    {
        type            processor;
        value           nonuniform List<scalar> 
21
(
8.04969e-10
8.87805e-10
9.2819e-10
8.67742e-10
8.36963e-10
8.1942e-10
8.209e-10
8.07628e-10
8.1412e-10
8.10158e-10
5.24645e-10
5.24645e-10
5.54915e-10
5.17337e-10
5.67909e-10
5.24107e-10
5.95446e-10
5.75557e-10
6.46416e-10
7.21063e-10
6.71392e-10
)
;
    }
}


// ************************************************************************* //
