/*--------------------------------*- C++ -*----------------------------------*\
| =========                 |                                                 |
| \\      /  F ield         | OpenFOAM: The Open Source CFD Toolbox           |
|  \\    /   O peration     | Version:  dev                                   |
|   \\  /    A nd           | Web:      www.OpenFOAM.org                      |
|    \\/     M anipulation  |                                                 |
\*---------------------------------------------------------------------------*/
FoamFile
{
    version     2.0;
    format      ascii;
    class       volScalarField;
    location    "0.09";
    object      C6H5OH;
}
// * * * * * * * * * * * * * * * * * * * * * * * * * * * * * * * * * * * * * //

dimensions      [0 0 0 0 0 0 0];

internalField   nonuniform List<scalar> 
250
(
4.33693e-08
3.32632e-08
2.96085e-08
2.80667e-08
2.80246e-08
2.80018e-08
2.79553e-08
2.81293e-08
2.79767e-08
2.81628e-08
4.5162e-08
3.54111e-08
3.20721e-08
3.06011e-08
3.06021e-08
3.05862e-08
3.0538e-08
3.07176e-08
3.0555e-08
3.07517e-08
3.06995e-08
3.06235e-08
3.06704e-08
3.06067e-08
3.05918e-08
3.06682e-08
3.06729e-08
3.17136e-08
3.42163e-08
3.89181e-08
4.71658e-08
3.7851e-08
3.46952e-08
3.33257e-08
3.33119e-08
3.32874e-08
3.32423e-08
3.33976e-08
3.32519e-08
3.34282e-08
3.33818e-08
3.33128e-08
3.3355e-08
3.33019e-08
3.32916e-08
3.33636e-08
3.33901e-08
3.43472e-08
3.65822e-08
4.07899e-08
4.88337e-08
4.01081e-08
3.69851e-08
3.57628e-08
3.56698e-08
3.56238e-08
3.55877e-08
3.56871e-08
3.55888e-08
3.57102e-08
3.56793e-08
3.56282e-08
3.56569e-08
3.56247e-08
3.56256e-08
3.56937e-08
3.58007e-08
3.66752e-08
3.87782e-08
4.26301e-08
4.95383e-08
4.15963e-08
3.84634e-08
3.74336e-08
3.7247e-08
3.71567e-08
3.71327e-08
3.71657e-08
3.71275e-08
3.71801e-08
3.71684e-08
3.714e-08
3.71513e-08
3.71424e-08
3.71566e-08
3.7243e-08
3.74417e-08
3.82132e-08
4.02529e-08
4.38363e-08
4.90103e-08
4.20209e-08
3.89999e-08
3.81482e-08
3.78932e-08
3.77934e-08
3.77796e-08
3.77634e-08
3.7772e-08
3.77711e-08
3.7774e-08
3.77639e-08
3.77616e-08
3.77693e-08
3.77925e-08
3.78699e-08
3.81323e-08
3.88145e-08
4.0761e-08
4.40869e-08
4.7528e-08
4.15797e-08
3.88653e-08
3.81663e-08
3.79024e-08
3.7806e-08
3.77979e-08
3.77612e-08
3.77906e-08
3.77654e-08
3.77744e-08
3.77742e-08
3.77652e-08
3.77797e-08
3.78052e-08
3.7874e-08
3.81433e-08
3.87353e-08
4.05083e-08
4.35338e-08
4.56536e-08
4.07437e-08
3.84706e-08
3.78945e-08
3.76643e-08
3.75793e-08
3.7573e-08
3.75369e-08
3.75669e-08
3.75399e-08
3.75483e-08
3.75513e-08
3.75414e-08
3.75558e-08
3.75788e-08
3.76395e-08
3.78761e-08
3.83817e-08
3.99216e-08
4.26081e-08
4.38493e-08
3.99097e-08
3.81048e-08
3.76297e-08
3.74463e-08
3.73744e-08
3.73683e-08
3.73406e-08
3.73631e-08
3.73432e-08
3.73485e-08
3.7352e-08
3.73432e-08
3.73552e-08
3.7374e-08
3.74274e-08
3.76191e-08
3.80452e-08
3.93398e-08
4.16759e-08
4.23225e-08
3.92477e-08
3.78619e-08
3.74738e-08
3.73312e-08
3.72711e-08
3.7265e-08
3.72448e-08
3.72602e-08
3.72468e-08
3.72492e-08
3.7253e-08
3.72453e-08
3.72553e-08
3.72703e-08
3.73169e-08
3.7469e-08
3.78237e-08
3.88939e-08
4.08943e-08
4.10982e-08
3.87582e-08
3.77148e-08
3.74015e-08
3.72887e-08
3.72383e-08
3.72323e-08
3.72169e-08
3.7228e-08
3.72182e-08
3.72185e-08
3.72233e-08
3.7216e-08
3.72247e-08
3.7237e-08
3.72773e-08
3.73996e-08
3.7692e-08
3.85701e-08
4.02661e-08
4.01627e-08
3.83992e-08
3.76163e-08
3.73621e-08
3.72702e-08
3.72277e-08
3.72218e-08
3.72094e-08
3.7218e-08
3.72099e-08
3.7209e-08
3.72146e-08
3.72074e-08
3.72153e-08
3.72257e-08
3.72608e-08
3.73612e-08
3.76032e-08
3.83264e-08
3.97659e-08
3.95677e-08
3.81712e-08
3.75528e-08
3.73362e-08
3.72572e-08
3.72199e-08
3.72141e-08
3.72038e-08
3.72107e-08
3.72037e-08
3.7202e-08
3.72082e-08
3.7201e-08
3.72084e-08
3.72175e-08
3.7249e-08
3.73354e-08
3.75445e-08
3.81644e-08
3.94288e-08
)
;

boundaryField
{
    fuel
    {
        type            fixedValue;
        value           nonuniform 0();
    }
    wall
    {
        type            zeroGradient;
    }
    outlet
    {
        type            zeroGradient;
    }
    frontAndBack
    {
        type            empty;
    }
    procBoundary1to0
    {
        type            processor;
        value           nonuniform List<scalar> 
21
(
4.19951e-08
3.15815e-08
2.75537e-08
2.59476e-08
2.58362e-08
2.57976e-08
2.5755e-08
2.59091e-08
2.57779e-08
2.59398e-08
2.81137e-08
2.81137e-08
2.80404e-08
2.80841e-08
2.80205e-08
2.80073e-08
2.80907e-08
2.81293e-08
2.92603e-08
3.21685e-08
3.75223e-08
)
;
    }
}


// ************************************************************************* //
