/*--------------------------------*- C++ -*----------------------------------*\
| =========                 |                                                 |
| \\      /  F ield         | OpenFOAM: The Open Source CFD Toolbox           |
|  \\    /   O peration     | Version:  dev                                   |
|   \\  /    A nd           | Web:      www.OpenFOAM.org                      |
|    \\/     M anipulation  |                                                 |
\*---------------------------------------------------------------------------*/
FoamFile
{
    version     2.0;
    format      ascii;
    class       volScalarField;
    location    "0.09";
    object      CH3O;
}
// * * * * * * * * * * * * * * * * * * * * * * * * * * * * * * * * * * * * * //

dimensions      [0 0 0 0 0 0 0];

internalField   nonuniform List<scalar> 
250
(
3.41766e-11
3.79924e-11
3.132e-11
3.30493e-11
3.02491e-11
2.9572e-11
2.97239e-11
2.85597e-11
2.95169e-11
2.84344e-11
2.33264e-11
2.56691e-11
2.07683e-11
2.19676e-11
2.00116e-11
1.95503e-11
1.96598e-11
1.88482e-11
1.95276e-11
1.87598e-11
1.89634e-11
1.92082e-11
1.8993e-11
1.93124e-11
1.94766e-11
1.95459e-11
2.1246e-11
2.09067e-11
2.22428e-11
2.04132e-11
1.52986e-11
1.66941e-11
1.33043e-11
1.41015e-11
1.28121e-11
1.25008e-11
1.25772e-11
1.2035e-11
1.24971e-11
1.19754e-11
1.21148e-11
1.2281e-11
1.21351e-11
1.23461e-11
1.24553e-11
1.25087e-11
1.36392e-11
1.34362e-11
1.45292e-11
1.3731e-11
9.66815e-12
1.04711e-11
8.25424e-12
8.76767e-12
7.95783e-12
7.75014e-12
7.80119e-12
7.45399e-12
7.75538e-12
7.41552e-12
7.5071e-12
7.61507e-12
7.52057e-12
7.65364e-12
7.72371e-12
7.77021e-12
8.48589e-12
8.35973e-12
9.15904e-12
8.87963e-12
5.91214e-12
6.35507e-12
4.97931e-12
5.27117e-12
4.77035e-12
4.6774e-12
4.71016e-12
4.49697e-12
4.6855e-12
4.47308e-12
4.53088e-12
4.59805e-12
4.53947e-12
4.61966e-12
4.66298e-12
4.65627e-12
5.10065e-12
5.05398e-12
5.59115e-12
5.54625e-12
3.52091e-12
3.75297e-12
2.94103e-12
3.10934e-12
2.82066e-12
2.76687e-12
2.78699e-12
2.66122e-12
2.77453e-12
2.64689e-12
2.68196e-12
2.72214e-12
2.68731e-12
2.7336e-12
2.75954e-12
2.75556e-12
3.01378e-12
2.98924e-12
3.32526e-12
3.32558e-12
2.06039e-12
2.17506e-12
1.71684e-12
1.80956e-12
1.64952e-12
1.61916e-12
1.63106e-12
1.5593e-12
1.62516e-12
1.55093e-12
1.5715e-12
1.59482e-12
1.57482e-12
1.60059e-12
1.61575e-12
1.61378e-12
1.75824e-12
1.74578e-12
1.94417e-12
1.97125e-12
1.19319e-12
1.24678e-12
9.96499e-13
1.0459e-12
9.59422e-13
9.42611e-13
9.49479e-13
9.09327e-13
9.46874e-13
9.0449e-13
9.16306e-13
9.29675e-13
9.18403e-13
9.3244e-13
9.41198e-13
9.40355e-13
1.01918e-12
1.01306e-12
1.12546e-12
1.15332e-12
6.79833e-13
7.03847e-13
5.7009e-13
5.96045e-13
5.50018e-13
5.4089e-13
5.44768e-13
5.22586e-13
5.43747e-13
5.19807e-13
5.26495e-13
5.34124e-13
5.27835e-13
5.35369e-13
5.40398e-13
5.40085e-13
5.82381e-13
5.79356e-13
6.4104e-13
6.61976e-13
3.74773e-13
3.84944e-13
3.16149e-13
3.2944e-13
3.05729e-13
3.00972e-13
3.03071e-13
2.91216e-13
3.02758e-13
2.89666e-13
2.93317e-13
2.97554e-13
2.9415e-13
2.9806e-13
3.00862e-13
3.00767e-13
3.22666e-13
3.21134e-13
3.53265e-13
3.66339e-13
1.97835e-13
1.99646e-13
1.64743e-13
1.71179e-13
1.59257e-13
1.56861e-13
1.57965e-13
1.5179e-13
1.57953e-13
1.50957e-13
1.52905e-13
1.55197e-13
1.53405e-13
1.55352e-13
1.56895e-13
1.56881e-13
1.67924e-13
1.673e-13
1.83782e-13
1.92e-13
9.5991e-14
8.69724e-14
7.05533e-14
7.28983e-14
6.7918e-14
6.69048e-14
6.73924e-14
6.47342e-14
6.74503e-14
6.43668e-14
6.52231e-14
6.62426e-14
6.54678e-14
6.62614e-14
6.69637e-14
6.69779e-14
7.16031e-14
7.15365e-14
7.91469e-14
8.52678e-14
1.00247e-13
4.48064e-14
3.0191e-14
3.01217e-14
2.83568e-14
2.79201e-14
2.81368e-14
2.71136e-14
2.81616e-14
2.6968e-14
2.73004e-14
2.76992e-14
2.741e-14
2.77004e-14
2.79784e-14
2.80011e-14
2.97118e-14
3.00755e-14
3.56084e-14
4.94503e-14
)
;

boundaryField
{
    fuel
    {
        type            fixedValue;
        value           nonuniform 0();
    }
    wall
    {
        type            zeroGradient;
    }
    outlet
    {
        type            zeroGradient;
    }
    frontAndBack
    {
        type            empty;
    }
    procBoundary1to0
    {
        type            processor;
        value           nonuniform List<scalar> 
21
(
4.80068e-11
5.40473e-11
4.55599e-11
4.7971e-11
4.41532e-11
4.32029e-11
4.33979e-11
4.1807e-11
4.30933e-11
4.16363e-11
2.87191e-11
2.87191e-11
2.90639e-11
2.87597e-11
2.9221e-11
2.94573e-11
2.95532e-11
3.19795e-11
3.14247e-11
3.27545e-11
2.90525e-11
)
;
    }
}


// ************************************************************************* //
