/*--------------------------------*- C++ -*----------------------------------*\
| =========                 |                                                 |
| \\      /  F ield         | OpenFOAM: The Open Source CFD Toolbox           |
|  \\    /   O peration     | Version:  dev                                   |
|   \\  /    A nd           | Web:      www.OpenFOAM.org                      |
|    \\/     M anipulation  |                                                 |
\*---------------------------------------------------------------------------*/
FoamFile
{
    version     2.0;
    format      ascii;
    class       volScalarField;
    location    "0.09";
    object      HCO;
}
// * * * * * * * * * * * * * * * * * * * * * * * * * * * * * * * * * * * * * //

dimensions      [0 0 0 0 0 0 0];

internalField   nonuniform List<scalar> 
250
(
1.75196e-08
1.91038e-08
2.02225e-08
2.00481e-08
1.98916e-08
1.97735e-08
1.98072e-08
1.96847e-08
1.97502e-08
1.97022e-08
1.56381e-08
1.67299e-08
1.75603e-08
1.73801e-08
1.72442e-08
1.71423e-08
1.71746e-08
1.70677e-08
1.71238e-08
1.70799e-08
1.69258e-08
1.72581e-08
1.68044e-08
1.7375e-08
1.68403e-08
1.76179e-08
1.72664e-08
1.76854e-08
1.76346e-08
1.5773e-08
1.39157e-08
1.46688e-08
1.52908e-08
1.51217e-08
1.50079e-08
1.49198e-08
1.49499e-08
1.48575e-08
1.49049e-08
1.48647e-08
1.47282e-08
1.50095e-08
1.46145e-08
1.50998e-08
1.46361e-08
1.52938e-08
1.49888e-08
1.53648e-08
1.53679e-08
1.39198e-08
1.24031e-08
1.29331e-08
1.3406e-08
1.3256e-08
1.3165e-08
1.3087e-08
1.31145e-08
1.3035e-08
1.30747e-08
1.30381e-08
1.2917e-08
1.31532e-08
1.28103e-08
1.32211e-08
1.28198e-08
1.33753e-08
1.31073e-08
1.34421e-08
1.34601e-08
1.23359e-08
1.11285e-08
1.15053e-08
1.18824e-08
1.17525e-08
1.1659e-08
1.16123e-08
1.16375e-08
1.15688e-08
1.16022e-08
1.15685e-08
1.14603e-08
1.1659e-08
1.13599e-08
1.1709e-08
1.13599e-08
1.18316e-08
1.1593e-08
1.18912e-08
1.19044e-08
1.10352e-08
1.00989e-08
1.03813e-08
1.06836e-08
1.05714e-08
1.04895e-08
1.04531e-08
1.04765e-08
1.04162e-08
1.04452e-08
1.04138e-08
1.03152e-08
1.04857e-08
1.02203e-08
1.05223e-08
1.02134e-08
1.06213e-08
1.04044e-08
1.0675e-08
1.06759e-08
9.96759e-09
9.29706e-09
9.51138e-09
9.75904e-09
9.65801e-09
9.58478e-09
9.55404e-09
9.57665e-09
9.52202e-09
9.54856e-09
9.5188e-09
9.42604e-09
9.57941e-09
9.33573e-09
9.60725e-09
9.3246e-09
9.6904e-09
9.48645e-09
9.74258e-09
9.7337e-09
9.14223e-09
8.67763e-09
8.83255e-09
9.03934e-09
8.94009e-09
8.87178e-09
8.84276e-09
8.86624e-09
8.81439e-09
8.84092e-09
8.81237e-09
8.72088e-09
8.86955e-09
8.63423e-09
8.89324e-09
8.62145e-09
8.96765e-09
8.76738e-09
9.02411e-09
9.01486e-09
8.53751e-09
8.18239e-09
8.28281e-09
8.46077e-09
8.3574e-09
8.29239e-09
8.26295e-09
8.28869e-09
8.2381e-09
8.26654e-09
8.23946e-09
8.1455e-09
8.29858e-09
8.06303e-09
8.32107e-09
8.0502e-09
8.39107e-09
8.18791e-09
8.45366e-09
8.45046e-09
8.06808e-09
7.91194e-09
7.98742e-09
8.15017e-09
8.05135e-09
7.99158e-09
7.96376e-09
7.99112e-09
7.94334e-09
7.97413e-09
7.94941e-09
7.85252e-09
8.00797e-09
7.77725e-09
8.02822e-09
7.76396e-09
8.09315e-09
7.88902e-09
8.15339e-09
8.1383e-09
7.8182e-09
8.3389e-09
8.37837e-09
8.51913e-09
8.40671e-09
8.33889e-09
8.30721e-09
8.33821e-09
8.2868e-09
8.32509e-09
8.29803e-09
8.19047e-09
8.37095e-09
8.11719e-09
8.39428e-09
8.10529e-09
8.46716e-09
8.23764e-09
8.55352e-09
8.52716e-09
8.28469e-09
1.0358e-08
1.03381e-08
1.04402e-08
1.03021e-08
1.0205e-08
1.01677e-08
1.02014e-08
1.01387e-08
1.01907e-08
1.01486e-08
1.00253e-08
1.02476e-08
9.9443e-09
1.02765e-08
9.93159e-09
1.03773e-08
1.00824e-08
1.05414e-08
1.0478e-08
1.04086e-08
2.47704e-08
2.45542e-08
2.45516e-08
2.42207e-08
2.39116e-08
2.38238e-08
2.38912e-08
2.3727e-08
2.38676e-08
2.37256e-08
2.34471e-08
2.39987e-08
2.32381e-08
2.40714e-08
2.31957e-08
2.43729e-08
2.35362e-08
2.50023e-08
2.46549e-08
2.53155e-08
)
;

boundaryField
{
    fuel
    {
        type            fixedValue;
        value           nonuniform 0();
    }
    wall
    {
        type            zeroGradient;
    }
    outlet
    {
        type            zeroGradient;
    }
    frontAndBack
    {
        type            empty;
    }
    procBoundary1to0
    {
        type            processor;
        value           nonuniform List<scalar> 
21
(
1.94867e-08
2.17523e-08
2.32697e-08
2.31238e-08
2.29525e-08
2.28167e-08
2.28508e-08
2.27124e-08
2.27873e-08
2.27355e-08
1.95295e-08
1.95295e-08
1.99163e-08
1.94001e-08
2.00628e-08
1.94538e-08
2.03612e-08
1.99611e-08
2.04074e-08
2.02612e-08
1.7876e-08
)
;
    }
}


// ************************************************************************* //
