/*--------------------------------*- C++ -*----------------------------------*\
| =========                 |                                                 |
| \\      /  F ield         | OpenFOAM: The Open Source CFD Toolbox           |
|  \\    /   O peration     | Version:  dev                                   |
|   \\  /    A nd           | Web:      www.OpenFOAM.org                      |
|    \\/     M anipulation  |                                                 |
\*---------------------------------------------------------------------------*/
FoamFile
{
    version     2.0;
    format      ascii;
    class       volScalarField;
    location    "0.09";
    object      O;
}
// * * * * * * * * * * * * * * * * * * * * * * * * * * * * * * * * * * * * * //

dimensions      [0 0 0 0 0 0 0];

internalField   nonuniform List<scalar> 
25
(
9.75976e-06
8.91955e-06
8.13686e-06
7.41176e-06
6.7498e-06
6.13618e-06
5.56953e-06
5.04783e-06
4.5687e-06
4.12963e-06
3.72808e-06
3.36159e-06
3.0278e-06
2.72449e-06
2.44484e-06
2.18971e-06
1.96371e-06
1.75911e-06
1.57409e-06
1.40697e-06
1.25619e-06
1.12028e-06
9.97889e-07
8.87792e-07
7.88882e-07
)
;

boundaryField
{
    wall
    {
        type            zeroGradient;
    }
    fuel
    {
        type            fixedValue;
        value           nonuniform 0();
    }
    outlet
    {
        type            inletOutlet;
        inletValue      nonuniform 0();
        value           nonuniform 0();
    }
    procBoundary1to0
    {
        type            processor;
        value           uniform 1.06582e-05;
    }
    procBoundary1to2
    {
        type            processor;
        value           uniform 7.00102e-07;
    }
}


// ************************************************************************* //
