/*--------------------------------*- C++ -*----------------------------------*\
| =========                 |                                                 |
| \\      /  F ield         | OpenFOAM: The Open Source CFD Toolbox           |
|  \\    /   O peration     | Version:  dev                                   |
|   \\  /    A nd           | Web:      www.OpenFOAM.org                      |
|    \\/     M anipulation  |                                                 |
\*---------------------------------------------------------------------------*/
FoamFile
{
    version     2.0;
    format      ascii;
    class       volScalarField;
    location    "0.09";
    object      O;
}
// * * * * * * * * * * * * * * * * * * * * * * * * * * * * * * * * * * * * * //

dimensions      [0 0 0 0 0 0 0];

internalField   nonuniform List<scalar> 
2000
(
7.071e-06
7.08717e-06
7.10072e-06
7.10678e-06
7.10742e-06
7.10879e-06
7.1082e-06
7.10884e-06
7.10831e-06
7.10873e-06
7.10836e-06
7.10865e-06
7.1084e-06
7.10858e-06
7.10842e-06
7.10855e-06
7.10843e-06
7.10853e-06
7.10846e-06
7.10851e-06
7.10847e-06
7.1085e-06
7.10847e-06
7.10849e-06
7.10848e-06
7.10848e-06
7.10849e-06
7.10847e-06
7.1085e-06
7.10847e-06
7.10851e-06
7.10846e-06
7.10853e-06
7.10843e-06
7.10855e-06
7.10842e-06
7.10858e-06
7.1084e-06
7.10864e-06
7.10836e-06
7.10873e-06
7.10831e-06
7.10884e-06
7.1082e-06
7.10879e-06
7.10742e-06
7.10678e-06
7.10072e-06
7.08717e-06
7.07099e-06
3.32431e-05
3.32933e-05
3.33431e-05
3.33654e-05
3.33668e-05
3.33723e-05
3.33696e-05
3.33723e-05
3.33701e-05
3.33719e-05
3.33703e-05
3.33715e-05
3.33705e-05
3.33713e-05
3.33706e-05
3.33711e-05
3.33706e-05
3.33711e-05
3.33708e-05
3.3371e-05
3.33708e-05
3.33709e-05
3.33708e-05
3.33709e-05
3.33709e-05
3.33709e-05
3.33709e-05
3.33708e-05
3.33709e-05
3.33708e-05
3.3371e-05
3.33708e-05
3.33711e-05
3.33706e-05
3.33712e-05
3.33706e-05
3.33713e-05
3.33705e-05
3.33715e-05
3.33703e-05
3.33719e-05
3.33701e-05
3.33723e-05
3.33696e-05
3.33722e-05
3.33668e-05
3.33653e-05
3.33431e-05
3.32933e-05
3.32431e-05
3.75924e-05
3.76339e-05
3.76706e-05
3.76868e-05
3.76844e-05
3.76899e-05
3.76863e-05
3.76895e-05
3.76868e-05
3.7689e-05
3.76871e-05
3.76886e-05
3.76874e-05
3.76883e-05
3.76875e-05
3.76882e-05
3.76876e-05
3.76881e-05
3.76877e-05
3.7688e-05
3.76877e-05
3.76879e-05
3.76878e-05
3.76879e-05
3.76878e-05
3.76878e-05
3.76879e-05
3.76878e-05
3.76879e-05
3.76877e-05
3.7688e-05
3.76877e-05
3.76881e-05
3.76876e-05
3.76882e-05
3.76875e-05
3.76883e-05
3.76874e-05
3.76886e-05
3.76871e-05
3.7689e-05
3.76868e-05
3.76895e-05
3.76863e-05
3.76899e-05
3.76844e-05
3.76867e-05
3.76706e-05
3.76339e-05
3.75924e-05
3.22187e-05
3.22592e-05
3.22954e-05
3.23101e-05
3.23062e-05
3.2312e-05
3.23077e-05
3.23114e-05
3.23083e-05
3.23108e-05
3.23087e-05
3.23104e-05
3.2309e-05
3.23101e-05
3.23091e-05
3.23099e-05
3.23092e-05
3.23098e-05
3.23094e-05
3.23097e-05
3.23094e-05
3.23096e-05
3.23095e-05
3.23096e-05
3.23095e-05
3.23095e-05
3.23096e-05
3.23095e-05
3.23096e-05
3.23094e-05
3.23097e-05
3.23094e-05
3.23098e-05
3.23092e-05
3.23099e-05
3.23091e-05
3.23101e-05
3.2309e-05
3.23104e-05
3.23087e-05
3.23108e-05
3.23083e-05
3.23114e-05
3.23077e-05
3.2312e-05
3.23062e-05
3.23101e-05
3.22954e-05
3.22592e-05
3.22187e-05
2.43613e-05
2.43967e-05
2.44306e-05
2.4443e-05
2.44387e-05
2.44441e-05
2.44399e-05
2.44434e-05
2.44404e-05
2.44428e-05
2.44408e-05
2.44424e-05
2.44411e-05
2.44421e-05
2.44412e-05
2.4442e-05
2.44413e-05
2.44419e-05
2.44414e-05
2.44418e-05
2.44415e-05
2.44417e-05
2.44415e-05
2.44416e-05
2.44416e-05
2.44416e-05
2.44416e-05
2.44415e-05
2.44417e-05
2.44415e-05
2.44418e-05
2.44414e-05
2.44419e-05
2.44413e-05
2.4442e-05
2.44412e-05
2.44421e-05
2.44411e-05
2.44424e-05
2.44408e-05
2.44428e-05
2.44404e-05
2.44434e-05
2.44399e-05
2.44441e-05
2.44387e-05
2.4443e-05
2.44306e-05
2.43967e-05
2.43613e-05
1.7035e-05
1.70639e-05
1.70945e-05
1.71047e-05
1.71009e-05
1.71055e-05
1.71018e-05
1.71049e-05
1.71022e-05
1.71043e-05
1.71026e-05
1.7104e-05
1.71028e-05
1.71037e-05
1.7103e-05
1.71036e-05
1.7103e-05
1.71035e-05
1.71032e-05
1.71034e-05
1.71032e-05
1.71034e-05
1.71032e-05
1.71033e-05
1.71033e-05
1.71033e-05
1.71033e-05
1.71032e-05
1.71034e-05
1.71032e-05
1.71034e-05
1.71032e-05
1.71035e-05
1.7103e-05
1.71036e-05
1.7103e-05
1.71038e-05
1.71028e-05
1.7104e-05
1.71026e-05
1.71043e-05
1.71022e-05
1.71048e-05
1.71018e-05
1.71055e-05
1.71009e-05
1.71047e-05
1.70945e-05
1.70639e-05
1.7035e-05
1.14128e-05
1.14356e-05
1.14623e-05
1.14707e-05
1.14678e-05
1.14714e-05
1.14685e-05
1.14709e-05
1.14688e-05
1.14705e-05
1.14691e-05
1.14703e-05
1.14693e-05
1.147e-05
1.14694e-05
1.14699e-05
1.14695e-05
1.14698e-05
1.14696e-05
1.14698e-05
1.14696e-05
1.14697e-05
1.14696e-05
1.14697e-05
1.14697e-05
1.14697e-05
1.14697e-05
1.14696e-05
1.14697e-05
1.14696e-05
1.14698e-05
1.14696e-05
1.14698e-05
1.14695e-05
1.14699e-05
1.14694e-05
1.147e-05
1.14693e-05
1.14703e-05
1.14691e-05
1.14705e-05
1.14688e-05
1.14709e-05
1.14685e-05
1.14714e-05
1.14678e-05
1.14707e-05
1.14623e-05
1.14356e-05
1.14128e-05
7.48882e-06
7.50637e-06
7.5287e-06
7.53552e-06
7.53352e-06
7.53634e-06
7.53408e-06
7.53597e-06
7.53432e-06
7.53563e-06
7.53453e-06
7.53543e-06
7.53468e-06
7.53526e-06
7.53478e-06
7.53518e-06
7.53482e-06
7.53511e-06
7.53489e-06
7.53506e-06
7.53492e-06
7.53502e-06
7.53494e-06
7.53499e-06
7.53497e-06
7.53497e-06
7.53499e-06
7.53494e-06
7.53502e-06
7.53492e-06
7.53506e-06
7.53489e-06
7.53511e-06
7.53482e-06
7.53518e-06
7.53478e-06
7.53526e-06
7.53469e-06
7.53543e-06
7.53454e-06
7.53564e-06
7.53432e-06
7.53597e-06
7.53408e-06
7.53634e-06
7.53352e-06
7.53552e-06
7.5287e-06
7.50637e-06
7.48882e-06
4.8877e-06
4.90102e-06
4.9191e-06
4.92458e-06
4.92327e-06
4.92541e-06
4.92372e-06
4.92514e-06
4.9239e-06
4.92489e-06
4.92406e-06
4.92473e-06
4.92417e-06
4.9246e-06
4.92424e-06
4.92454e-06
4.92427e-06
4.92449e-06
4.92432e-06
4.92445e-06
4.92434e-06
4.92442e-06
4.92436e-06
4.9244e-06
4.92438e-06
4.92438e-06
4.9244e-06
4.92436e-06
4.92442e-06
4.92434e-06
4.92445e-06
4.92432e-06
4.92449e-06
4.92427e-06
4.92454e-06
4.92424e-06
4.9246e-06
4.92417e-06
4.92473e-06
4.92406e-06
4.92489e-06
4.9239e-06
4.92514e-06
4.92372e-06
4.92541e-06
4.92327e-06
4.92457e-06
4.9191e-06
4.90102e-06
4.88771e-06
3.21074e-06
3.22081e-06
3.23516e-06
3.23953e-06
3.23872e-06
3.24033e-06
3.23909e-06
3.24015e-06
3.23922e-06
3.23995e-06
3.23933e-06
3.23983e-06
3.23941e-06
3.23973e-06
3.23946e-06
3.23968e-06
3.23948e-06
3.23965e-06
3.23952e-06
3.23962e-06
3.23954e-06
3.2396e-06
3.23955e-06
3.23958e-06
3.23957e-06
3.23957e-06
3.23958e-06
3.23955e-06
3.2396e-06
3.23954e-06
3.23962e-06
3.23952e-06
3.23965e-06
3.23948e-06
3.23968e-06
3.23946e-06
3.23973e-06
3.23941e-06
3.23983e-06
3.23933e-06
3.23995e-06
3.23921e-06
3.24014e-06
3.23909e-06
3.24033e-06
3.23872e-06
3.23953e-06
3.23516e-06
3.22081e-06
3.21074e-06
2.14312e-06
2.15085e-06
2.16221e-06
2.16572e-06
2.16524e-06
2.16646e-06
2.16554e-06
2.16633e-06
2.16563e-06
2.16618e-06
2.16571e-06
2.16609e-06
2.16577e-06
2.16601e-06
2.16581e-06
2.16598e-06
2.16583e-06
2.16595e-06
2.16586e-06
2.16593e-06
2.16587e-06
2.16591e-06
2.16588e-06
2.1659e-06
2.16589e-06
2.16589e-06
2.1659e-06
2.16588e-06
2.16591e-06
2.16587e-06
2.16593e-06
2.16586e-06
2.16595e-06
2.16583e-06
2.16598e-06
2.16581e-06
2.16602e-06
2.16577e-06
2.16609e-06
2.16571e-06
2.16618e-06
2.16563e-06
2.16633e-06
2.16554e-06
2.16646e-06
2.16524e-06
2.16572e-06
2.16221e-06
2.15085e-06
2.14313e-06
1.43908e-06
1.44475e-06
1.45312e-06
1.45577e-06
1.4555e-06
1.45638e-06
1.45573e-06
1.45629e-06
1.45579e-06
1.45618e-06
1.45585e-06
1.45612e-06
1.45589e-06
1.45606e-06
1.45592e-06
1.45604e-06
1.45593e-06
1.45602e-06
1.45595e-06
1.456e-06
1.45596e-06
1.45599e-06
1.45597e-06
1.45598e-06
1.45597e-06
1.45597e-06
1.45598e-06
1.45597e-06
1.45599e-06
1.45596e-06
1.456e-06
1.45595e-06
1.45602e-06
1.45593e-06
1.45604e-06
1.45592e-06
1.45606e-06
1.45589e-06
1.45612e-06
1.45585e-06
1.45619e-06
1.45579e-06
1.45629e-06
1.45573e-06
1.45638e-06
1.4555e-06
1.45577e-06
1.45312e-06
1.44475e-06
1.43908e-06
1.00407e-06
1.00866e-06
1.01537e-06
1.01754e-06
1.01738e-06
1.01808e-06
1.01757e-06
1.01801e-06
1.01762e-06
1.01792e-06
1.01766e-06
1.01787e-06
1.01769e-06
1.01783e-06
1.01771e-06
1.0178e-06
1.01772e-06
1.01779e-06
1.01774e-06
1.01778e-06
1.01774e-06
1.01777e-06
1.01775e-06
1.01776e-06
1.01776e-06
1.01776e-06
1.01776e-06
1.01775e-06
1.01777e-06
1.01774e-06
1.01778e-06
1.01774e-06
1.01779e-06
1.01772e-06
1.0178e-06
1.01771e-06
1.01783e-06
1.01769e-06
1.01787e-06
1.01766e-06
1.01792e-06
1.01762e-06
1.01801e-06
1.01757e-06
1.01808e-06
1.01739e-06
1.01754e-06
1.01537e-06
1.00866e-06
1.00407e-06
7.20321e-07
7.23014e-07
7.27496e-07
7.29016e-07
7.29075e-07
7.2953e-07
7.2925e-07
7.29512e-07
7.29278e-07
7.29458e-07
7.29301e-07
7.29423e-07
7.29317e-07
7.29395e-07
7.29327e-07
7.29381e-07
7.2933e-07
7.29371e-07
7.2934e-07
7.29363e-07
7.29344e-07
7.29357e-07
7.29345e-07
7.29353e-07
7.29349e-07
7.29349e-07
7.29353e-07
7.29345e-07
7.29357e-07
7.29344e-07
7.29363e-07
7.2934e-07
7.29371e-07
7.29331e-07
7.29381e-07
7.29326e-07
7.29395e-07
7.29317e-07
7.29422e-07
7.29302e-07
7.29458e-07
7.29278e-07
7.29512e-07
7.2925e-07
7.29529e-07
7.29075e-07
7.29016e-07
7.27496e-07
7.23014e-07
7.20321e-07
5.27719e-07
5.29781e-07
5.33152e-07
5.34335e-07
5.34418e-07
5.34757e-07
5.34559e-07
5.34749e-07
5.34579e-07
5.34709e-07
5.34595e-07
5.34682e-07
5.34606e-07
5.34662e-07
5.34612e-07
5.34651e-07
5.34614e-07
5.34644e-07
5.34621e-07
5.34638e-07
5.34624e-07
5.34634e-07
5.34625e-07
5.3463e-07
5.34628e-07
5.34628e-07
5.3463e-07
5.34625e-07
5.34634e-07
5.34624e-07
5.34638e-07
5.34621e-07
5.34644e-07
5.34615e-07
5.34651e-07
5.34612e-07
5.34662e-07
5.34606e-07
5.34682e-07
5.34595e-07
5.34709e-07
5.34579e-07
5.34749e-07
5.34559e-07
5.34757e-07
5.34418e-07
5.34334e-07
5.33152e-07
5.29781e-07
5.27719e-07
4.03106e-07
4.04779e-07
4.07455e-07
4.08423e-07
4.08518e-07
4.08787e-07
4.08637e-07
4.08784e-07
4.08653e-07
4.08752e-07
4.08664e-07
4.08731e-07
4.08672e-07
4.08715e-07
4.08677e-07
4.08706e-07
4.08678e-07
4.08701e-07
4.08683e-07
4.08696e-07
4.08685e-07
4.08693e-07
4.08686e-07
4.0869e-07
4.08688e-07
4.08688e-07
4.0869e-07
4.08686e-07
4.08693e-07
4.08685e-07
4.08696e-07
4.08683e-07
4.08701e-07
4.08678e-07
4.08706e-07
4.08676e-07
4.08715e-07
4.08672e-07
4.08731e-07
4.08664e-07
4.08752e-07
4.08653e-07
4.08784e-07
4.08637e-07
4.08786e-07
4.08518e-07
4.08423e-07
4.07455e-07
4.04779e-07
4.03106e-07
3.15008e-07
3.16499e-07
3.18773e-07
3.19665e-07
3.19798e-07
3.2003e-07
3.19917e-07
3.20033e-07
3.19927e-07
3.20004e-07
3.19933e-07
3.19986e-07
3.19938e-07
3.19971e-07
3.19941e-07
3.19964e-07
3.19941e-07
3.19959e-07
3.19945e-07
3.19956e-07
3.19947e-07
3.19953e-07
3.19947e-07
3.1995e-07
3.19949e-07
3.19949e-07
3.1995e-07
3.19947e-07
3.19953e-07
3.19947e-07
3.19956e-07
3.19945e-07
3.19959e-07
3.19941e-07
3.19964e-07
3.1994e-07
3.19971e-07
3.19938e-07
3.19985e-07
3.19934e-07
3.20005e-07
3.19927e-07
3.20033e-07
3.19917e-07
3.2003e-07
3.19798e-07
3.19664e-07
3.18773e-07
3.16499e-07
3.15009e-07
2.55518e-07
2.56781e-07
2.58636e-07
2.59389e-07
2.59523e-07
2.59714e-07
2.59629e-07
2.5972e-07
2.59637e-07
2.59697e-07
2.59641e-07
2.59681e-07
2.59644e-07
2.5967e-07
2.59645e-07
2.59663e-07
2.59646e-07
2.5966e-07
2.59649e-07
2.59657e-07
2.5965e-07
2.59654e-07
2.5965e-07
2.59653e-07
2.59651e-07
2.59651e-07
2.59653e-07
2.5965e-07
2.59654e-07
2.5965e-07
2.59657e-07
2.59649e-07
2.5966e-07
2.59646e-07
2.59664e-07
2.59645e-07
2.5967e-07
2.59644e-07
2.59681e-07
2.59641e-07
2.59697e-07
2.59637e-07
2.5972e-07
2.59629e-07
2.59714e-07
2.59523e-07
2.59389e-07
2.58636e-07
2.56781e-07
2.55518e-07
2.11678e-07
2.12857e-07
2.145e-07
2.15198e-07
2.15324e-07
2.15496e-07
2.15419e-07
2.155e-07
2.15426e-07
2.15479e-07
2.15429e-07
2.15465e-07
2.15431e-07
2.15454e-07
2.15433e-07
2.15449e-07
2.15433e-07
2.15446e-07
2.15436e-07
2.15443e-07
2.15437e-07
2.15441e-07
2.15437e-07
2.15439e-07
2.15438e-07
2.15438e-07
2.15439e-07
2.15437e-07
2.15441e-07
2.15437e-07
2.15443e-07
2.15436e-07
2.15445e-07
2.15433e-07
2.15449e-07
2.15433e-07
2.15454e-07
2.15431e-07
2.15465e-07
2.15429e-07
2.15479e-07
2.15426e-07
2.155e-07
2.15419e-07
2.15495e-07
2.15324e-07
2.15198e-07
2.145e-07
2.12858e-07
2.11678e-07
1.79847e-07
1.80882e-07
1.82236e-07
1.82833e-07
1.82955e-07
1.83098e-07
1.83041e-07
1.83104e-07
1.83046e-07
1.83087e-07
1.83047e-07
1.83075e-07
1.83049e-07
1.83066e-07
1.83049e-07
1.83062e-07
1.83049e-07
1.83059e-07
1.83051e-07
1.83057e-07
1.83052e-07
1.83055e-07
1.83052e-07
1.83054e-07
1.83053e-07
1.83053e-07
1.83054e-07
1.83052e-07
1.83055e-07
1.83052e-07
1.83057e-07
1.83051e-07
1.83059e-07
1.83049e-07
1.83062e-07
1.83049e-07
1.83066e-07
1.83049e-07
1.83075e-07
1.83048e-07
1.83087e-07
1.83046e-07
1.83104e-07
1.83041e-07
1.83098e-07
1.82955e-07
1.82833e-07
1.82236e-07
1.80882e-07
1.79847e-07
1.57172e-07
1.58129e-07
1.59289e-07
1.59818e-07
1.59937e-07
1.60062e-07
1.60016e-07
1.60069e-07
1.60021e-07
1.60054e-07
1.60021e-07
1.60044e-07
1.60022e-07
1.60036e-07
1.60022e-07
1.60032e-07
1.60022e-07
1.6003e-07
1.60023e-07
1.60028e-07
1.60024e-07
1.60026e-07
1.60024e-07
1.60025e-07
1.60025e-07
1.60025e-07
1.60025e-07
1.60024e-07
1.60026e-07
1.60024e-07
1.60028e-07
1.60023e-07
1.6003e-07
1.60022e-07
1.60032e-07
1.60022e-07
1.60036e-07
1.60022e-07
1.60044e-07
1.60021e-07
1.60054e-07
1.6002e-07
1.60069e-07
1.60016e-07
1.60061e-07
1.59937e-07
1.59818e-07
1.59289e-07
1.58129e-07
1.57172e-07
1.40163e-07
1.41079e-07
1.4209e-07
1.42565e-07
1.4268e-07
1.4279e-07
1.42754e-07
1.42799e-07
1.42758e-07
1.42785e-07
1.42757e-07
1.42776e-07
1.42757e-07
1.42769e-07
1.42757e-07
1.42766e-07
1.42757e-07
1.42764e-07
1.42758e-07
1.42762e-07
1.42759e-07
1.42761e-07
1.42759e-07
1.4276e-07
1.42759e-07
1.42759e-07
1.4276e-07
1.42759e-07
1.42761e-07
1.42759e-07
1.42762e-07
1.42758e-07
1.42764e-07
1.42757e-07
1.42766e-07
1.42757e-07
1.42769e-07
1.42757e-07
1.42776e-07
1.42758e-07
1.42785e-07
1.42757e-07
1.42799e-07
1.42754e-07
1.4279e-07
1.4268e-07
1.42565e-07
1.4209e-07
1.4108e-07
1.40163e-07
1.27234e-07
1.27762e-07
1.28606e-07
1.29024e-07
1.29143e-07
1.2924e-07
1.29216e-07
1.29251e-07
1.29218e-07
1.29239e-07
1.29216e-07
1.2923e-07
1.29215e-07
1.29223e-07
1.29214e-07
1.2922e-07
1.29213e-07
1.29218e-07
1.29214e-07
1.29217e-07
1.29214e-07
1.29216e-07
1.29214e-07
1.29215e-07
1.29214e-07
1.29214e-07
1.29215e-07
1.29214e-07
1.29216e-07
1.29214e-07
1.29217e-07
1.29214e-07
1.29218e-07
1.29213e-07
1.2922e-07
1.29214e-07
1.29223e-07
1.29215e-07
1.2923e-07
1.29216e-07
1.29239e-07
1.29218e-07
1.29251e-07
1.29216e-07
1.2924e-07
1.29143e-07
1.29024e-07
1.28606e-07
1.27762e-07
1.27234e-07
1.17291e-07
1.17795e-07
1.18543e-07
1.18924e-07
1.19039e-07
1.19127e-07
1.19109e-07
1.19138e-07
1.19111e-07
1.19127e-07
1.19108e-07
1.19119e-07
1.19106e-07
1.19113e-07
1.19105e-07
1.1911e-07
1.19104e-07
1.19108e-07
1.19104e-07
1.19107e-07
1.19105e-07
1.19106e-07
1.19104e-07
1.19105e-07
1.19105e-07
1.19105e-07
1.19105e-07
1.19104e-07
1.19106e-07
1.19105e-07
1.19107e-07
1.19104e-07
1.19108e-07
1.19104e-07
1.1911e-07
1.19105e-07
1.19113e-07
1.19106e-07
1.19119e-07
1.19108e-07
1.19127e-07
1.19111e-07
1.19138e-07
1.19109e-07
1.19127e-07
1.19039e-07
1.18924e-07
1.18543e-07
1.17795e-07
1.17291e-07
1.09272e-07
1.09757e-07
1.10439e-07
1.10798e-07
1.10912e-07
1.10994e-07
1.1098e-07
1.11006e-07
1.10981e-07
1.10995e-07
1.10978e-07
1.10987e-07
1.10975e-07
1.10981e-07
1.10974e-07
1.10978e-07
1.10973e-07
1.10977e-07
1.10973e-07
1.10975e-07
1.10973e-07
1.10975e-07
1.10973e-07
1.10974e-07
1.10974e-07
1.10974e-07
1.10974e-07
1.10973e-07
1.10975e-07
1.10973e-07
1.10975e-07
1.10973e-07
1.10977e-07
1.10973e-07
1.10978e-07
1.10974e-07
1.10981e-07
1.10975e-07
1.10987e-07
1.10978e-07
1.10995e-07
1.10981e-07
1.11006e-07
1.1098e-07
1.10994e-07
1.10912e-07
1.10798e-07
1.10439e-07
1.09757e-07
1.09272e-07
1.02962e-07
1.0342e-07
1.04031e-07
1.04361e-07
1.04472e-07
1.04547e-07
1.04537e-07
1.04559e-07
1.04537e-07
1.04549e-07
1.04534e-07
1.04541e-07
1.04531e-07
1.04536e-07
1.04529e-07
1.04533e-07
1.04528e-07
1.04531e-07
1.04528e-07
1.0453e-07
1.04528e-07
1.04529e-07
1.04528e-07
1.04529e-07
1.04528e-07
1.04528e-07
1.04529e-07
1.04528e-07
1.04529e-07
1.04528e-07
1.0453e-07
1.04528e-07
1.04531e-07
1.04528e-07
1.04533e-07
1.04529e-07
1.04536e-07
1.04531e-07
1.04541e-07
1.04534e-07
1.04549e-07
1.04537e-07
1.04559e-07
1.04537e-07
1.04547e-07
1.04472e-07
1.04361e-07
1.04031e-07
1.0342e-07
1.02962e-07
9.79399e-08
9.83754e-08
9.89286e-08
9.92334e-08
9.93414e-08
9.94107e-08
9.94037e-08
9.94223e-08
9.9404e-08
9.94128e-08
9.93997e-08
9.94054e-08
9.93966e-08
9.94004e-08
9.93947e-08
9.93976e-08
9.93936e-08
9.93961e-08
9.93937e-08
9.93951e-08
9.93935e-08
9.93943e-08
9.93933e-08
9.93938e-08
9.93935e-08
9.93935e-08
9.93938e-08
9.93933e-08
9.93943e-08
9.93935e-08
9.93951e-08
9.93936e-08
9.9396e-08
9.93936e-08
9.93976e-08
9.93947e-08
9.94004e-08
9.93966e-08
9.94054e-08
9.93998e-08
9.94128e-08
9.9404e-08
9.94222e-08
9.94037e-08
9.94106e-08
9.93413e-08
9.92333e-08
9.89285e-08
9.83753e-08
9.79399e-08
9.39005e-08
9.43155e-08
9.48212e-08
9.51048e-08
9.52097e-08
9.52742e-08
9.52698e-08
9.52857e-08
9.52697e-08
9.52766e-08
9.5265e-08
9.52694e-08
9.52616e-08
9.52645e-08
9.52595e-08
9.52618e-08
9.52583e-08
9.52603e-08
9.52582e-08
9.52594e-08
9.5258e-08
9.52586e-08
9.52578e-08
9.52582e-08
9.5258e-08
9.5258e-08
9.52582e-08
9.52578e-08
9.52587e-08
9.5258e-08
9.52594e-08
9.52582e-08
9.52603e-08
9.52583e-08
9.52618e-08
9.52595e-08
9.52645e-08
9.52616e-08
9.52694e-08
9.5265e-08
9.52767e-08
9.52697e-08
9.52857e-08
9.52698e-08
9.52741e-08
9.52096e-08
9.51047e-08
9.48212e-08
9.43155e-08
9.39005e-08
9.06162e-08
9.10122e-08
9.14792e-08
9.1744e-08
9.18461e-08
9.19066e-08
9.19042e-08
9.1918e-08
9.19037e-08
9.19091e-08
9.18985e-08
9.19019e-08
9.18948e-08
9.18971e-08
9.18926e-08
9.18944e-08
9.18913e-08
9.1893e-08
9.18911e-08
9.18921e-08
9.18908e-08
9.18914e-08
9.18906e-08
9.18909e-08
9.18907e-08
9.18907e-08
9.18909e-08
9.18906e-08
9.18914e-08
9.18908e-08
9.18921e-08
9.18911e-08
9.1893e-08
9.18913e-08
9.18944e-08
9.18926e-08
9.18971e-08
9.18948e-08
9.19019e-08
9.18986e-08
9.19091e-08
9.19036e-08
9.19179e-08
9.19042e-08
9.19065e-08
9.1846e-08
9.1744e-08
9.14791e-08
9.10122e-08
9.06162e-08
8.7916e-08
8.82947e-08
8.87295e-08
8.89779e-08
8.90772e-08
8.91343e-08
8.91336e-08
8.91454e-08
8.91325e-08
8.91366e-08
8.91269e-08
8.91294e-08
8.91229e-08
8.91246e-08
8.91205e-08
8.9122e-08
8.91191e-08
8.91206e-08
8.91189e-08
8.91197e-08
8.91186e-08
8.9119e-08
8.91183e-08
8.91186e-08
8.91184e-08
8.91184e-08
8.91186e-08
8.91183e-08
8.9119e-08
8.91186e-08
8.91197e-08
8.91189e-08
8.91205e-08
8.91192e-08
8.9122e-08
8.91205e-08
8.91247e-08
8.9123e-08
8.91294e-08
8.9127e-08
8.91366e-08
8.91325e-08
8.91454e-08
8.91335e-08
8.91342e-08
8.90772e-08
8.89779e-08
8.87294e-08
8.82947e-08
8.7916e-08
8.56705e-08
8.60333e-08
8.6441e-08
8.6675e-08
8.67716e-08
8.68257e-08
8.68262e-08
8.68364e-08
8.68246e-08
8.68276e-08
8.68186e-08
8.68203e-08
8.68143e-08
8.68156e-08
8.68118e-08
8.68129e-08
8.68103e-08
8.68115e-08
8.68099e-08
8.68106e-08
8.68096e-08
8.68099e-08
8.68093e-08
8.68096e-08
8.68094e-08
8.68094e-08
8.68096e-08
8.68093e-08
8.68099e-08
8.68096e-08
8.68106e-08
8.68099e-08
8.68114e-08
8.68103e-08
8.68129e-08
8.68118e-08
8.68156e-08
8.68144e-08
8.68203e-08
8.68187e-08
8.68276e-08
8.68246e-08
8.68364e-08
8.68262e-08
8.68256e-08
8.67716e-08
8.66749e-08
8.64409e-08
8.60333e-08
8.56704e-08
8.37802e-08
8.41285e-08
8.45131e-08
8.47343e-08
8.48284e-08
8.48799e-08
8.48812e-08
8.48901e-08
8.48791e-08
8.48811e-08
8.48727e-08
8.48737e-08
8.48681e-08
8.48689e-08
8.48654e-08
8.48662e-08
8.48638e-08
8.48648e-08
8.48633e-08
8.48639e-08
8.4863e-08
8.48633e-08
8.48627e-08
8.48629e-08
8.48628e-08
8.48628e-08
8.48629e-08
8.48627e-08
8.48633e-08
8.4863e-08
8.48639e-08
8.48633e-08
8.48647e-08
8.48638e-08
8.48662e-08
8.48654e-08
8.48689e-08
8.48681e-08
8.48737e-08
8.48727e-08
8.48811e-08
8.48791e-08
8.489e-08
8.48812e-08
8.48798e-08
8.48284e-08
8.47343e-08
8.45131e-08
8.41285e-08
8.37802e-08
8.21686e-08
8.25036e-08
8.28683e-08
8.30781e-08
8.31696e-08
8.32187e-08
8.32207e-08
8.32283e-08
8.3218e-08
8.32191e-08
8.32111e-08
8.32116e-08
8.32062e-08
8.32067e-08
8.32033e-08
8.32039e-08
8.32017e-08
8.32025e-08
8.32011e-08
8.32016e-08
8.32007e-08
8.3201e-08
8.32004e-08
8.32006e-08
8.32005e-08
8.32005e-08
8.32006e-08
8.32005e-08
8.3201e-08
8.32007e-08
8.32016e-08
8.32011e-08
8.32025e-08
8.32017e-08
8.32039e-08
8.32033e-08
8.32067e-08
8.32063e-08
8.32116e-08
8.32111e-08
8.32191e-08
8.3218e-08
8.32283e-08
8.32207e-08
8.32186e-08
8.31696e-08
8.30781e-08
8.28682e-08
8.25035e-08
8.21686e-08
8.07761e-08
8.10985e-08
8.1446e-08
8.16456e-08
8.17346e-08
8.17815e-08
8.17839e-08
8.17904e-08
8.17806e-08
8.17809e-08
8.17732e-08
8.17731e-08
8.1768e-08
8.17681e-08
8.17649e-08
8.17653e-08
8.17632e-08
8.17638e-08
8.17626e-08
8.17629e-08
8.17621e-08
8.17623e-08
8.17618e-08
8.1762e-08
8.17618e-08
8.17618e-08
8.1762e-08
8.17618e-08
8.17623e-08
8.17621e-08
8.17629e-08
8.17626e-08
8.17638e-08
8.17632e-08
8.17653e-08
8.17649e-08
8.17681e-08
8.1768e-08
8.17731e-08
8.17732e-08
8.17809e-08
8.17805e-08
8.17903e-08
8.17838e-08
8.17814e-08
8.17345e-08
8.16456e-08
8.14459e-08
8.10985e-08
8.0776e-08
7.95557e-08
7.98665e-08
8.01988e-08
8.03893e-08
8.04756e-08
8.05205e-08
8.05231e-08
8.05286e-08
8.05191e-08
8.05187e-08
8.05112e-08
8.05108e-08
8.05058e-08
8.05056e-08
8.05025e-08
8.05027e-08
8.05007e-08
8.05012e-08
8.05e-08
8.05003e-08
8.04995e-08
8.04997e-08
8.04992e-08
8.04993e-08
8.04992e-08
8.04992e-08
8.04993e-08
8.04992e-08
8.04997e-08
8.04995e-08
8.05003e-08
8.05e-08
8.05012e-08
8.05007e-08
8.05027e-08
8.05025e-08
8.05056e-08
8.05058e-08
8.05107e-08
8.05113e-08
8.05187e-08
8.05191e-08
8.05286e-08
8.05231e-08
8.05205e-08
8.04756e-08
8.03892e-08
8.01988e-08
7.98665e-08
7.95557e-08
7.84708e-08
7.87705e-08
7.90894e-08
7.92715e-08
7.93552e-08
7.93982e-08
7.94008e-08
7.94054e-08
7.93961e-08
7.93951e-08
7.93877e-08
7.93868e-08
7.93819e-08
7.93815e-08
7.93785e-08
7.93785e-08
7.93766e-08
7.93769e-08
7.93758e-08
7.9376e-08
7.93753e-08
7.93754e-08
7.9375e-08
7.93751e-08
7.93749e-08
7.93749e-08
7.93751e-08
7.9375e-08
7.93754e-08
7.93753e-08
7.9376e-08
7.93758e-08
7.93769e-08
7.93766e-08
7.93785e-08
7.93785e-08
7.93815e-08
7.93819e-08
7.93868e-08
7.93877e-08
7.93951e-08
7.93961e-08
7.94054e-08
7.94008e-08
7.93982e-08
7.93552e-08
7.92714e-08
7.90893e-08
7.87705e-08
7.84708e-08
7.74922e-08
7.77811e-08
7.8088e-08
7.82625e-08
7.83436e-08
7.83848e-08
7.83872e-08
7.83909e-08
7.83817e-08
7.83801e-08
7.83727e-08
7.83715e-08
7.83666e-08
7.8366e-08
7.8363e-08
7.83629e-08
7.8361e-08
7.83613e-08
7.83602e-08
7.83604e-08
7.83596e-08
7.83597e-08
7.83593e-08
7.83594e-08
7.83593e-08
7.83593e-08
7.83594e-08
7.83593e-08
7.83597e-08
7.83596e-08
7.83603e-08
7.83602e-08
7.83613e-08
7.8361e-08
7.83629e-08
7.8363e-08
7.8366e-08
7.83667e-08
7.83715e-08
7.83728e-08
7.83801e-08
7.83817e-08
7.83909e-08
7.83872e-08
7.83847e-08
7.83435e-08
7.82624e-08
7.8088e-08
7.7781e-08
7.74921e-08
7.65965e-08
7.68748e-08
7.71711e-08
7.73385e-08
7.74169e-08
7.74563e-08
7.74584e-08
7.74613e-08
7.7452e-08
7.74499e-08
7.74426e-08
7.7441e-08
7.74362e-08
7.74353e-08
7.74323e-08
7.74321e-08
7.74302e-08
7.74304e-08
7.74293e-08
7.74295e-08
7.74287e-08
7.74288e-08
7.74284e-08
7.74285e-08
7.74284e-08
7.74284e-08
7.74285e-08
7.74284e-08
7.74288e-08
7.74287e-08
7.74294e-08
7.74293e-08
7.74304e-08
7.74302e-08
7.74321e-08
7.74323e-08
7.74353e-08
7.74362e-08
7.7441e-08
7.74426e-08
7.74499e-08
7.7452e-08
7.74613e-08
7.74584e-08
7.74563e-08
7.74169e-08
7.73384e-08
7.71711e-08
7.68748e-08
7.65964e-08
7.57652e-08
7.60329e-08
7.63197e-08
7.64804e-08
7.65562e-08
7.65938e-08
7.65955e-08
7.65975e-08
7.65882e-08
7.65855e-08
7.65781e-08
7.65762e-08
7.65714e-08
7.65703e-08
7.65674e-08
7.6567e-08
7.65651e-08
7.65652e-08
7.65642e-08
7.65643e-08
7.65636e-08
7.65636e-08
7.65632e-08
7.65632e-08
7.65631e-08
7.65631e-08
7.65632e-08
7.65632e-08
7.65636e-08
7.65636e-08
7.65642e-08
7.65642e-08
7.65652e-08
7.65652e-08
7.6567e-08
7.65674e-08
7.65703e-08
7.65714e-08
7.65762e-08
7.65782e-08
7.65855e-08
7.65882e-08
7.65975e-08
7.65954e-08
7.65938e-08
7.65561e-08
7.64804e-08
7.63196e-08
7.60328e-08
7.57651e-08
7.49825e-08
7.52409e-08
7.55185e-08
7.56729e-08
7.5746e-08
7.57819e-08
7.5783e-08
7.57842e-08
7.57747e-08
7.57715e-08
7.5764e-08
7.57618e-08
7.57569e-08
7.57557e-08
7.57527e-08
7.57522e-08
7.57504e-08
7.57504e-08
7.57493e-08
7.57494e-08
7.57487e-08
7.57487e-08
7.57483e-08
7.57484e-08
7.57483e-08
7.57483e-08
7.57484e-08
7.57483e-08
7.57487e-08
7.57487e-08
7.57494e-08
7.57493e-08
7.57504e-08
7.57504e-08
7.57523e-08
7.57527e-08
7.57557e-08
7.57569e-08
7.57618e-08
7.57641e-08
7.57715e-08
7.57747e-08
7.57842e-08
7.57829e-08
7.57818e-08
7.57459e-08
7.56729e-08
7.55185e-08
7.52409e-08
7.49825e-08
)
;

boundaryField
{
    fuel
    {
        type            fixedValue;
        value           uniform 0;
    }
    wall
    {
        type            zeroGradient;
    }
    outlet
    {
        type            zeroGradient;
    }
    frontAndBack
    {
        type            empty;
    }
    procBoundary1to0
    {
        type            processor;
        value           nonuniform List<scalar> 
50
(
7.42365e-08
7.44867e-08
7.47552e-08
7.49036e-08
7.49739e-08
7.5008e-08
7.50085e-08
7.50089e-08
7.49991e-08
7.49955e-08
7.49879e-08
7.49853e-08
7.49804e-08
7.4979e-08
7.4976e-08
7.49754e-08
7.49735e-08
7.49735e-08
7.49724e-08
7.49724e-08
7.49717e-08
7.49717e-08
7.49713e-08
7.49714e-08
7.49713e-08
7.49713e-08
7.49714e-08
7.49713e-08
7.49717e-08
7.49717e-08
7.49724e-08
7.49724e-08
7.49735e-08
7.49735e-08
7.49754e-08
7.4976e-08
7.4979e-08
7.49804e-08
7.49853e-08
7.49879e-08
7.49955e-08
7.49991e-08
7.50089e-08
7.50084e-08
7.5008e-08
7.49739e-08
7.49036e-08
7.47551e-08
7.44866e-08
7.42364e-08
)
;
    }
}


// ************************************************************************* //
