/*--------------------------------*- C++ -*----------------------------------*\
| =========                 |                                                 |
| \\      /  F ield         | OpenFOAM: The Open Source CFD Toolbox           |
|  \\    /   O peration     | Version:  dev                                   |
|   \\  /    A nd           | Web:      www.OpenFOAM.org                      |
|    \\/     M anipulation  |                                                 |
\*---------------------------------------------------------------------------*/
FoamFile
{
    version     2.0;
    format      ascii;
    class       volScalarField;
    location    "0.09";
    object      P2-H;
}
// * * * * * * * * * * * * * * * * * * * * * * * * * * * * * * * * * * * * * //

dimensions      [0 0 0 0 0 0 0];

internalField   nonuniform List<scalar> 
25
(
3.93281e-25
3.32878e-25
2.95731e-25
2.80129e-25
2.84078e-25
3.06506e-25
3.47852e-25
4.09832e-25
4.95462e-25
6.09128e-25
7.56692e-25
9.45621e-25
1.18508e-24
1.48593e-24
1.86692e-24
2.34029e-24
2.90456e-24
3.5822e-24
4.38125e-24
5.3041e-24
6.34564e-24
7.49188e-24
8.71977e-24
9.99915e-24
1.12987e-23
)
;

boundaryField
{
    wall
    {
        type            zeroGradient;
    }
    fuel
    {
        type            fixedValue;
        value           nonuniform 0();
    }
    outlet
    {
        type            inletOutlet;
        inletValue      nonuniform 0();
        value           nonuniform 0();
    }
    procBoundary1to0
    {
        type            processor;
        value           uniform 5.14822e-25;
    }
    procBoundary1to2
    {
        type            processor;
        value           uniform 1.25213e-23;
    }
}


// ************************************************************************* //
