/*--------------------------------*- C++ -*----------------------------------*\
| =========                 |                                                 |
| \\      /  F ield         | OpenFOAM: The Open Source CFD Toolbox           |
|  \\    /   O peration     | Version:  dev                                   |
|   \\  /    A nd           | Web:      www.OpenFOAM.org                      |
|    \\/     M anipulation  |                                                 |
\*---------------------------------------------------------------------------*/
FoamFile
{
    version     2.0;
    format      ascii;
    class       volScalarField;
    location    "0.03";
    object      A2-1;
}
// * * * * * * * * * * * * * * * * * * * * * * * * * * * * * * * * * * * * * //

dimensions      [0 0 0 0 0 0 0];

internalField   nonuniform List<scalar> 
25
(
3.01586e-11
3.25127e-11
3.45715e-11
3.6321e-11
3.77585e-11
3.88955e-11
3.97339e-11
4.02961e-11
4.05955e-11
4.0642e-11
4.04423e-11
4.00009e-11
3.9321e-11
3.84063e-11
3.72623e-11
3.58969e-11
3.43202e-11
3.2549e-11
3.05692e-11
2.84848e-11
2.62895e-11
2.40312e-11
2.17403e-11
1.94494e-11
1.71891e-11
)
;

boundaryField
{
    wall
    {
        type            zeroGradient;
    }
    fuel
    {
        type            fixedValue;
        value           nonuniform 0();
    }
    outlet
    {
        type            inletOutlet;
        inletValue      nonuniform 0();
        value           nonuniform 0();
    }
    procBoundary2to1
    {
        type            processor;
        value           uniform 2.75373e-11;
    }
    procBoundary2to3
    {
        type            processor;
        value           uniform 1.49875e-11;
    }
}


// ************************************************************************* //
