/*--------------------------------*- C++ -*----------------------------------*\
| =========                 |                                                 |
| \\      /  F ield         | OpenFOAM: The Open Source CFD Toolbox           |
|  \\    /   O peration     | Version:  dev                                   |
|   \\  /    A nd           | Web:      www.OpenFOAM.org                      |
|    \\/     M anipulation  |                                                 |
\*---------------------------------------------------------------------------*/
FoamFile
{
    version     2.0;
    format      ascii;
    class       volScalarField;
    location    "0.03";
    object      A2C2HB*;
}
// * * * * * * * * * * * * * * * * * * * * * * * * * * * * * * * * * * * * * //

dimensions      [0 0 0 0 0 0 0];

internalField   nonuniform List<scalar> 
250
(
1.0739e-12
1.68662e-09
1.64155e-09
1.61812e-09
1.61216e-09
1.61111e-09
1.61124e-09
1.61185e-09
1.61161e-09
8.25918e-13
1.48524e-09
1.18248e-09
1.15061e-09
1.14328e-09
1.14202e-09
1.14171e-09
1.14211e-09
1.14177e-09
5.82779e-13
8.45438e-10
6.27568e-10
6.0548e-10
5.99043e-10
5.98201e-10
5.9778e-10
5.98143e-10
5.97789e-10
3.68173e-13
4.49139e-10
3.30814e-10
3.17458e-10
3.11845e-10
3.11295e-10
3.10958e-10
3.11182e-10
3.10944e-10
2.53843e-13
2.48407e-10
1.8748e-10
1.80144e-10
1.74474e-10
1.7404e-10
1.73856e-10
1.73922e-10
1.73814e-10
1.95543e-13
1.42308e-10
1.16338e-10
1.08482e-10
1.06914e-10
1.06577e-10
1.06517e-10
1.06477e-10
1.06461e-10
1.86319e-13
9.29073e-11
7.86678e-11
7.26431e-11
7.12813e-11
7.0345e-11
7.05411e-11
7.02693e-11
7.03733e-11
2.31032e-13
6.61942e-11
5.71929e-11
5.07094e-11
4.83382e-11
4.74131e-11
4.76858e-11
4.7377e-11
4.7516e-11
3.71171e-13
5.13435e-11
4.25455e-11
3.7153e-11
3.56486e-11
3.4733e-11
3.5044e-11
3.47194e-11
3.48753e-11
7.16932e-13
4.08982e-11
3.26953e-11
2.83881e-11
2.72571e-11
2.6279e-11
2.66406e-11
2.62723e-11
2.64537e-11
1.44363e-12
3.44683e-11
2.6515e-11
2.15602e-11
2.07107e-11
1.97619e-11
2.01246e-11
1.97711e-11
1.9946e-11
1.98407e-11
2.78112e-12
3.05404e-11
2.14779e-11
1.66317e-11
1.60454e-11
1.51603e-11
1.55045e-11
1.51778e-11
1.5339e-11
1.52432e-11
5.06162e-12
2.72214e-11
1.76283e-11
1.30554e-11
1.2649e-11
1.184e-11
1.21554e-11
1.186e-11
1.20043e-11
1.19192e-11
8.80354e-12
2.47529e-11
1.46736e-11
1.0423e-11
1.01358e-11
9.40732e-12
9.68887e-12
9.42662e-12
9.55289e-12
9.47848e-12
1.44757e-11
2.24987e-11
1.2372e-11
8.46256e-12
8.25119e-12
7.60328e-12
7.84953e-12
7.61995e-12
7.72882e-12
7.66449e-12
2.21722e-11
2.04813e-11
1.05567e-11
6.98569e-12
6.82048e-12
6.24979e-12
6.46197e-12
6.26295e-12
6.35591e-12
6.30065e-12
3.14779e-11
1.87988e-11
9.10743e-12
5.85903e-12
5.72074e-12
5.2214e-12
5.40237e-12
5.23079e-12
5.30979e-12
5.26235e-12
4.15813e-11
1.7387e-11
7.93536e-12
4.98702e-12
4.86397e-12
4.42863e-12
4.58212e-12
4.43429e-12
4.50152e-12
4.4605e-12
5.14761e-11
1.62978e-11
6.97377e-12
4.30075e-12
4.18653e-12
3.8073e-12
3.93739e-12
3.80942e-12
3.86716e-12
3.83109e-12
6.01562e-11
1.52985e-11
6.17188e-12
3.7501e-12
3.64205e-12
3.3111e-12
3.42201e-12
3.30992e-12
3.3607e-12
3.32808e-12
6.67877e-11
1.43645e-11
5.49138e-12
3.29821e-12
3.19652e-12
2.90637e-12
3.00241e-12
2.90209e-12
2.94886e-12
2.91879e-12
7.08363e-11
1.34628e-11
4.90303e-12
2.91695e-12
2.82472e-12
2.56792e-12
2.65388e-12
2.56069e-12
2.60728e-12
2.58106e-12
7.21309e-11
1.25456e-11
4.38377e-12
2.62618e-12
2.50744e-12
2.30892e-12
2.35763e-12
2.29927e-12
2.3172e-12
2.29916e-12
7.08452e-11
1.15058e-11
3.91067e-12
2.36403e-12
2.26275e-12
2.07819e-12
2.12888e-12
2.07093e-12
2.09258e-12
2.07779e-12
6.74028e-11
1.04588e-11
3.51369e-12
2.14241e-12
2.04955e-12
1.88377e-12
1.92957e-12
1.87462e-12
1.89652e-12
1.88257e-12
6.23464e-11
9.39399e-12
3.15891e-12
1.94644e-12
1.86179e-12
1.7125e-12
1.75021e-12
1.7015e-12
1.71833e-12
1.70354e-12
)
;

boundaryField
{
    fuel
    {
        type            fixedValue;
        value           uniform 0;
    }
    wall
    {
        type            zeroGradient;
    }
    outlet
    {
        type            zeroGradient;
    }
    frontAndBack
    {
        type            empty;
    }
    procBoundary2to0
    {
        type            processor;
        value           nonuniform List<scalar> 
12
(
1.88273e-12
5.6186e-11
8.35874e-12
2.83925e-12
1.77199e-12
1.69504e-12
1.56041e-12
1.59316e-12
1.54754e-12
1.56288e-12
1.70362e-12
1.54828e-12
)
;
    }
    procBoundary2to3
    {
        type            processor;
        value           nonuniform List<scalar> 
25
(
1.61093e-09
1.14175e-09
5.9791e-10
3.11033e-10
1.73843e-10
1.06447e-10
7.02931e-11
4.74241e-11
3.47774e-11
2.63429e-11
2.63429e-11
1.9859e-11
1.52573e-11
1.19299e-11
9.48659e-12
7.67057e-12
6.30515e-12
5.26566e-12
4.46292e-12
3.83284e-12
3.32933e-12
2.91966e-12
2.58164e-12
2.29952e-12
2.07806e-12
)
;
    }
}


// ************************************************************************* //
