/*--------------------------------*- C++ -*----------------------------------*\
| =========                 |                                                 |
| \\      /  F ield         | OpenFOAM: The Open Source CFD Toolbox           |
|  \\    /   O peration     | Version:  dev                                   |
|   \\  /    A nd           | Web:      www.OpenFOAM.org                      |
|    \\/     M anipulation  |                                                 |
\*---------------------------------------------------------------------------*/
FoamFile
{
    version     2.0;
    format      ascii;
    class       volScalarField;
    location    "0.03";
    object      A2C2H22;
}
// * * * * * * * * * * * * * * * * * * * * * * * * * * * * * * * * * * * * * //

dimensions      [0 0 0 0 0 0 0];

internalField   nonuniform List<scalar> 
25
(
1.40546e-17
1.43846e-17
1.47217e-17
1.50119e-17
1.52102e-17
1.52814e-17
1.51985e-17
1.49518e-17
1.45403e-17
1.39723e-17
1.3264e-17
1.24374e-17
1.15189e-17
1.05366e-17
9.51879e-18
8.49198e-18
7.48076e-18
6.50857e-18
5.57753e-18
4.734e-18
3.96896e-18
3.29041e-18
2.69677e-18
2.18471e-18
1.74844e-18
)
;

boundaryField
{
    wall
    {
        type            zeroGradient;
    }
    fuel
    {
        type            fixedValue;
        value           nonuniform 0();
    }
    outlet
    {
        type            inletOutlet;
        inletValue      nonuniform 0();
        value           nonuniform 0();
    }
    procBoundary2to1
    {
        type            processor;
        value           uniform 1.37765e-17;
    }
    procBoundary2to3
    {
        type            processor;
        value           uniform 1.38235e-18;
    }
}


// ************************************************************************* //
