/*--------------------------------*- C++ -*----------------------------------*\
| =========                 |                                                 |
| \\      /  F ield         | OpenFOAM: The Open Source CFD Toolbox           |
|  \\    /   O peration     | Version:  dev                                   |
|   \\  /    A nd           | Web:      www.OpenFOAM.org                      |
|    \\/     M anipulation  |                                                 |
\*---------------------------------------------------------------------------*/
FoamFile
{
    version     2.0;
    format      ascii;
    class       volScalarField;
    location    "0.03";
    object      A2R5-;
}
// * * * * * * * * * * * * * * * * * * * * * * * * * * * * * * * * * * * * * //

dimensions      [0 0 0 0 0 0 0];

internalField   nonuniform List<scalar> 
1997
(
4.02967e-09
4.03948e-09
4.03838e-09
4.03888e-09
4.03539e-09
4.03321e-09
4.03045e-09
4.02894e-09
4.02746e-09
4.02675e-09
4.02595e-09
4.02564e-09
4.02507e-09
4.02485e-09
4.02435e-09
4.02412e-09
4.02366e-09
4.02343e-09
3.91608e-09
3.92513e-09
3.9233e-09
3.9233e-09
3.91953e-09
3.91717e-09
3.91438e-09
3.91285e-09
3.91141e-09
3.91073e-09
3.90999e-09
3.90972e-09
3.9092e-09
3.90902e-09
3.90857e-09
3.90837e-09
3.90794e-09
3.90773e-09
3.90736e-09
3.90716e-09
3.90686e-09
3.9067e-09
3.9065e-09
3.9064e-09
3.90633e-09
3.90632e-09
3.90638e-09
3.90646e-09
3.80663e-09
3.81483e-09
3.81231e-09
3.81186e-09
3.80788e-09
3.80538e-09
3.80256e-09
3.80101e-09
3.79958e-09
3.79889e-09
3.79816e-09
3.7979e-09
3.79739e-09
3.79721e-09
3.79677e-09
3.79657e-09
3.79615e-09
3.79594e-09
3.79557e-09
3.79536e-09
3.79506e-09
3.7949e-09
3.7947e-09
3.79461e-09
3.79453e-09
3.79452e-09
3.79459e-09
3.79467e-09
3.79488e-09
3.79503e-09
3.79532e-09
3.79552e-09
3.79588e-09
3.79608e-09
3.7965e-09
3.79668e-09
3.79711e-09
3.79728e-09
3.79778e-09
3.79803e-09
3.69874e-09
3.70611e-09
3.70294e-09
3.70206e-09
3.69788e-09
3.69523e-09
3.69239e-09
3.69081e-09
3.6894e-09
3.6887e-09
3.68799e-09
3.68773e-09
3.68724e-09
3.68706e-09
3.68662e-09
3.68643e-09
3.68601e-09
3.6858e-09
3.68543e-09
3.68523e-09
3.68493e-09
3.68476e-09
3.68456e-09
3.68447e-09
3.68439e-09
3.68438e-09
3.68445e-09
3.68453e-09
3.68474e-09
3.6849e-09
3.68519e-09
3.68539e-09
3.68575e-09
3.68595e-09
3.68636e-09
3.68654e-09
3.68697e-09
3.68713e-09
3.68762e-09
3.68787e-09
3.68855e-09
3.68926e-09
3.69066e-09
3.69224e-09
3.69508e-09
3.69773e-09
3.70192e-09
3.70283e-09
3.70602e-09
3.69868e-09
3.59234e-09
3.59892e-09
3.59512e-09
3.59381e-09
3.58944e-09
3.58665e-09
3.5838e-09
3.58219e-09
3.58079e-09
3.58009e-09
3.5794e-09
3.57914e-09
3.57867e-09
3.57849e-09
3.57806e-09
3.57787e-09
3.57745e-09
3.57724e-09
3.57688e-09
3.57668e-09
3.57638e-09
3.57621e-09
3.57601e-09
3.57591e-09
3.57583e-09
3.57583e-09
3.57589e-09
3.57598e-09
3.57619e-09
3.57635e-09
3.57664e-09
3.57684e-09
3.5772e-09
3.5774e-09
3.57781e-09
3.57798e-09
3.5784e-09
3.57857e-09
3.57904e-09
3.57929e-09
3.57995e-09
3.58067e-09
3.58205e-09
3.58367e-09
3.58652e-09
3.58931e-09
3.5937e-09
3.59502e-09
3.59885e-09
3.59229e-09
3.48736e-09
3.49318e-09
3.48877e-09
3.48706e-09
3.48249e-09
3.47957e-09
3.47671e-09
3.47507e-09
3.47369e-09
3.47299e-09
3.47232e-09
3.47207e-09
3.4716e-09
3.47144e-09
3.47101e-09
3.47082e-09
3.47041e-09
3.4702e-09
3.46984e-09
3.46964e-09
3.46933e-09
3.46917e-09
3.46897e-09
3.46887e-09
3.46879e-09
3.46878e-09
3.46885e-09
3.46893e-09
3.46915e-09
3.46931e-09
3.4696e-09
3.4698e-09
3.47016e-09
3.47036e-09
3.47076e-09
3.47094e-09
3.47135e-09
3.47151e-09
3.47197e-09
3.47222e-09
3.47286e-09
3.47358e-09
3.47495e-09
3.47659e-09
3.47946e-09
3.48238e-09
3.48696e-09
3.48869e-09
3.49312e-09
3.48733e-09
3.38373e-09
3.38881e-09
3.38382e-09
3.38171e-09
3.37697e-09
3.37392e-09
3.37104e-09
3.36938e-09
3.36803e-09
3.36732e-09
3.36667e-09
3.36642e-09
3.36597e-09
3.36581e-09
3.36539e-09
3.36521e-09
3.3648e-09
3.36459e-09
3.36423e-09
3.36403e-09
3.36373e-09
3.36356e-09
3.36335e-09
3.36325e-09
3.36318e-09
3.36317e-09
3.36323e-09
3.36332e-09
3.36354e-09
3.3637e-09
3.36399e-09
3.36419e-09
3.36455e-09
3.36475e-09
3.36515e-09
3.36532e-09
3.36572e-09
3.36588e-09
3.36633e-09
3.36657e-09
3.3672e-09
3.36792e-09
3.36927e-09
3.37093e-09
3.37381e-09
3.37687e-09
3.38162e-09
3.38375e-09
3.38877e-09
3.38371e-09
3.28137e-09
3.28575e-09
3.2802e-09
3.27771e-09
3.2728e-09
3.26962e-09
3.26674e-09
3.26505e-09
3.26372e-09
3.26301e-09
3.26239e-09
3.26215e-09
3.26171e-09
3.26155e-09
3.26114e-09
3.26095e-09
3.26055e-09
3.26034e-09
3.25999e-09
3.25978e-09
3.25948e-09
3.25931e-09
3.25911e-09
3.25901e-09
3.25893e-09
3.25892e-09
3.25898e-09
3.25908e-09
3.25929e-09
3.25946e-09
3.25975e-09
3.25995e-09
3.2603e-09
3.2605e-09
3.26089e-09
3.26107e-09
3.26146e-09
3.26162e-09
3.26205e-09
3.26229e-09
3.26291e-09
3.26361e-09
3.26495e-09
3.26664e-09
3.26953e-09
3.27271e-09
3.27763e-09
3.28014e-09
3.28571e-09
3.28136e-09
3.18024e-09
3.18394e-09
3.17785e-09
3.175e-09
3.16993e-09
3.16663e-09
3.16374e-09
3.16203e-09
3.16072e-09
3.16002e-09
3.15941e-09
3.15918e-09
3.15875e-09
3.1586e-09
3.1582e-09
3.15801e-09
3.15762e-09
3.15741e-09
3.15705e-09
3.15684e-09
3.15655e-09
3.15637e-09
3.15617e-09
3.15607e-09
3.15599e-09
3.15598e-09
3.15604e-09
3.15614e-09
3.15635e-09
3.15652e-09
3.15681e-09
3.15701e-09
3.15736e-09
3.15757e-09
3.15795e-09
3.15812e-09
3.15851e-09
3.15866e-09
3.15908e-09
3.15931e-09
3.15992e-09
3.16062e-09
3.16193e-09
3.16364e-09
3.16654e-09
3.16984e-09
3.17493e-09
3.17779e-09
3.18391e-09
3.18023e-09
3.08032e-09
3.08337e-09
3.07676e-09
3.07356e-09
3.06834e-09
3.06492e-09
3.06203e-09
3.0603e-09
3.05901e-09
3.05832e-09
3.05772e-09
3.05749e-09
3.05708e-09
3.05693e-09
3.05654e-09
3.05635e-09
3.05596e-09
3.05575e-09
3.0554e-09
3.05519e-09
3.05489e-09
3.05472e-09
3.05451e-09
3.05441e-09
3.05433e-09
3.05432e-09
3.05438e-09
3.05448e-09
3.05469e-09
3.05486e-09
3.05515e-09
3.05535e-09
3.05571e-09
3.05591e-09
3.05629e-09
3.05646e-09
3.05684e-09
3.05699e-09
3.0574e-09
3.05762e-09
3.05822e-09
3.05891e-09
3.06021e-09
3.06194e-09
3.06485e-09
3.06826e-09
3.0735e-09
3.07671e-09
3.08335e-09
3.08031e-09
2.97863e-09
2.98121e-09
2.9742e-09
2.97076e-09
2.96543e-09
2.96194e-09
2.95909e-09
2.95739e-09
2.95617e-09
2.95553e-09
2.95501e-09
2.95485e-09
2.95449e-09
2.95439e-09
2.95404e-09
2.95391e-09
2.95355e-09
2.95338e-09
2.95305e-09
2.95287e-09
2.95259e-09
2.95243e-09
2.95224e-09
2.95214e-09
2.95206e-09
2.95206e-09
2.95212e-09
2.9522e-09
2.95241e-09
2.95256e-09
2.95283e-09
2.95301e-09
2.95333e-09
2.9535e-09
2.95385e-09
2.95397e-09
2.95431e-09
2.9544e-09
2.95476e-09
2.95492e-09
2.95545e-09
2.95609e-09
2.95732e-09
2.95902e-09
2.96189e-09
2.96538e-09
2.97072e-09
2.97418e-09
2.98122e-09
2.97865e-09
2.87786e-09
2.87977e-09
2.87235e-09
2.86858e-09
2.86315e-09
2.85956e-09
2.85672e-09
2.85501e-09
2.85382e-09
2.85319e-09
2.85269e-09
2.85253e-09
2.85219e-09
2.8521e-09
2.85176e-09
2.85162e-09
2.85127e-09
2.8511e-09
2.85078e-09
2.8506e-09
2.85032e-09
2.85016e-09
2.84997e-09
2.84987e-09
2.84979e-09
2.84978e-09
2.84985e-09
2.84993e-09
2.85013e-09
2.85029e-09
2.85056e-09
2.85073e-09
2.85106e-09
2.85122e-09
2.85156e-09
2.85168e-09
2.85201e-09
2.8521e-09
2.85245e-09
2.8526e-09
2.85311e-09
2.85374e-09
2.85494e-09
2.85666e-09
2.85952e-09
2.8631e-09
2.86855e-09
2.87233e-09
2.87979e-09
2.87789e-09
2.77792e-09
2.77919e-09
2.77139e-09
2.76732e-09
2.76179e-09
2.75812e-09
2.7553e-09
2.75358e-09
2.75242e-09
2.7518e-09
2.75132e-09
2.75117e-09
2.75084e-09
2.75075e-09
2.75042e-09
2.75029e-09
2.74995e-09
2.74977e-09
2.74946e-09
2.74927e-09
2.749e-09
2.74884e-09
2.74864e-09
2.74855e-09
2.74847e-09
2.74846e-09
2.74852e-09
2.74861e-09
2.74881e-09
2.74896e-09
2.74923e-09
2.74941e-09
2.74973e-09
2.74989e-09
2.75022e-09
2.75034e-09
2.75066e-09
2.75075e-09
2.75108e-09
2.75123e-09
2.75172e-09
2.75234e-09
2.75351e-09
2.75524e-09
2.75808e-09
2.76175e-09
2.76729e-09
2.77137e-09
2.77922e-09
2.77795e-09
2.6816e-09
2.68234e-09
2.67413e-09
2.6698e-09
2.66416e-09
2.66041e-09
2.6576e-09
2.65588e-09
2.65473e-09
2.65412e-09
2.65366e-09
2.65351e-09
2.6532e-09
2.65311e-09
2.65279e-09
2.65266e-09
2.65233e-09
2.65216e-09
2.65184e-09
2.65166e-09
2.65138e-09
2.65122e-09
2.65103e-09
2.65093e-09
2.65086e-09
2.65085e-09
2.65091e-09
2.651e-09
2.65119e-09
2.65135e-09
2.65161e-09
2.65179e-09
2.65211e-09
2.65227e-09
2.6526e-09
2.65271e-09
2.65303e-09
2.65311e-09
2.65343e-09
2.65357e-09
2.65404e-09
2.65466e-09
2.65581e-09
2.65754e-09
2.66037e-09
2.66412e-09
2.66977e-09
2.67411e-09
2.68237e-09
2.68163e-09
2.58613e-09
2.58637e-09
2.57777e-09
2.5732e-09
2.56748e-09
2.56364e-09
2.56086e-09
2.55913e-09
2.55801e-09
2.5574e-09
2.55695e-09
2.55681e-09
2.5565e-09
2.55642e-09
2.55611e-09
2.55598e-09
2.55565e-09
2.55548e-09
2.55517e-09
2.55499e-09
2.55471e-09
2.55455e-09
2.55436e-09
2.55426e-09
2.55418e-09
2.55417e-09
2.55424e-09
2.55432e-09
2.55452e-09
2.55467e-09
2.55494e-09
2.55512e-09
2.55543e-09
2.55559e-09
2.55592e-09
2.55603e-09
2.55634e-09
2.55641e-09
2.55673e-09
2.55686e-09
2.55732e-09
2.55793e-09
2.55906e-09
2.5608e-09
2.56361e-09
2.56744e-09
2.57318e-09
2.57775e-09
2.58642e-09
2.58617e-09
2.48988e-09
2.48971e-09
2.48076e-09
2.47597e-09
2.47018e-09
2.46625e-09
2.4635e-09
2.4618e-09
2.46073e-09
2.46017e-09
2.45978e-09
2.4597e-09
2.45946e-09
2.45945e-09
2.45921e-09
2.45915e-09
2.45888e-09
2.45876e-09
2.45849e-09
2.45835e-09
2.45811e-09
2.45797e-09
2.4578e-09
2.45771e-09
2.45764e-09
2.45763e-09
2.45769e-09
2.45776e-09
2.45793e-09
2.45806e-09
2.4583e-09
2.45843e-09
2.4587e-09
2.45881e-09
2.45908e-09
2.45913e-09
2.45936e-09
2.45937e-09
2.4596e-09
2.45969e-09
2.46008e-09
2.46065e-09
2.46172e-09
2.46343e-09
2.4662e-09
2.47013e-09
2.47594e-09
2.48073e-09
2.48979e-09
2.48993e-09
2.39338e-09
2.39271e-09
2.38349e-09
2.37849e-09
2.37266e-09
2.36867e-09
2.36596e-09
2.36426e-09
2.36323e-09
2.36267e-09
2.3623e-09
2.36223e-09
2.362e-09
2.362e-09
2.36177e-09
2.36171e-09
2.36145e-09
2.36134e-09
2.36107e-09
2.36093e-09
2.36069e-09
2.36056e-09
2.36039e-09
2.3603e-09
2.36023e-09
2.36022e-09
2.36027e-09
2.36035e-09
2.36052e-09
2.36064e-09
2.36088e-09
2.36101e-09
2.36127e-09
2.36138e-09
2.36164e-09
2.36168e-09
2.36191e-09
2.36191e-09
2.36213e-09
2.36221e-09
2.36258e-09
2.36314e-09
2.36419e-09
2.3659e-09
2.36862e-09
2.37262e-09
2.37846e-09
2.38345e-09
2.3928e-09
2.39344e-09
2.29764e-09
2.2965e-09
2.28704e-09
2.28186e-09
2.27601e-09
2.27196e-09
2.26929e-09
2.2676e-09
2.2666e-09
2.26606e-09
2.26571e-09
2.26564e-09
2.26543e-09
2.26543e-09
2.26521e-09
2.26516e-09
2.2649e-09
2.2648e-09
2.26454e-09
2.2644e-09
2.26417e-09
2.26404e-09
2.26387e-09
2.26378e-09
2.26371e-09
2.2637e-09
2.26375e-09
2.26383e-09
2.26399e-09
2.26412e-09
2.26434e-09
2.26447e-09
2.26473e-09
2.26483e-09
2.26508e-09
2.26512e-09
2.26534e-09
2.26533e-09
2.26554e-09
2.26561e-09
2.26597e-09
2.26652e-09
2.26753e-09
2.26923e-09
2.27191e-09
2.27597e-09
2.28184e-09
2.28702e-09
2.29658e-09
2.2977e-09
2.20258e-09
2.20097e-09
2.19139e-09
2.18602e-09
2.18016e-09
2.17605e-09
2.17344e-09
2.17176e-09
2.1708e-09
2.17026e-09
2.16993e-09
2.16987e-09
2.16967e-09
2.16968e-09
2.16947e-09
2.16943e-09
2.16919e-09
2.16908e-09
2.16883e-09
2.1687e-09
2.16847e-09
2.16834e-09
2.16818e-09
2.16809e-09
2.16802e-09
2.16801e-09
2.16806e-09
2.16814e-09
2.1683e-09
2.16842e-09
2.16864e-09
2.16877e-09
2.16902e-09
2.16911e-09
2.16935e-09
2.16939e-09
2.16959e-09
2.16958e-09
2.16978e-09
2.16984e-09
2.17017e-09
2.17071e-09
2.17169e-09
2.17338e-09
2.176e-09
2.18012e-09
2.186e-09
2.19138e-09
2.20106e-09
2.20265e-09
2.11083e-09
2.10885e-09
2.09911e-09
2.09359e-09
2.08771e-09
2.08353e-09
2.08098e-09
2.07932e-09
2.07838e-09
2.07786e-09
2.07755e-09
2.0775e-09
2.07731e-09
2.07733e-09
2.07713e-09
2.07709e-09
2.07686e-09
2.07676e-09
2.07652e-09
2.07639e-09
2.07616e-09
2.07604e-09
2.07588e-09
2.07579e-09
2.07572e-09
2.07571e-09
2.07577e-09
2.07584e-09
2.07599e-09
2.07611e-09
2.07633e-09
2.07645e-09
2.07669e-09
2.07678e-09
2.07701e-09
2.07704e-09
2.07724e-09
2.07722e-09
2.0774e-09
2.07745e-09
2.07777e-09
2.0783e-09
2.07924e-09
2.08092e-09
2.08348e-09
2.08767e-09
2.09357e-09
2.09911e-09
2.10894e-09
2.1109e-09
2.01991e-09
2.0176e-09
2.00775e-09
2.00209e-09
1.99622e-09
1.99191e-09
1.98926e-09
1.98754e-09
1.9866e-09
1.98612e-09
1.98582e-09
1.9858e-09
1.98564e-09
1.98569e-09
1.98552e-09
1.98551e-09
1.98528e-09
1.9852e-09
1.98496e-09
1.98484e-09
1.98462e-09
1.9845e-09
1.98433e-09
1.98425e-09
1.98417e-09
1.98416e-09
1.98422e-09
1.98428e-09
1.98444e-09
1.98456e-09
1.98477e-09
1.98489e-09
1.98512e-09
1.9852e-09
1.98541e-09
1.98542e-09
1.98559e-09
1.98554e-09
1.98569e-09
1.98571e-09
1.98601e-09
1.98651e-09
1.98746e-09
1.9892e-09
1.99185e-09
1.99618e-09
2.00207e-09
2.00775e-09
2.01768e-09
2.01997e-09
1.92865e-09
1.92573e-09
1.9155e-09
1.90956e-09
1.90359e-09
1.89913e-09
1.89651e-09
1.89479e-09
1.89389e-09
1.89342e-09
1.89315e-09
1.89314e-09
1.89301e-09
1.89307e-09
1.89291e-09
1.89291e-09
1.89271e-09
1.89263e-09
1.89241e-09
1.89229e-09
1.89207e-09
1.89195e-09
1.89179e-09
1.89171e-09
1.89163e-09
1.89162e-09
1.89167e-09
1.89174e-09
1.8919e-09
1.89201e-09
1.89221e-09
1.89232e-09
1.89255e-09
1.89261e-09
1.89282e-09
1.89281e-09
1.89296e-09
1.8929e-09
1.89303e-09
1.89304e-09
1.89332e-09
1.8938e-09
1.89471e-09
1.89645e-09
1.89907e-09
1.90355e-09
1.90954e-09
1.91551e-09
1.92582e-09
1.92872e-09
1.83956e-09
1.83638e-09
1.82612e-09
1.82008e-09
1.81414e-09
1.80957e-09
1.80702e-09
1.80532e-09
1.80446e-09
1.804e-09
1.80375e-09
1.80376e-09
1.80364e-09
1.80371e-09
1.80356e-09
1.80358e-09
1.80338e-09
1.80331e-09
1.80309e-09
1.80298e-09
1.80277e-09
1.80266e-09
1.8025e-09
1.80242e-09
1.80235e-09
1.80234e-09
1.80239e-09
1.80245e-09
1.8026e-09
1.80271e-09
1.80291e-09
1.80301e-09
1.80323e-09
1.80328e-09
1.80348e-09
1.80346e-09
1.8036e-09
1.80353e-09
1.80365e-09
1.80364e-09
1.8039e-09
1.80436e-09
1.80524e-09
1.80696e-09
1.80951e-09
1.8141e-09
1.82006e-09
1.82614e-09
1.83647e-09
1.83963e-09
1.7507e-09
1.74696e-09
1.73634e-09
1.73053e-09
1.72486e-09
1.72116e-09
1.71869e-09
1.71702e-09
1.71619e-09
1.71576e-09
1.71553e-09
1.71554e-09
1.71544e-09
1.71552e-09
1.71539e-09
1.71541e-09
1.71522e-09
1.71517e-09
1.71495e-09
1.71485e-09
1.71465e-09
1.71454e-09
1.71438e-09
1.7143e-09
1.71424e-09
1.71422e-09
1.71427e-09
1.71434e-09
1.71448e-09
1.71458e-09
1.71477e-09
1.71487e-09
1.71508e-09
1.71513e-09
1.71531e-09
1.71529e-09
1.71542e-09
1.71533e-09
1.71543e-09
1.71542e-09
1.71566e-09
1.7161e-09
1.71694e-09
1.71863e-09
1.72111e-09
1.72484e-09
1.73053e-09
1.73637e-09
1.74706e-09
1.75077e-09
1.66381e-09
1.65985e-09
1.64926e-09
1.64342e-09
1.63781e-09
1.63405e-09
1.63166e-09
1.63001e-09
1.62922e-09
1.62881e-09
1.6286e-09
1.62863e-09
1.62854e-09
1.62863e-09
1.62851e-09
1.62854e-09
1.62837e-09
1.62832e-09
1.62811e-09
1.62802e-09
1.62782e-09
1.62772e-09
1.62757e-09
1.62749e-09
1.62742e-09
1.62741e-09
1.62746e-09
1.62752e-09
1.62766e-09
1.62775e-09
1.62794e-09
1.62803e-09
1.62823e-09
1.62827e-09
1.62844e-09
1.62841e-09
1.62853e-09
1.62843e-09
1.62852e-09
1.62849e-09
1.62871e-09
1.62913e-09
1.62993e-09
1.63159e-09
1.634e-09
1.63779e-09
1.64342e-09
1.6493e-09
1.65995e-09
1.66389e-09
1.57822e-09
1.57406e-09
1.56352e-09
1.55768e-09
1.55215e-09
1.54837e-09
1.54605e-09
1.54443e-09
1.54369e-09
1.54329e-09
1.5431e-09
1.54314e-09
1.54307e-09
1.54317e-09
1.54306e-09
1.5431e-09
1.54294e-09
1.5429e-09
1.54271e-09
1.54262e-09
1.54243e-09
1.54233e-09
1.54218e-09
1.54211e-09
1.54204e-09
1.54203e-09
1.54208e-09
1.54214e-09
1.54227e-09
1.54236e-09
1.54254e-09
1.54262e-09
1.54281e-09
1.54284e-09
1.543e-09
1.54296e-09
1.54307e-09
1.54296e-09
1.54304e-09
1.543e-09
1.54319e-09
1.5436e-09
1.54435e-09
1.54599e-09
1.54831e-09
1.55213e-09
1.55768e-09
1.56356e-09
1.57416e-09
1.57829e-09
1.49405e-09
1.48973e-09
1.47929e-09
1.47347e-09
1.46804e-09
1.46426e-09
1.46202e-09
1.46044e-09
1.45974e-09
1.45936e-09
1.45919e-09
1.45924e-09
1.45918e-09
1.45929e-09
1.45919e-09
1.45924e-09
1.45909e-09
1.45906e-09
1.45888e-09
1.45879e-09
1.45861e-09
1.45852e-09
1.45838e-09
1.45831e-09
1.45825e-09
1.45824e-09
1.45828e-09
1.45833e-09
1.45846e-09
1.45855e-09
1.45872e-09
1.45879e-09
1.45897e-09
1.45899e-09
1.45914e-09
1.45909e-09
1.45919e-09
1.45907e-09
1.45913e-09
1.45908e-09
1.45926e-09
1.45965e-09
1.46036e-09
1.46196e-09
1.46421e-09
1.46802e-09
1.47347e-09
1.47933e-09
1.48984e-09
1.49412e-09
1.41069e-09
1.40602e-09
1.3954e-09
1.38949e-09
1.38407e-09
1.38026e-09
1.37808e-09
1.37652e-09
1.37586e-09
1.37551e-09
1.37537e-09
1.37544e-09
1.37541e-09
1.37554e-09
1.37546e-09
1.37553e-09
1.3754e-09
1.37538e-09
1.37521e-09
1.37514e-09
1.37497e-09
1.37488e-09
1.37475e-09
1.37468e-09
1.37462e-09
1.37461e-09
1.37465e-09
1.3747e-09
1.37482e-09
1.3749e-09
1.37506e-09
1.37512e-09
1.37529e-09
1.3753e-09
1.37543e-09
1.37536e-09
1.37543e-09
1.3753e-09
1.37533e-09
1.37526e-09
1.37541e-09
1.37577e-09
1.37644e-09
1.37802e-09
1.38021e-09
1.38405e-09
1.3895e-09
1.39545e-09
1.40614e-09
1.41077e-09
1.32977e-09
1.325e-09
1.31452e-09
1.3087e-09
1.30339e-09
1.29962e-09
1.29754e-09
1.29601e-09
1.29539e-09
1.29506e-09
1.29494e-09
1.29502e-09
1.29499e-09
1.29513e-09
1.29507e-09
1.29515e-09
1.29502e-09
1.29501e-09
1.29486e-09
1.29479e-09
1.29463e-09
1.29455e-09
1.29442e-09
1.29436e-09
1.2943e-09
1.29429e-09
1.29433e-09
1.29438e-09
1.29449e-09
1.29456e-09
1.29471e-09
1.29477e-09
1.29492e-09
1.29493e-09
1.29504e-09
1.29497e-09
1.29503e-09
1.29489e-09
1.29491e-09
1.29483e-09
1.29496e-09
1.29531e-09
1.29593e-09
1.29748e-09
1.29958e-09
1.30337e-09
1.30871e-09
1.31457e-09
1.32512e-09
1.32985e-09
1.25071e-09
1.24586e-09
1.23555e-09
1.22965e-09
1.22466e-09
1.22096e-09
1.21897e-09
1.21749e-09
1.2169e-09
1.21659e-09
1.21649e-09
1.21657e-09
1.21655e-09
1.2167e-09
1.21665e-09
1.21673e-09
1.21662e-09
1.21662e-09
1.21647e-09
1.21641e-09
1.21626e-09
1.21618e-09
1.21606e-09
1.216e-09
1.21594e-09
1.21593e-09
1.21597e-09
1.21602e-09
1.21612e-09
1.21619e-09
1.21633e-09
1.21638e-09
1.21652e-09
1.21652e-09
1.21663e-09
1.21655e-09
1.2166e-09
1.21645e-09
1.21646e-09
1.21637e-09
1.21649e-09
1.21682e-09
1.21739e-09
1.21892e-09
1.22092e-09
1.22465e-09
1.22966e-09
1.2356e-09
1.24598e-09
1.25078e-09
1.17366e-09
1.16877e-09
1.15866e-09
1.15289e-09
1.14806e-09
1.14444e-09
1.14255e-09
1.14112e-09
1.14057e-09
1.14026e-09
1.14019e-09
1.14027e-09
1.14023e-09
1.14039e-09
1.14035e-09
1.14044e-09
1.14034e-09
1.14035e-09
1.14021e-09
1.14016e-09
1.14002e-09
1.13995e-09
1.13983e-09
1.13977e-09
1.13972e-09
1.13971e-09
1.13974e-09
1.13979e-09
1.13989e-09
1.13995e-09
1.14008e-09
1.14012e-09
1.14026e-09
1.14025e-09
1.14034e-09
1.14025e-09
1.14029e-09
1.14014e-09
1.14014e-09
1.14006e-09
1.14016e-09
1.14049e-09
1.141e-09
1.1425e-09
1.1444e-09
1.14804e-09
1.15291e-09
1.15871e-09
1.16889e-09
1.17373e-09
1.09878e-09
1.09389e-09
1.08402e-09
1.07841e-09
1.07374e-09
1.07022e-09
1.06845e-09
1.06707e-09
1.06656e-09
1.06624e-09
1.06623e-09
1.0663e-09
1.06622e-09
1.06638e-09
1.06635e-09
1.06645e-09
1.06636e-09
1.06637e-09
1.06624e-09
1.0662e-09
1.06607e-09
1.066e-09
1.06589e-09
1.06584e-09
1.06579e-09
1.06578e-09
1.06581e-09
1.06585e-09
1.06594e-09
1.066e-09
1.06612e-09
1.06616e-09
1.06628e-09
1.06627e-09
1.06635e-09
1.06626e-09
1.06629e-09
1.06612e-09
1.06615e-09
1.06609e-09
1.06614e-09
1.06648e-09
1.06691e-09
1.0684e-09
1.07019e-09
1.07373e-09
1.07842e-09
1.08407e-09
1.09401e-09
1.09885e-09
1.02594e-09
1.02078e-09
1.01081e-09
1.00521e-09
1.00062e-09
9.9715e-10
9.95461e-10
9.94133e-10
9.93666e-10
9.93263e-10
9.93388e-10
9.93459e-10
9.93293e-10
9.93466e-10
9.93453e-10
9.93559e-10
9.93484e-10
9.93506e-10
9.9339e-10
9.93356e-10
9.9323e-10
9.93171e-10
9.93069e-10
9.93018e-10
9.92968e-10
9.92957e-10
9.92988e-10
9.93024e-10
9.93114e-10
9.93162e-10
9.9328e-10
9.93307e-10
9.93419e-10
9.93392e-10
9.93464e-10
9.93358e-10
9.93371e-10
9.93198e-10
9.93277e-10
9.93235e-10
9.93235e-10
9.93584e-10
9.93926e-10
9.9541e-10
9.97114e-10
1.00061e-09
1.00522e-09
1.01086e-09
1.0209e-09
1.026e-09
9.55849e-10
9.5075e-10
9.41055e-10
9.3564e-10
9.31253e-10
9.2791e-10
9.26343e-10
9.2509e-10
9.24693e-10
9.24092e-10
9.24468e-10
9.24563e-10
9.24202e-10
9.24377e-10
9.24373e-10
9.24483e-10
9.24418e-10
9.24446e-10
9.24339e-10
9.24312e-10
9.24194e-10
9.24141e-10
9.24044e-10
9.23997e-10
9.2395e-10
9.23939e-10
9.23968e-10
9.24001e-10
9.24085e-10
9.24128e-10
9.24237e-10
9.24259e-10
9.24361e-10
9.24328e-10
9.24391e-10
9.24281e-10
9.24286e-10
9.24109e-10
9.24376e-10
9.24337e-10
9.24283e-10
9.24614e-10
9.24891e-10
9.26292e-10
9.27875e-10
9.31241e-10
9.35657e-10
9.41102e-10
9.50864e-10
9.55908e-10
8.87503e-10
8.82396e-10
8.72903e-10
8.67651e-10
8.6345e-10
8.60229e-10
8.58783e-10
8.57613e-10
8.57311e-10
8.57497e-10
8.57153e-10
8.57324e-10
8.5776e-10
8.5794e-10
8.57943e-10
8.58056e-10
8.58e-10
8.58033e-10
8.57935e-10
8.57914e-10
8.57805e-10
8.57756e-10
8.57666e-10
8.57623e-10
8.57578e-10
8.57568e-10
8.57595e-10
8.57624e-10
8.57703e-10
8.57741e-10
8.57842e-10
8.57858e-10
8.57951e-10
8.57913e-10
8.57968e-10
8.57854e-10
8.57851e-10
8.57672e-10
8.57314e-10
8.5709e-10
8.57136e-10
8.57233e-10
8.5765e-10
8.58735e-10
8.60195e-10
8.63436e-10
8.67667e-10
8.72947e-10
8.82504e-10
8.87559e-10
8.22689e-10
8.17701e-10
8.08486e-10
8.03455e-10
7.9947e-10
7.96392e-10
7.95067e-10
7.93976e-10
7.9374e-10
7.93745e-10
7.93634e-10
7.93825e-10
7.94083e-10
7.94263e-10
7.94273e-10
7.94388e-10
7.9434e-10
7.94378e-10
7.94289e-10
7.94273e-10
7.94172e-10
7.94129e-10
7.94044e-10
7.94004e-10
7.93962e-10
7.93952e-10
7.93978e-10
7.94004e-10
7.94077e-10
7.9411e-10
7.94204e-10
7.94214e-10
7.94299e-10
7.94257e-10
7.94303e-10
7.94187e-10
7.94178e-10
7.93998e-10
7.9382e-10
7.93592e-10
7.93593e-10
7.93665e-10
7.94029e-10
7.95019e-10
7.96358e-10
7.99455e-10
8.03469e-10
8.08525e-10
8.17801e-10
8.22739e-10
7.60685e-10
7.55848e-10
7.46892e-10
7.42097e-10
7.38334e-10
7.35403e-10
7.34195e-10
7.33172e-10
7.32979e-10
7.32904e-10
7.32911e-10
7.33094e-10
7.33256e-10
7.33435e-10
7.33451e-10
7.33568e-10
7.33527e-10
7.33568e-10
7.33488e-10
7.33476e-10
7.33383e-10
7.33345e-10
7.33267e-10
7.3323e-10
7.3319e-10
7.33181e-10
7.33204e-10
7.33228e-10
7.33296e-10
7.33324e-10
7.3341e-10
7.33416e-10
7.33492e-10
7.33447e-10
7.33486e-10
7.33369e-10
7.33353e-10
7.33175e-10
7.33064e-10
7.32863e-10
7.32817e-10
7.32905e-10
7.33188e-10
7.34145e-10
7.35367e-10
7.38314e-10
7.42107e-10
7.46925e-10
7.55939e-10
7.60727e-10
7.00648e-10
6.95915e-10
6.88198e-10
6.83651e-10
6.80112e-10
6.77333e-10
6.76233e-10
6.75271e-10
6.75107e-10
6.75006e-10
6.75063e-10
6.7523e-10
6.75346e-10
6.75523e-10
6.75544e-10
6.75661e-10
6.75627e-10
6.75671e-10
6.75599e-10
6.75592e-10
6.75506e-10
6.75473e-10
6.754e-10
6.75366e-10
6.75329e-10
6.75321e-10
6.75342e-10
6.75363e-10
6.75426e-10
6.7545e-10
6.75529e-10
6.7553e-10
6.75599e-10
6.75551e-10
6.75583e-10
6.75466e-10
6.75445e-10
6.75269e-10
6.75182e-10
6.75003e-10
6.74934e-10
6.75032e-10
6.75252e-10
6.76181e-10
6.77296e-10
6.80088e-10
6.83658e-10
6.88223e-10
6.95996e-10
7.00685e-10
6.44433e-10
6.399e-10
6.32459e-10
6.28168e-10
6.24855e-10
6.22228e-10
6.21229e-10
6.20321e-10
6.20179e-10
6.20077e-10
6.20152e-10
6.20303e-10
6.20397e-10
6.20571e-10
6.20596e-10
6.20713e-10
6.20685e-10
6.20732e-10
6.20667e-10
6.20664e-10
6.20586e-10
6.20556e-10
6.20489e-10
6.20459e-10
6.20424e-10
6.20416e-10
6.20435e-10
6.20454e-10
6.20512e-10
6.20532e-10
6.20604e-10
6.20602e-10
6.20663e-10
6.20613e-10
6.20639e-10
6.20522e-10
6.20498e-10
6.20325e-10
6.20245e-10
6.2008e-10
6.20002e-10
6.20102e-10
6.20279e-10
6.21175e-10
6.22189e-10
6.24827e-10
6.28169e-10
6.32475e-10
6.39969e-10
6.44461e-10
5.90694e-10
5.86265e-10
5.79701e-10
5.75675e-10
5.72585e-10
5.70113e-10
5.69206e-10
5.68348e-10
5.68226e-10
5.6813e-10
5.68211e-10
5.68346e-10
5.68433e-10
5.68602e-10
5.68631e-10
5.68746e-10
5.68724e-10
5.68772e-10
5.68714e-10
5.68715e-10
5.68643e-10
5.68618e-10
5.68556e-10
5.68528e-10
5.68496e-10
5.68489e-10
5.68507e-10
5.68522e-10
5.68575e-10
5.68593e-10
5.68658e-10
5.68653e-10
5.68707e-10
5.68655e-10
5.68676e-10
5.68561e-10
5.68533e-10
5.68364e-10
5.68287e-10
5.6813e-10
5.68051e-10
5.68147e-10
5.68291e-10
5.69149e-10
5.70069e-10
5.72551e-10
5.75669e-10
5.79707e-10
5.86323e-10
5.90714e-10
5.40395e-10
5.36163e-10
5.2995e-10
5.26175e-10
5.23303e-10
5.20985e-10
5.20165e-10
5.19356e-10
5.19252e-10
5.19165e-10
5.19246e-10
5.19366e-10
5.19449e-10
5.19614e-10
5.19645e-10
5.19758e-10
5.1974e-10
5.1979e-10
5.19738e-10
5.19742e-10
5.19677e-10
5.19655e-10
5.19598e-10
5.19574e-10
5.19544e-10
5.19537e-10
5.19553e-10
5.19567e-10
5.19615e-10
5.19629e-10
5.19689e-10
5.19681e-10
5.19729e-10
5.19676e-10
5.19692e-10
5.19579e-10
5.19548e-10
5.19384e-10
5.19308e-10
5.19157e-10
5.19078e-10
5.19168e-10
5.19287e-10
5.20103e-10
5.20935e-10
5.2326e-10
5.26159e-10
5.29945e-10
5.36203e-10
5.40402e-10
4.93052e-10
4.89008e-10
4.8318e-10
4.79648e-10
4.76989e-10
4.74824e-10
4.74085e-10
4.73323e-10
4.73237e-10
4.73158e-10
4.7324e-10
)
;

boundaryField
{
    fuel
    {
        type            fixedValue;
        value           nonuniform 0();
    }
    wall
    {
        type            zeroGradient;
    }
    outlet
    {
        type            zeroGradient;
    }
    frontAndBack
    {
        type            empty;
    }
    procBoundary2to0
    {
        type            processor;
        value           nonuniform List<scalar> 
53
(
4.14245e-09
4.15318e-09
4.15282e-09
4.1538e-09
4.15053e-09
4.1485e-09
4.14577e-09
4.14429e-09
4.1428e-09
4.1421e-09
4.14128e-09
4.14097e-09
4.14039e-09
4.14017e-09
4.13967e-09
4.13944e-09
4.13897e-09
4.13874e-09
4.02302e-09
4.02302e-09
4.0228e-09
4.02249e-09
4.02232e-09
4.02211e-09
4.02201e-09
4.02193e-09
4.02192e-09
4.02199e-09
4.02208e-09
3.90666e-09
3.90666e-09
3.90681e-09
3.9071e-09
3.9073e-09
3.90766e-09
3.90787e-09
3.90828e-09
3.90846e-09
3.90891e-09
3.90908e-09
3.90959e-09
3.90985e-09
3.79873e-09
3.79873e-09
3.79943e-09
3.80085e-09
3.80241e-09
3.80523e-09
3.80774e-09
3.81173e-09
3.81219e-09
3.81473e-09
3.80656e-09
)
;
    }
    procBoundary2to3
    {
        type            processor;
        value           nonuniform List<scalar> 
51
(
4.73379e-10
4.73458e-10
4.73616e-10
4.73649e-10
4.73759e-10
4.73745e-10
4.73794e-10
4.73748e-10
4.73754e-10
4.73696e-10
4.73677e-10
4.73625e-10
4.73603e-10
4.73576e-10
4.73569e-10
4.73584e-10
4.73595e-10
4.7364e-10
4.73651e-10
4.73704e-10
4.73694e-10
4.73737e-10
4.73684e-10
4.73697e-10
4.73587e-10
4.73555e-10
4.73398e-10
4.73323e-10
4.73179e-10
4.731e-10
4.73184e-10
4.73282e-10
4.74053e-10
4.74803e-10
4.76974e-10
4.79661e-10
4.83202e-10
4.89072e-10
4.93086e-10
4.48676e-10
4.44825e-10
4.39378e-10
4.36091e-10
4.33637e-10
4.31623e-10
4.3096e-10
4.30245e-10
4.30176e-10
4.30105e-10
4.73379e-10
4.30186e-10
)
;
    }
}


// ************************************************************************* //
