/*--------------------------------*- C++ -*----------------------------------*\
| =========                 |                                                 |
| \\      /  F ield         | OpenFOAM: The Open Source CFD Toolbox           |
|  \\    /   O peration     | Version:  dev                                   |
|   \\  /    A nd           | Web:      www.OpenFOAM.org                      |
|    \\/     M anipulation  |                                                 |
\*---------------------------------------------------------------------------*/
FoamFile
{
    version     2.0;
    format      ascii;
    class       volScalarField;
    location    "0.03";
    object      C;
}
// * * * * * * * * * * * * * * * * * * * * * * * * * * * * * * * * * * * * * //

dimensions      [0 0 0 0 0 0 0];

internalField   nonuniform List<scalar> 
250
(
1.13268e-09
2.06743e-06
2.80948e-06
2.91809e-06
2.93459e-06
2.93197e-06
2.93361e-06
2.92869e-06
2.93114e-06
1.1468e-09
1.64681e-06
2.14295e-06
2.22072e-06
2.2306e-06
2.23075e-06
2.23164e-06
2.23026e-06
2.23116e-06
5.21279e-10
7.21636e-07
9.39002e-07
9.78868e-07
9.83397e-07
9.83776e-07
9.84254e-07
9.83746e-07
9.84154e-07
1.98509e-10
2.69056e-07
3.49544e-07
3.68026e-07
3.7003e-07
3.70293e-07
3.70545e-07
3.70326e-07
3.7052e-07
8.07655e-11
1.00441e-07
1.30386e-07
1.40006e-07
1.4134e-07
1.41547e-07
1.41683e-07
1.41596e-07
1.41691e-07
3.84007e-11
4.06984e-08
5.38521e-08
5.78622e-08
5.79337e-08
5.79741e-08
5.80421e-08
5.79742e-08
5.80361e-08
2.24241e-11
1.87141e-08
2.65027e-08
2.93191e-08
2.9587e-08
2.96574e-08
2.97039e-08
2.96749e-08
2.97108e-08
1.54884e-11
9.86573e-09
1.56e-08
1.82163e-08
1.81839e-08
1.81855e-08
1.82091e-08
1.81813e-08
1.82084e-08
1.19163e-11
5.87666e-09
1.10261e-08
1.31961e-08
1.34348e-08
1.34535e-08
1.34741e-08
1.34565e-08
1.3478e-08
9.97213e-12
3.86545e-09
8.68902e-09
1.05781e-08
1.08299e-08
1.08574e-08
1.08762e-08
1.08649e-08
1.08831e-08
9.26517e-12
2.75305e-09
7.29711e-09
9.27211e-09
9.53407e-09
9.56709e-09
9.58548e-09
9.577e-09
9.59476e-09
9.59011e-09
1.1641e-11
2.09529e-09
6.42884e-09
8.42132e-09
8.64264e-09
8.67255e-09
8.68947e-09
8.68108e-09
8.69925e-09
8.69405e-09
2.03057e-11
1.69028e-09
5.89944e-09
7.76882e-09
7.99107e-09
8.02316e-09
8.04036e-09
8.03322e-09
8.05248e-09
8.04705e-09
3.46524e-11
1.43713e-09
5.45859e-09
7.25747e-09
7.47357e-09
7.50686e-09
7.52446e-09
7.51811e-09
7.53909e-09
7.53312e-09
5.34335e-11
1.2664e-09
5.10144e-09
6.82051e-09
7.02455e-09
7.05833e-09
7.07637e-09
7.07054e-09
7.09377e-09
7.087e-09
7.59634e-11
1.15638e-09
4.79875e-09
6.4222e-09
6.60926e-09
6.64289e-09
6.66135e-09
6.65585e-09
6.68188e-09
6.6741e-09
9.9165e-11
1.1044e-09
4.52931e-09
6.04216e-09
6.20824e-09
6.24114e-09
6.25992e-09
6.25456e-09
6.28402e-09
6.27502e-09
1.18399e-10
1.08343e-09
4.27842e-09
5.66791e-09
5.80997e-09
5.84156e-09
5.86051e-09
5.85504e-09
5.8887e-09
5.87829e-09
1.31283e-10
1.08453e-09
4.03512e-09
5.29116e-09
5.4072e-09
5.43697e-09
5.45586e-09
5.44993e-09
5.48877e-09
5.4768e-09
1.39345e-10
1.10037e-09
3.79086e-09
4.90599e-09
4.99523e-09
5.02267e-09
5.04119e-09
5.03436e-09
5.07965e-09
5.06598e-09
1.46461e-10
1.12408e-09
3.53891e-09
4.50782e-09
4.57091e-09
4.5955e-09
4.6133e-09
4.60502e-09
4.65847e-09
4.64299e-09
1.56432e-10
1.15272e-09
3.27431e-09
4.09252e-09
4.13186e-09
4.15303e-09
4.16969e-09
4.15936e-09
4.22358e-09
4.20625e-09
1.71557e-10
1.17254e-09
2.99396e-09
3.71246e-09
3.72968e-09
3.74802e-09
3.76307e-09
3.74984e-09
3.77403e-09
3.75483e-09
1.92583e-10
1.17984e-09
2.69446e-09
3.31099e-09
3.29449e-09
3.31586e-09
3.338e-09
3.32761e-09
3.36303e-09
3.34222e-09
2.18841e-10
1.16901e-09
2.41176e-09
2.91628e-09
2.88216e-09
2.90123e-09
2.92243e-09
2.91023e-09
2.94989e-09
2.92782e-09
2.48821e-10
1.1356e-09
2.10751e-09
2.52169e-09
2.47353e-09
2.49036e-09
2.51058e-09
2.49688e-09
2.53056e-09
2.50688e-09
)
;

boundaryField
{
    fuel
    {
        type            fixedValue;
        value           uniform 0;
    }
    wall
    {
        type            zeroGradient;
    }
    outlet
    {
        type            zeroGradient;
    }
    frontAndBack
    {
        type            empty;
    }
    procBoundary2to0
    {
        type            processor;
        value           nonuniform List<scalar> 
12
(
2.92747e-09
2.76359e-10
1.07579e-09
1.80744e-09
2.13364e-09
2.07572e-09
2.09044e-09
2.10967e-09
2.09502e-09
2.12971e-09
2.5067e-09
2.10577e-09
)
;
    }
    procBoundary2to3
    {
        type            processor;
        value           nonuniform List<scalar> 
25
(
2.93288e-06
2.23139e-06
9.8413e-07
3.70473e-07
1.4166e-07
5.80142e-08
2.96996e-08
1.81981e-08
1.34707e-08
1.08778e-08
1.08778e-08
9.5874e-09
8.69155e-09
8.04478e-09
7.53102e-09
7.08505e-09
6.67229e-09
6.27335e-09
5.87678e-09
5.47545e-09
5.0648e-09
4.64199e-09
4.20545e-09
3.75423e-09
3.34175e-09
)
;
    }
}


// ************************************************************************* //
