/*--------------------------------*- C++ -*----------------------------------*\
| =========                 |                                                 |
| \\      /  F ield         | OpenFOAM: The Open Source CFD Toolbox           |
|  \\    /   O peration     | Version:  dev                                   |
|   \\  /    A nd           | Web:      www.OpenFOAM.org                      |
|    \\/     M anipulation  |                                                 |
\*---------------------------------------------------------------------------*/
FoamFile
{
    version     2.0;
    format      ascii;
    class       volScalarField;
    location    "0.03";
    object      C2H3O;
}
// * * * * * * * * * * * * * * * * * * * * * * * * * * * * * * * * * * * * * //

dimensions      [0 0 0 0 0 0 0];

internalField   nonuniform List<scalar> 
250
(
8.27066e-06
8.03316e-08
5.22964e-08
5.04364e-08
5.02267e-08
5.02021e-08
5.01859e-08
5.01498e-08
5.01532e-08
1.50607e-05
4.86064e-08
2.3323e-08
2.26219e-08
2.2542e-08
2.25327e-08
2.25292e-08
2.25206e-08
2.25216e-08
1.73717e-05
3.74539e-08
1.06432e-08
1.03233e-08
1.02863e-08
1.02827e-08
1.02822e-08
1.02792e-08
1.02801e-08
1.78458e-05
3.27887e-08
5.22129e-09
5.03897e-09
5.01962e-09
5.0181e-09
5.01843e-09
5.01685e-09
5.01763e-09
1.73497e-05
2.97833e-08
2.87316e-09
2.75581e-09
2.74849e-09
2.74834e-09
2.74886e-09
2.74795e-09
2.74858e-09
1.56002e-05
2.61247e-08
1.80312e-09
1.69322e-09
1.67735e-09
1.676e-09
1.67638e-09
1.67526e-09
1.67598e-09
1.18653e-05
2.03495e-08
1.27836e-09
1.1993e-09
1.19074e-09
1.1905e-09
1.19092e-09
1.19019e-09
1.19076e-09
6.49296e-06
1.28671e-08
9.88615e-10
9.45611e-10
9.3085e-10
9.29069e-10
9.29156e-10
9.28215e-10
9.28789e-10
3.19352e-06
7.4939e-09
8.29763e-10
7.99633e-10
7.9388e-10
7.92593e-10
7.92685e-10
7.91892e-10
7.92417e-10
2.05446e-06
4.90186e-09
7.31701e-10
7.07061e-10
7.02431e-10
7.01413e-10
7.01477e-10
7.00796e-10
7.0127e-10
1.30971e-06
3.35238e-09
6.64343e-10
6.54094e-10
6.50113e-10
6.49249e-10
6.49297e-10
6.4865e-10
6.49129e-10
6.48868e-10
7.2902e-07
2.2381e-09
6.17218e-10
6.15767e-10
6.0988e-10
6.08754e-10
6.08697e-10
6.07971e-10
6.08462e-10
6.08141e-10
3.43313e-07
1.46838e-09
5.85833e-10
5.83881e-10
5.78044e-10
5.76907e-10
5.76805e-10
5.76068e-10
5.76578e-10
5.76231e-10
1.4708e-07
1.01323e-09
5.5765e-10
5.57593e-10
5.51614e-10
5.50437e-10
5.50288e-10
5.49525e-10
5.50064e-10
5.49684e-10
6.20782e-08
7.5745e-10
5.33342e-10
5.34627e-10
5.28404e-10
5.27171e-10
5.26971e-10
5.26175e-10
5.2675e-10
5.26332e-10
2.70137e-08
6.13478e-10
5.11753e-10
5.13736e-10
5.0722e-10
5.05924e-10
5.0567e-10
5.0484e-10
5.0546e-10
5.04997e-10
1.23611e-08
5.38119e-10
4.92025e-10
4.94208e-10
4.87388e-10
4.86024e-10
4.85716e-10
4.84848e-10
4.85528e-10
4.85015e-10
6.00764e-09
4.89605e-10
4.73584e-10
4.75609e-10
4.685e-10
4.67066e-10
4.66701e-10
4.65792e-10
4.66556e-10
4.6599e-10
3.12887e-09
4.5596e-10
4.56051e-10
4.57644e-10
4.50285e-10
4.48779e-10
4.48352e-10
4.47395e-10
4.48283e-10
4.4766e-10
1.76357e-09
4.311e-10
4.39155e-10
4.40081e-10
4.32532e-10
4.3095e-10
4.30455e-10
4.29437e-10
4.30514e-10
4.2983e-10
1.08583e-09
4.11806e-10
4.22679e-10
4.22696e-10
4.15049e-10
4.13384e-10
4.12809e-10
4.11709e-10
4.13076e-10
4.12328e-10
7.33982e-10
3.94113e-10
4.06438e-10
4.05253e-10
3.97645e-10
3.95883e-10
3.95214e-10
3.94002e-10
3.9579e-10
3.94972e-10
5.43173e-10
3.80125e-10
3.90282e-10
3.89969e-10
3.8234e-10
3.80511e-10
3.7974e-10
3.78376e-10
3.78466e-10
3.7757e-10
4.35147e-10
3.67342e-10
3.73949e-10
3.74216e-10
3.66049e-10
3.64411e-10
3.63909e-10
3.62621e-10
3.63118e-10
3.62144e-10
3.71258e-10
3.55213e-10
3.59318e-10
3.58947e-10
3.50764e-10
3.49114e-10
3.48576e-10
3.47172e-10
3.47859e-10
3.46806e-10
3.31356e-10
3.4333e-10
3.43918e-10
3.43608e-10
3.35431e-10
3.33775e-10
3.33211e-10
3.31688e-10
3.32181e-10
3.31007e-10
)
;

boundaryField
{
    fuel
    {
        type            fixedValue;
        value           uniform 0;
    }
    wall
    {
        type            zeroGradient;
    }
    outlet
    {
        type            zeroGradient;
    }
    frontAndBack
    {
        type            empty;
    }
    procBoundary2to0
    {
        type            processor;
        value           nonuniform List<scalar> 
12
(
3.46768e-10
3.06035e-10
3.31385e-10
3.28779e-10
3.28106e-10
3.19957e-10
3.18312e-10
3.17742e-10
3.16109e-10
3.16727e-10
3.30984e-10
3.15462e-10
)
;
    }
    procBoundary2to3
    {
        type            processor;
        value           nonuniform List<scalar> 
25
(
5.01886e-08
2.25281e-08
1.0281e-08
5.01739e-09
2.74821e-09
1.67558e-09
1.19047e-09
9.28437e-10
7.92107e-10
7.01005e-10
7.01005e-10
6.48728e-10
6.08014e-10
5.7611e-10
5.49566e-10
5.26218e-10
5.04888e-10
4.84913e-10
4.65896e-10
4.47575e-10
4.29754e-10
4.12262e-10
3.94917e-10
3.77524e-10
3.62101e-10
)
;
    }
}


// ************************************************************************* //
