/*--------------------------------*- C++ -*----------------------------------*\
| =========                 |                                                 |
| \\      /  F ield         | OpenFOAM: The Open Source CFD Toolbox           |
|  \\    /   O peration     | Version:  dev                                   |
|   \\  /    A nd           | Web:      www.OpenFOAM.org                      |
|    \\/     M anipulation  |                                                 |
\*---------------------------------------------------------------------------*/
FoamFile
{
    version     2.0;
    format      ascii;
    class       volScalarField;
    location    "0.03";
    object      C2H5;
}
// * * * * * * * * * * * * * * * * * * * * * * * * * * * * * * * * * * * * * //

dimensions      [0 0 0 0 0 0 0];

internalField   nonuniform List<scalar> 
1997
(
1.80612e-08
1.80829e-08
1.80643e-08
1.8058e-08
1.80414e-08
1.80332e-08
1.80255e-08
1.80238e-08
1.80232e-08
1.8026e-08
1.80285e-08
1.80326e-08
1.80355e-08
1.80394e-08
1.80418e-08
1.80448e-08
1.80465e-08
1.80486e-08
1.7627e-08
1.76469e-08
1.76253e-08
1.76171e-08
1.75991e-08
1.75901e-08
1.7582e-08
1.75802e-08
1.75798e-08
1.75828e-08
1.75855e-08
1.75899e-08
1.75931e-08
1.75972e-08
1.75999e-08
1.76031e-08
1.76049e-08
1.76071e-08
1.7608e-08
1.76094e-08
1.761e-08
1.76107e-08
1.7611e-08
1.76113e-08
1.76113e-08
1.76112e-08
1.76111e-08
1.76107e-08
1.71966e-08
1.72142e-08
1.71898e-08
1.71799e-08
1.71607e-08
1.7151e-08
1.71426e-08
1.71407e-08
1.71403e-08
1.71434e-08
1.71462e-08
1.71507e-08
1.7154e-08
1.71582e-08
1.71609e-08
1.71642e-08
1.71661e-08
1.71683e-08
1.71693e-08
1.71707e-08
1.71713e-08
1.71721e-08
1.71723e-08
1.71726e-08
1.71726e-08
1.71726e-08
1.71724e-08
1.7172e-08
1.71714e-08
1.71706e-08
1.71699e-08
1.71685e-08
1.71673e-08
1.7165e-08
1.71631e-08
1.71598e-08
1.7157e-08
1.71528e-08
1.71496e-08
1.71451e-08
1.67606e-08
1.67759e-08
1.67487e-08
1.67371e-08
1.67167e-08
1.67063e-08
1.66977e-08
1.66957e-08
1.66953e-08
1.66985e-08
1.67013e-08
1.6706e-08
1.67093e-08
1.67137e-08
1.67164e-08
1.67197e-08
1.67217e-08
1.6724e-08
1.6725e-08
1.67264e-08
1.6727e-08
1.67278e-08
1.6728e-08
1.67283e-08
1.67283e-08
1.67283e-08
1.67281e-08
1.67277e-08
1.67272e-08
1.67263e-08
1.67257e-08
1.67242e-08
1.6723e-08
1.67206e-08
1.67187e-08
1.67153e-08
1.67125e-08
1.67082e-08
1.67049e-08
1.67003e-08
1.66971e-08
1.66938e-08
1.66943e-08
1.66965e-08
1.67052e-08
1.67157e-08
1.67362e-08
1.6748e-08
1.67755e-08
1.67604e-08
1.63191e-08
1.63321e-08
1.63021e-08
1.62888e-08
1.62674e-08
1.62563e-08
1.62474e-08
1.62452e-08
1.62449e-08
1.62481e-08
1.62511e-08
1.62558e-08
1.62593e-08
1.62637e-08
1.62665e-08
1.62699e-08
1.62718e-08
1.62742e-08
1.62752e-08
1.62767e-08
1.62773e-08
1.62781e-08
1.62783e-08
1.62786e-08
1.62786e-08
1.62786e-08
1.62784e-08
1.6278e-08
1.62775e-08
1.62767e-08
1.6276e-08
1.62745e-08
1.62733e-08
1.62709e-08
1.62689e-08
1.62655e-08
1.62626e-08
1.62583e-08
1.62548e-08
1.62501e-08
1.62469e-08
1.62436e-08
1.6244e-08
1.62463e-08
1.62553e-08
1.62665e-08
1.62881e-08
1.63016e-08
1.63318e-08
1.6319e-08
1.58723e-08
1.58831e-08
1.58503e-08
1.58354e-08
1.58129e-08
1.58011e-08
1.5792e-08
1.57897e-08
1.57894e-08
1.57927e-08
1.57958e-08
1.58006e-08
1.58041e-08
1.58086e-08
1.58115e-08
1.58149e-08
1.58169e-08
1.58192e-08
1.58203e-08
1.58218e-08
1.58224e-08
1.58232e-08
1.58234e-08
1.58237e-08
1.58238e-08
1.58237e-08
1.58236e-08
1.58231e-08
1.58227e-08
1.58218e-08
1.58212e-08
1.58196e-08
1.58184e-08
1.5816e-08
1.5814e-08
1.58105e-08
1.58076e-08
1.58032e-08
1.57997e-08
1.57949e-08
1.57916e-08
1.57882e-08
1.57887e-08
1.57911e-08
1.58003e-08
1.58122e-08
1.58349e-08
1.585e-08
1.5883e-08
1.58724e-08
1.54206e-08
1.54292e-08
1.53937e-08
1.53773e-08
1.53537e-08
1.53412e-08
1.5332e-08
1.53295e-08
1.53292e-08
1.53326e-08
1.53358e-08
1.53406e-08
1.53443e-08
1.53488e-08
1.53517e-08
1.53552e-08
1.53572e-08
1.53596e-08
1.53607e-08
1.53622e-08
1.53628e-08
1.53636e-08
1.53638e-08
1.53641e-08
1.53641e-08
1.5364e-08
1.53639e-08
1.53635e-08
1.53631e-08
1.53622e-08
1.53616e-08
1.536e-08
1.53588e-08
1.53564e-08
1.53543e-08
1.53508e-08
1.53479e-08
1.53434e-08
1.53398e-08
1.5335e-08
1.53316e-08
1.53282e-08
1.53286e-08
1.53312e-08
1.53405e-08
1.53531e-08
1.53769e-08
1.53935e-08
1.54292e-08
1.54208e-08
1.49644e-08
1.49708e-08
1.49327e-08
1.49148e-08
1.48902e-08
1.48771e-08
1.48677e-08
1.4865e-08
1.48648e-08
1.48683e-08
1.48715e-08
1.48764e-08
1.48801e-08
1.48847e-08
1.48877e-08
1.48912e-08
1.48932e-08
1.48956e-08
1.48967e-08
1.48982e-08
1.48988e-08
1.48996e-08
1.48998e-08
1.49001e-08
1.49001e-08
1.49001e-08
1.48999e-08
1.48995e-08
1.48991e-08
1.48983e-08
1.48976e-08
1.48961e-08
1.48949e-08
1.48924e-08
1.48904e-08
1.48868e-08
1.48839e-08
1.48793e-08
1.48757e-08
1.48708e-08
1.48674e-08
1.4864e-08
1.48643e-08
1.4867e-08
1.48766e-08
1.48898e-08
1.49145e-08
1.49327e-08
1.4971e-08
1.49648e-08
1.45041e-08
1.45085e-08
1.44679e-08
1.44485e-08
1.4423e-08
1.44092e-08
1.43997e-08
1.43969e-08
1.43967e-08
1.44002e-08
1.44035e-08
1.44085e-08
1.44123e-08
1.44169e-08
1.44199e-08
1.44234e-08
1.44254e-08
1.44278e-08
1.4429e-08
1.44305e-08
1.44311e-08
1.44319e-08
1.44321e-08
1.44324e-08
1.44324e-08
1.44323e-08
1.44322e-08
1.44318e-08
1.44314e-08
1.44306e-08
1.44299e-08
1.44284e-08
1.44272e-08
1.44247e-08
1.44227e-08
1.44191e-08
1.44161e-08
1.44115e-08
1.44078e-08
1.44029e-08
1.43995e-08
1.4396e-08
1.43963e-08
1.43992e-08
1.44089e-08
1.44227e-08
1.44484e-08
1.4468e-08
1.45088e-08
1.45047e-08
1.40405e-08
1.40427e-08
1.39998e-08
1.3979e-08
1.39527e-08
1.39383e-08
1.39286e-08
1.39257e-08
1.39256e-08
1.39291e-08
1.39325e-08
1.39375e-08
1.39413e-08
1.3946e-08
1.3949e-08
1.39525e-08
1.39545e-08
1.39569e-08
1.39581e-08
1.39596e-08
1.39602e-08
1.39609e-08
1.39611e-08
1.39614e-08
1.39614e-08
1.39614e-08
1.39612e-08
1.39608e-08
1.39605e-08
1.39597e-08
1.3959e-08
1.39575e-08
1.39563e-08
1.39538e-08
1.39518e-08
1.39482e-08
1.39452e-08
1.39406e-08
1.39369e-08
1.39319e-08
1.39284e-08
1.3925e-08
1.39252e-08
1.39282e-08
1.3938e-08
1.39525e-08
1.3979e-08
1.4e-08
1.40432e-08
1.40411e-08
1.35594e-08
1.35604e-08
1.35157e-08
1.34941e-08
1.34671e-08
1.34524e-08
1.34428e-08
1.344e-08
1.34403e-08
1.3444e-08
1.34478e-08
1.34531e-08
1.34571e-08
1.3462e-08
1.34652e-08
1.3469e-08
1.34711e-08
1.34737e-08
1.34751e-08
1.34766e-08
1.34773e-08
1.34782e-08
1.34784e-08
1.34788e-08
1.34788e-08
1.34787e-08
1.34786e-08
1.34781e-08
1.34778e-08
1.34769e-08
1.34761e-08
1.34745e-08
1.34731e-08
1.34705e-08
1.34683e-08
1.34645e-08
1.34613e-08
1.34565e-08
1.34525e-08
1.34472e-08
1.34435e-08
1.34398e-08
1.34397e-08
1.34426e-08
1.34524e-08
1.34672e-08
1.34943e-08
1.35162e-08
1.35611e-08
1.35602e-08
1.30751e-08
1.30738e-08
1.30274e-08
1.30045e-08
1.2977e-08
1.29618e-08
1.29522e-08
1.29493e-08
1.29497e-08
1.29534e-08
1.29572e-08
1.29626e-08
1.29666e-08
1.29715e-08
1.29747e-08
1.29784e-08
1.29806e-08
1.29832e-08
1.29845e-08
1.29861e-08
1.29868e-08
1.29876e-08
1.29879e-08
1.29882e-08
1.29882e-08
1.29881e-08
1.2988e-08
1.29875e-08
1.29872e-08
1.29863e-08
1.29856e-08
1.2984e-08
1.29826e-08
1.298e-08
1.29778e-08
1.29741e-08
1.29708e-08
1.2966e-08
1.2962e-08
1.29567e-08
1.29529e-08
1.29493e-08
1.2949e-08
1.29521e-08
1.29619e-08
1.29771e-08
1.30048e-08
1.30279e-08
1.30746e-08
1.3076e-08
1.25889e-08
1.25854e-08
1.25374e-08
1.25133e-08
1.24854e-08
1.24698e-08
1.24603e-08
1.24573e-08
1.24577e-08
1.24615e-08
1.24653e-08
1.24706e-08
1.24747e-08
1.24796e-08
1.24828e-08
1.24865e-08
1.24886e-08
1.24912e-08
1.24925e-08
1.24941e-08
1.24947e-08
1.24955e-08
1.24958e-08
1.24961e-08
1.24961e-08
1.2496e-08
1.24959e-08
1.24954e-08
1.24951e-08
1.24943e-08
1.24936e-08
1.2492e-08
1.24906e-08
1.24881e-08
1.24859e-08
1.24821e-08
1.24789e-08
1.24741e-08
1.24701e-08
1.24648e-08
1.2461e-08
1.24574e-08
1.24571e-08
1.24602e-08
1.247e-08
1.24856e-08
1.25137e-08
1.25379e-08
1.25863e-08
1.25898e-08
1.21165e-08
1.21113e-08
1.20616e-08
1.20367e-08
1.20084e-08
1.19924e-08
1.19829e-08
1.19798e-08
1.19803e-08
1.1984e-08
1.19878e-08
1.19931e-08
1.19972e-08
1.2002e-08
1.20051e-08
1.20088e-08
1.20109e-08
1.20135e-08
1.20147e-08
1.20163e-08
1.20169e-08
1.20177e-08
1.20179e-08
1.20183e-08
1.20183e-08
1.20182e-08
1.2018e-08
1.20176e-08
1.20173e-08
1.20165e-08
1.20158e-08
1.20142e-08
1.20129e-08
1.20104e-08
1.20082e-08
1.20045e-08
1.20013e-08
1.19966e-08
1.19926e-08
1.19873e-08
1.19835e-08
1.198e-08
1.19796e-08
1.19828e-08
1.19926e-08
1.20086e-08
1.20371e-08
1.20622e-08
1.21123e-08
1.21175e-08
1.16449e-08
1.16382e-08
1.1587e-08
1.15613e-08
1.15327e-08
1.15164e-08
1.15069e-08
1.15038e-08
1.15043e-08
1.15079e-08
1.15117e-08
1.1517e-08
1.1521e-08
1.15257e-08
1.15288e-08
1.15325e-08
1.15345e-08
1.1537e-08
1.15383e-08
1.15398e-08
1.15404e-08
1.15412e-08
1.15414e-08
1.15417e-08
1.15417e-08
1.15416e-08
1.15415e-08
1.15411e-08
1.15408e-08
1.154e-08
1.15393e-08
1.15377e-08
1.15365e-08
1.1534e-08
1.15319e-08
1.15282e-08
1.15251e-08
1.15204e-08
1.15165e-08
1.15113e-08
1.15075e-08
1.1504e-08
1.15036e-08
1.15069e-08
1.15166e-08
1.1533e-08
1.15618e-08
1.15876e-08
1.16392e-08
1.1646e-08
1.11662e-08
1.11585e-08
1.1106e-08
1.10797e-08
1.1051e-08
1.10343e-08
1.1025e-08
1.1022e-08
1.10226e-08
1.10264e-08
1.10304e-08
1.10358e-08
1.10401e-08
1.10451e-08
1.10485e-08
1.10524e-08
1.10547e-08
1.10575e-08
1.10589e-08
1.10606e-08
1.10613e-08
1.10622e-08
1.10625e-08
1.10629e-08
1.10629e-08
1.10628e-08
1.10627e-08
1.10622e-08
1.10618e-08
1.10609e-08
1.10601e-08
1.10583e-08
1.10569e-08
1.10542e-08
1.10518e-08
1.10479e-08
1.10445e-08
1.10395e-08
1.10353e-08
1.10299e-08
1.10259e-08
1.10223e-08
1.10218e-08
1.1025e-08
1.10345e-08
1.10512e-08
1.10802e-08
1.11066e-08
1.11597e-08
1.11674e-08
1.06844e-08
1.0675e-08
1.06219e-08
1.05951e-08
1.05664e-08
1.05496e-08
1.05405e-08
1.05374e-08
1.05381e-08
1.05417e-08
1.05457e-08
1.05511e-08
1.05552e-08
1.05602e-08
1.05635e-08
1.05674e-08
1.05697e-08
1.05723e-08
1.05737e-08
1.05754e-08
1.05761e-08
1.0577e-08
1.05773e-08
1.05776e-08
1.05777e-08
1.05776e-08
1.05774e-08
1.0577e-08
1.05766e-08
1.05757e-08
1.05749e-08
1.05732e-08
1.05718e-08
1.05691e-08
1.05668e-08
1.05629e-08
1.05596e-08
1.05547e-08
1.05506e-08
1.05453e-08
1.05413e-08
1.05378e-08
1.05372e-08
1.05405e-08
1.05497e-08
1.05667e-08
1.05956e-08
1.06224e-08
1.06763e-08
1.06856e-08
1.0206e-08
1.01952e-08
1.01418e-08
1.01147e-08
1.00862e-08
1.00692e-08
1.00604e-08
1.00573e-08
1.0058e-08
1.00615e-08
1.00655e-08
1.00707e-08
1.00748e-08
1.00796e-08
1.00829e-08
1.00867e-08
1.00889e-08
1.00915e-08
1.00929e-08
1.00945e-08
1.00952e-08
1.00961e-08
1.00963e-08
1.00967e-08
1.00967e-08
1.00966e-08
1.00964e-08
1.0096e-08
1.00957e-08
1.00947e-08
1.0094e-08
1.00923e-08
1.0091e-08
1.00883e-08
1.00861e-08
1.00823e-08
1.00791e-08
1.00743e-08
1.00702e-08
1.0065e-08
1.00612e-08
1.00578e-08
1.00571e-08
1.00604e-08
1.00694e-08
1.00865e-08
1.01152e-08
1.01423e-08
1.01965e-08
1.02073e-08
9.73281e-09
9.72048e-09
9.66748e-09
9.64003e-09
9.61187e-09
9.59472e-09
9.5862e-09
9.58312e-09
9.58391e-09
9.58726e-09
9.59113e-09
9.59624e-09
9.60023e-09
9.60494e-09
9.60812e-09
9.61178e-09
9.61396e-09
9.6165e-09
9.61784e-09
9.6194e-09
9.62008e-09
9.62092e-09
9.62118e-09
9.6215e-09
9.62151e-09
9.62144e-09
9.62129e-09
9.62086e-09
9.62054e-09
9.61964e-09
9.61891e-09
9.61731e-09
9.61596e-09
9.61341e-09
9.61122e-09
9.60755e-09
9.60439e-09
9.59971e-09
9.59577e-09
9.59073e-09
9.58692e-09
9.58368e-09
9.58302e-09
9.58624e-09
9.59493e-09
9.61217e-09
9.6405e-09
9.66807e-09
9.72172e-09
9.73403e-09
9.27981e-09
9.26653e-09
9.21384e-09
9.18625e-09
9.15842e-09
9.14107e-09
9.13285e-09
9.12978e-09
9.13059e-09
9.13378e-09
9.13756e-09
9.14252e-09
9.14639e-09
9.15097e-09
9.15404e-09
9.1576e-09
9.15971e-09
9.16218e-09
9.16347e-09
9.16499e-09
9.16564e-09
9.16645e-09
9.16669e-09
9.167e-09
9.16701e-09
9.16694e-09
9.1668e-09
9.16638e-09
9.16608e-09
9.1652e-09
9.16451e-09
9.16295e-09
9.16165e-09
9.15918e-09
9.15706e-09
9.15349e-09
9.15043e-09
9.14589e-09
9.14207e-09
9.13717e-09
9.13345e-09
9.13038e-09
9.1297e-09
9.13291e-09
9.14128e-09
9.15871e-09
9.18672e-09
9.21446e-09
9.26774e-09
9.28103e-09
8.83523e-09
8.82118e-09
8.76911e-09
8.74154e-09
8.71416e-09
8.69634e-09
8.68765e-09
8.68416e-09
8.68481e-09
8.68793e-09
8.6916e-09
8.69649e-09
8.70033e-09
8.70488e-09
8.70792e-09
8.71145e-09
8.71351e-09
8.71593e-09
8.71717e-09
8.71864e-09
8.71924e-09
8.72e-09
8.7202e-09
8.72048e-09
8.72047e-09
8.7204e-09
8.72027e-09
8.71988e-09
8.7196e-09
8.71877e-09
8.71812e-09
8.71661e-09
8.71536e-09
8.71293e-09
8.71086e-09
8.70733e-09
8.70431e-09
8.69979e-09
8.696e-09
8.69117e-09
8.68756e-09
8.68456e-09
8.68403e-09
8.68767e-09
8.6965e-09
8.71445e-09
8.74201e-09
8.76975e-09
8.82236e-09
8.83643e-09
8.39415e-09
8.37793e-09
8.32525e-09
8.29693e-09
8.26958e-09
8.2512e-09
8.24268e-09
8.23913e-09
8.23976e-09
8.24274e-09
8.24631e-09
8.25105e-09
8.25478e-09
8.25919e-09
8.26214e-09
8.26556e-09
8.26756e-09
8.2699e-09
8.27108e-09
8.2725e-09
8.27306e-09
8.27379e-09
8.27397e-09
8.27422e-09
8.27421e-09
8.27413e-09
8.27401e-09
8.27364e-09
8.27339e-09
8.27259e-09
8.27198e-09
8.27052e-09
8.26933e-09
8.26698e-09
8.26497e-09
8.26155e-09
8.25862e-09
8.25424e-09
8.25056e-09
8.24588e-09
8.24237e-09
8.23951e-09
8.239e-09
8.24269e-09
8.25134e-09
8.26985e-09
8.29737e-09
8.3259e-09
8.3791e-09
8.39532e-09
7.97044e-09
7.95376e-09
7.90229e-09
7.87432e-09
7.84766e-09
7.82909e-09
7.82095e-09
7.81744e-09
7.81809e-09
7.8209e-09
7.82435e-09
7.82889e-09
7.83247e-09
7.83671e-09
7.83953e-09
7.84283e-09
7.84473e-09
7.84698e-09
7.8481e-09
7.84946e-09
7.84999e-09
7.85069e-09
7.85085e-09
7.8511e-09
7.85107e-09
7.851e-09
7.85089e-09
7.85054e-09
7.8503e-09
7.84954e-09
7.84896e-09
7.84756e-09
7.84642e-09
7.84417e-09
7.84225e-09
7.83897e-09
7.83617e-09
7.83196e-09
7.82842e-09
7.82393e-09
7.82054e-09
7.81784e-09
7.81732e-09
7.82096e-09
7.82922e-09
7.84791e-09
7.87474e-09
7.90295e-09
7.95489e-09
7.97157e-09
7.55557e-09
7.53707e-09
7.48534e-09
7.45939e-09
7.43473e-09
7.42087e-09
7.41315e-09
7.4097e-09
7.41036e-09
7.413e-09
7.41632e-09
7.42066e-09
7.42409e-09
7.42814e-09
7.43082e-09
7.43398e-09
7.43579e-09
7.43793e-09
7.439e-09
7.44029e-09
7.44079e-09
7.44145e-09
7.4416e-09
7.44183e-09
7.4418e-09
7.44173e-09
7.44163e-09
7.4413e-09
7.44107e-09
7.44035e-09
7.4398e-09
7.43847e-09
7.43739e-09
7.43524e-09
7.43342e-09
7.43028e-09
7.42762e-09
7.42359e-09
7.42022e-09
7.41592e-09
7.41267e-09
7.41013e-09
7.40958e-09
7.41316e-09
7.42098e-09
7.43508e-09
7.45989e-09
7.48606e-09
7.5382e-09
7.55669e-09
7.15923e-09
7.14062e-09
7.09063e-09
7.06544e-09
7.04177e-09
7.02807e-09
7.02078e-09
7.01742e-09
7.01809e-09
7.02057e-09
7.02374e-09
7.02787e-09
7.03112e-09
7.03497e-09
7.03751e-09
7.04051e-09
7.04223e-09
7.04427e-09
7.04527e-09
7.0465e-09
7.04696e-09
7.04758e-09
7.04772e-09
7.04793e-09
7.04791e-09
7.04784e-09
7.04774e-09
7.04743e-09
7.04722e-09
7.04653e-09
7.04603e-09
7.04476e-09
7.04375e-09
7.0417e-09
7.03998e-09
7.037e-09
7.03447e-09
7.03064e-09
7.02744e-09
7.02336e-09
7.02025e-09
7.01787e-09
7.01731e-09
7.0208e-09
7.02817e-09
7.0421e-09
7.06593e-09
7.09134e-09
7.14171e-09
7.1603e-09
6.77909e-09
6.76057e-09
6.71257e-09
6.68831e-09
6.66568e-09
6.65224e-09
6.64539e-09
6.64213e-09
6.6428e-09
6.64512e-09
6.64813e-09
6.65203e-09
6.6551e-09
6.65874e-09
6.66114e-09
6.66398e-09
6.66559e-09
6.66751e-09
6.66845e-09
6.66961e-09
6.67004e-09
6.67062e-09
6.67075e-09
6.67094e-09
6.67092e-09
6.67085e-09
6.67077e-09
6.67047e-09
6.67028e-09
6.66963e-09
6.66916e-09
6.66796e-09
6.66702e-09
6.66508e-09
6.66347e-09
6.66065e-09
6.65828e-09
6.65465e-09
6.65163e-09
6.64777e-09
6.64481e-09
6.64259e-09
6.64202e-09
6.6454e-09
6.65233e-09
6.66599e-09
6.68877e-09
6.71326e-09
6.76163e-09
6.7801e-09
6.41665e-09
6.39844e-09
6.35265e-09
6.32947e-09
6.30795e-09
6.29488e-09
6.28848e-09
6.28533e-09
6.286e-09
6.28815e-09
6.291e-09
6.29466e-09
6.29754e-09
6.30096e-09
6.3032e-09
6.30587e-09
6.30738e-09
6.30918e-09
6.31005e-09
6.31114e-09
6.31153e-09
6.31208e-09
6.31219e-09
6.31237e-09
6.31234e-09
6.31228e-09
6.3122e-09
6.31193e-09
6.31175e-09
6.31114e-09
6.31071e-09
6.30959e-09
6.30871e-09
6.3069e-09
6.30539e-09
6.30274e-09
6.30052e-09
6.29712e-09
6.29428e-09
6.29065e-09
6.28786e-09
6.28579e-09
6.28522e-09
6.28849e-09
6.29497e-09
6.30824e-09
6.3299e-09
6.35331e-09
6.39945e-09
6.4176e-09
6.07009e-09
6.0514e-09
6.0068e-09
5.9842e-09
5.96345e-09
5.95063e-09
5.94456e-09
5.94149e-09
5.94214e-09
5.94415e-09
5.94686e-09
5.95032e-09
5.95305e-09
5.95629e-09
5.95841e-09
5.96095e-09
5.96237e-09
5.96408e-09
5.96489e-09
5.96592e-09
5.96628e-09
5.96679e-09
5.96689e-09
5.96706e-09
5.96703e-09
5.96697e-09
5.9669e-09
5.96664e-09
5.96648e-09
5.9659e-09
5.9655e-09
5.96444e-09
5.96362e-09
5.9619e-09
5.96048e-09
5.95797e-09
5.95587e-09
5.95264e-09
5.94995e-09
5.94652e-09
5.94386e-09
5.94193e-09
5.94136e-09
5.94456e-09
5.95071e-09
5.96372e-09
5.98461e-09
6.00744e-09
6.05239e-09
6.071e-09
5.74758e-09
5.72954e-09
5.68756e-09
5.66634e-09
5.64684e-09
5.63462e-09
5.62901e-09
5.62607e-09
5.62669e-09
5.62853e-09
5.63104e-09
5.63424e-09
5.63675e-09
5.63976e-09
5.64172e-09
5.64407e-09
5.64538e-09
5.64696e-09
5.6477e-09
5.64866e-09
5.64898e-09
5.64945e-09
5.64954e-09
5.64969e-09
5.64966e-09
5.64961e-09
5.64954e-09
5.64931e-09
5.64916e-09
5.64863e-09
5.64827e-09
5.64729e-09
5.64654e-09
5.64494e-09
5.64364e-09
5.64131e-09
5.63937e-09
5.63638e-09
5.63389e-09
5.6307e-09
5.62825e-09
5.62649e-09
5.62593e-09
5.629e-09
5.63468e-09
5.64708e-09
5.6667e-09
5.68815e-09
5.73049e-09
5.74842e-09
5.4474e-09
5.43024e-09
5.3911e-09
5.37062e-09
5.35325e-09
5.34175e-09
5.3366e-09
5.33382e-09
5.33438e-09
5.33605e-09
5.33835e-09
5.34126e-09
5.34354e-09
5.34631e-09
5.3481e-09
5.35026e-09
5.35145e-09
5.3529e-09
5.35357e-09
5.35444e-09
5.35473e-09
5.35516e-09
5.35523e-09
5.35537e-09
5.35534e-09
5.35529e-09
5.35523e-09
5.35502e-09
5.35489e-09
5.35441e-09
5.35408e-09
5.35318e-09
5.35251e-09
5.35104e-09
5.34986e-09
5.34772e-09
5.34595e-09
5.34319e-09
5.34092e-09
5.33801e-09
5.33576e-09
5.33418e-09
5.33365e-09
5.33659e-09
5.3418e-09
5.35346e-09
5.37096e-09
5.39164e-09
5.43113e-09
5.44816e-09
5.17096e-09
5.15489e-09
5.11879e-09
5.09994e-09
5.08403e-09
5.07335e-09
5.06868e-09
5.06607e-09
5.06657e-09
5.06803e-09
5.07013e-09
5.07273e-09
5.07474e-09
5.07725e-09
5.07887e-09
5.08083e-09
5.0819e-09
5.08322e-09
5.08382e-09
5.08461e-09
5.08486e-09
5.08525e-09
5.08531e-09
5.08544e-09
5.0854e-09
5.08536e-09
5.08531e-09
5.08512e-09
5.085e-09
5.08457e-09
5.08428e-09
5.08347e-09
5.08286e-09
5.08153e-09
5.08047e-09
5.07852e-09
5.07692e-09
5.07442e-09
5.07238e-09
5.06977e-09
5.06774e-09
5.06637e-09
5.06583e-09
5.06866e-09
5.07338e-09
5.08421e-09
5.10024e-09
5.11927e-09
5.15572e-09
5.17163e-09
4.91961e-09
4.90483e-09
4.87194e-09
4.85485e-09
4.84046e-09
4.8307e-09
4.82653e-09
4.82413e-09
4.82454e-09
4.82575e-09
4.8277e-09
4.82996e-09
4.83162e-09
4.83388e-09
4.83532e-09
4.83708e-09
4.83803e-09
4.83921e-09
4.83974e-09
4.84044e-09
4.84066e-09
4.84101e-09
4.84105e-09
4.84116e-09
4.84113e-09
4.84109e-09
4.84105e-09
4.84088e-09
4.84078e-09
4.84039e-09
4.84014e-09
4.83942e-09
4.83888e-09
4.83769e-09
4.83675e-09
4.835e-09
4.83358e-09
4.83133e-09
4.82958e-09
4.8273e-09
4.82547e-09
4.82434e-09
4.82377e-09
4.82648e-09
4.83071e-09
4.8406e-09
4.85511e-09
4.87237e-09
4.90559e-09
4.92019e-09
4.69372e-09
4.67942e-09
4.64874e-09
4.63298e-09
4.61981e-09
4.61087e-09
4.60711e-09
4.60492e-09
4.60525e-09
4.60605e-09
4.60806e-09
4.60999e-09
4.61116e-09
4.61318e-09
4.61446e-09
4.61603e-09
4.61686e-09
4.61791e-09
4.61837e-09
4.61899e-09
4.61917e-09
4.61947e-09
4.61951e-09
4.6196e-09
4.61956e-09
4.61953e-09
4.61949e-09
4.61934e-09
4.61927e-09
4.61892e-09
4.61871e-09
4.61807e-09
4.61761e-09
4.61656e-09
4.61572e-09
4.61417e-09
4.6129e-09
4.61089e-09
4.60951e-09
4.6076e-09
4.6059e-09
4.60504e-09
4.60439e-09
4.60704e-09
4.61086e-09
4.61992e-09
4.63319e-09
4.64912e-09
4.68012e-09
4.69423e-09
4.49649e-09
4.48384e-09
4.45665e-09
4.44283e-09
4.43128e-09
4.42342e-09
4.4202e-09
4.41832e-09
4.41866e-09
4.41875e-09
4.42113e-09
4.4228e-09
4.42322e-09
4.42497e-09
4.42607e-09
4.42744e-09
4.42815e-09
4.42906e-09
4.42944e-09
4.42997e-09
4.43012e-09
4.43038e-09
4.4304e-09
4.43047e-09
4.43044e-09
4.43041e-09
4.43038e-09
4.43026e-09
4.43019e-09
4.4299e-09
4.42973e-09
4.42918e-09
4.42879e-09
4.42788e-09
4.42717e-09
4.42582e-09
4.42473e-09
4.42299e-09
4.4223e-09
4.42073e-09
4.41911e-09
4.41845e-09
4.41775e-09
4.4201e-09
4.42338e-09
4.43135e-09
4.44298e-09
4.45695e-09
4.48446e-09
4.49691e-09
4.32598e-09
4.31497e-09
4.29123e-09
4.27937e-09
4.26946e-09
4.26274e-09
4.26004e-09
4.25853e-09
4.25899e-09
4.26081e-09
4.26116e-09
4.26277e-09
4.26495e-09
4.26643e-09
4.26736e-09
4.2685e-09
4.2691e-09
4.26986e-09
4.27017e-09
4.27061e-09
4.27073e-09
4.27094e-09
4.27095e-09
4.27101e-09
4.27098e-09
4.27095e-09
4.27093e-09
4.27083e-09
4.27078e-09
4.27054e-09
4.2704e-09
4.26994e-09
4.26963e-09
4.26886e-09
4.26827e-09
4.26714e-09
4.26623e-09
4.26475e-09
4.26283e-09
4.261e-09
4.25994e-09
4.25877e-09
4.2587e-09
4.25992e-09
4.26267e-09
4.26947e-09
4.27947e-09
4.29145e-09
4.31549e-09
4.3263e-09
4.18801e-09
4.1791e-09
4.15913e-09
4.14943e-09
4.14123e-09
4.13574e-09
4.13355e-09
4.13241e-09
4.13287e-09
4.13402e-09
4.13471e-09
4.13605e-09
4.13754e-09
4.13874e-09
4.13948e-09
4.14042e-09
4.14089e-09
4.1415e-09
4.14174e-09
4.14209e-09
4.14217e-09
4.14234e-09
4.14234e-09
4.14239e-09
4.14236e-09
4.14234e-09
4.14232e-09
4.14224e-09
4.14221e-09
4.14202e-09
4.14192e-09
4.14155e-09
4.14131e-09
4.14069e-09
4.14022e-09
4.1393e-09
4.13857e-09
4.13737e-09
4.13612e-09
4.13461e-09
4.13365e-09
4.13264e-09
4.13258e-09
4.13339e-09
4.13562e-09
4.14119e-09
4.14945e-09
4.15927e-09
4.17952e-09
4.18823e-09
4.0816e-09
4.07502e-09
4.05902e-09
4.05156e-09
4.04511e-09
4.0409e-09
4.0392e-09
4.03841e-09
4.03878e-09
4.03952e-09
4.04024e-09
4.0412e-09
4.0422e-09
4.04312e-09
4.04368e-09
4.0444e-09
4.04475e-09
4.04521e-09
4.04538e-09
4.04565e-09
4.04569e-09
4.04581e-09
4.04581e-09
4.04584e-09
4.04582e-09
4.0458e-09
4.04579e-09
4.04573e-09
4.04571e-09
4.04557e-09
4.04551e-09
4.04523e-09
4.04506e-09
4.04459e-09
4.04424e-09
4.04354e-09
4.04299e-09
4.04206e-09
4.04122e-09
4.0401e-09
4.03927e-09
4.03853e-09
4.03842e-09
4.039e-09
4.04074e-09
4.04501e-09
4.05151e-09
4.05908e-09
4.07534e-09
4.08171e-09
4.00664e-09
4.00255e-09
3.99215e-09
3.98702e-09
3.98232e-09
3.97946e-09
3.9782e-09
3.97774e-09
3.97796e-09
3.97845e-09
3.979e-09
3.97957e-09
3.9802e-09
3.98084e-09
3.98123e-09
3.98172e-09
3.98195e-09
3.98227e-09
3.98237e-09
3.98255e-09
3.98257e-09
3.98264e-09
3.98263e-09
3.98265e-09
3.98263e-09
3.98261e-09
3.98261e-09
3.98257e-09
3.98257e-09
3.98247e-09
3.98244e-09
3.98226e-09
3.98215e-09
3.98184e-09
3.98161e-09
3.98112e-09
3.98074e-09
3.9801e-09
3.97955e-09
3.97879e-09
3.97819e-09
3.97768e-09
3.97761e-09
3.97795e-09
3.97925e-09
3.98216e-09
3.98688e-09
3.9921e-09
4.00276e-09
4.00664e-09
3.96716e-09
3.96585e-09
3.95983e-09
3.95711e-09
3.95419e-09
3.95272e-09
3.95185e-09
3.95172e-09
3.95176e-09
3.95206e-09
3.95237e-09
3.95256e-09
3.9529e-09
3.95326e-09
3.95347e-09
3.95375e-09
3.95387e-09
3.95403e-09
3.95407e-09
3.95416e-09
3.95415e-09
3.95418e-09
3.95416e-09
3.95417e-09
3.95415e-09
3.95415e-09
3.95414e-09
3.95413e-09
3.95413e-09
3.95409e-09
3.95409e-09
3.954e-09
3.95396e-09
3.95379e-09
3.95368e-09
3.95341e-09
3.9532e-09
3.95283e-09
3.95253e-09
3.9521e-09
3.95178e-09
3.95146e-09
3.95149e-09
3.95156e-09
3.95245e-09
3.95396e-09
3.95689e-09
3.95969e-09
3.96595e-09
3.96705e-09
3.96321e-09
3.9649e-09
3.96354e-09
3.96329e-09
3.96215e-09
3.96212e-09
3.9616e-09
3.96183e-09
3.96168e-09
3.96182e-09
3.96186e-09
3.96168e-09
3.96177e-09
3.96186e-09
3.9619e-09
3.96196e-09
3.96197e-09
3.96199e-09
3.96197e-09
3.96197e-09
3.96193e-09
3.96192e-09
3.9619e-09
3.96189e-09
3.96189e-09
3.96188e-09
3.96188e-09
3.96189e-09
3.9619e-09
3.96191e-09
3.96193e-09
3.96193e-09
3.96196e-09
3.96193e-09
3.96193e-09
3.96187e-09
3.96183e-09
3.96175e-09
3.96167e-09
3.96155e-09
3.96151e-09
3.96136e-09
3.96154e-09
3.96128e-09
3.96181e-09
3.96186e-09
3.96299e-09
3.9633e-09
3.9649e-09
3.96299e-09
3.99671e-09
4.00165e-09
4.00489e-09
4.00718e-09
4.00783e-09
4.0093e-09
4.00909e-09
4.00969e-09
4.00935e-09
4.00934e-09
4.00912e-09
4.00863e-09
4.00849e-09
4.0083e-09
4.00819e-09
4.00803e-09
4.00794e-09
4.00782e-09
4.00774e-09
4.00765e-09
4.0076e-09
4.00754e-09
4.00752e-09
4.0075e-09
4.0075e-09
4.00751e-09
4.00751e-09
4.00753e-09
4.00755e-09
4.0076e-09
4.00765e-09
4.00774e-09
4.00782e-09
4.00794e-09
4.00804e-09
4.0082e-09
4.00832e-09
4.0085e-09
4.00865e-09
4.00882e-09
4.00906e-09
4.00905e-09
4.0094e-09
4.00878e-09
4.00899e-09
4.00751e-09
4.00684e-09
4.0046e-09
4.00159e-09
3.99642e-09
4.06936e-09
4.07782e-09
4.08574e-09
4.09065e-09
4.09307e-09
4.09611e-09
4.09618e-09
4.09719e-09
4.09665e-09
4.09652e-09
4.09604e-09
)
;

boundaryField
{
    fuel
    {
        type            fixedValue;
        value           nonuniform 0();
    }
    wall
    {
        type            zeroGradient;
    }
    outlet
    {
        type            zeroGradient;
    }
    frontAndBack
    {
        type            empty;
    }
    procBoundary2to0
    {
        type            processor;
        value           nonuniform List<scalar> 
53
(
1.84796e-08
1.85037e-08
1.84881e-08
1.84835e-08
1.84681e-08
1.84606e-08
1.84531e-08
1.84516e-08
1.84509e-08
1.84537e-08
1.8456e-08
1.846e-08
1.84628e-08
1.84666e-08
1.84689e-08
1.84719e-08
1.84735e-08
1.84755e-08
1.80496e-08
1.80496e-08
1.80509e-08
1.80514e-08
1.80521e-08
1.80523e-08
1.80525e-08
1.80525e-08
1.80525e-08
1.80524e-08
1.8052e-08
1.76103e-08
1.76103e-08
1.76095e-08
1.76089e-08
1.76075e-08
1.76063e-08
1.7604e-08
1.76022e-08
1.7599e-08
1.75963e-08
1.75922e-08
1.75891e-08
1.75847e-08
1.71423e-08
1.71423e-08
1.71392e-08
1.71398e-08
1.71418e-08
1.71502e-08
1.716e-08
1.71794e-08
1.71895e-08
1.72141e-08
1.71967e-08
)
;
    }
    procBoundary2to3
    {
        type            processor;
        value           nonuniform List<scalar> 
51
(
4.09565e-09
4.09532e-09
4.09486e-09
4.09459e-09
4.09423e-09
4.09404e-09
4.09378e-09
4.09365e-09
4.09348e-09
4.09341e-09
4.09331e-09
4.09329e-09
4.09327e-09
4.09328e-09
4.09328e-09
4.09329e-09
4.09333e-09
4.09335e-09
4.09344e-09
4.09352e-09
4.09369e-09
4.09382e-09
4.09408e-09
4.09428e-09
4.09464e-09
4.09491e-09
4.09536e-09
4.09571e-09
4.09616e-09
4.09666e-09
4.09678e-09
4.0973e-09
4.09626e-09
4.09617e-09
4.09312e-09
4.09066e-09
4.0858e-09
4.07805e-09
4.06936e-09
4.18354e-09
4.19579e-09
4.20858e-09
4.21619e-09
4.22037e-09
4.22505e-09
4.22536e-09
4.22684e-09
4.22611e-09
4.22587e-09
4.09565e-09
4.22518e-09
)
;
    }
}


// ************************************************************************* //
