/*--------------------------------*- C++ -*----------------------------------*\
| =========                 |                                                 |
| \\      /  F ield         | OpenFOAM: The Open Source CFD Toolbox           |
|  \\    /   O peration     | Version:  dev                                   |
|   \\  /    A nd           | Web:      www.OpenFOAM.org                      |
|    \\/     M anipulation  |                                                 |
\*---------------------------------------------------------------------------*/
FoamFile
{
    version     2.0;
    format      ascii;
    class       volScalarField;
    location    "0.03";
    object      CH3OH;
}
// * * * * * * * * * * * * * * * * * * * * * * * * * * * * * * * * * * * * * //

dimensions      [0 0 0 0 0 0 0];

internalField   nonuniform List<scalar> 
250
(
7.1313e-06
3.60739e-06
3.10733e-06
3.05142e-06
3.04447e-06
3.04408e-06
3.04357e-06
3.04252e-06
3.04247e-06
2.07912e-05
2.27217e-06
1.93241e-06
1.89567e-06
1.89102e-06
1.89057e-06
1.89041e-06
1.89015e-06
1.8901e-06
3.2895e-05
1.49022e-06
1.21536e-06
1.18977e-06
1.18627e-06
1.18593e-06
1.18588e-06
1.18573e-06
1.18574e-06
4.11413e-05
1.0569e-06
8.07736e-07
7.8915e-07
7.86493e-07
7.86255e-07
7.86261e-07
7.86123e-07
7.86175e-07
4.58627e-05
8.11274e-07
5.76992e-07
5.63909e-07
5.62327e-07
5.62221e-07
5.62261e-07
5.62143e-07
5.62212e-07
4.81237e-05
6.63536e-07
4.44506e-07
4.31188e-07
4.28242e-07
4.27964e-07
4.28001e-07
4.27817e-07
4.27924e-07
4.90318e-05
5.68312e-07
3.6694e-07
3.56629e-07
3.54627e-07
3.54512e-07
3.54566e-07
3.54422e-07
3.54523e-07
4.92621e-05
5.02424e-07
3.18512e-07
3.12321e-07
3.08996e-07
3.08576e-07
3.08575e-07
3.08372e-07
3.08487e-07
4.7949e-05
4.51814e-07
2.89391e-07
2.83786e-07
2.82155e-07
2.81812e-07
2.81813e-07
2.81626e-07
2.8174e-07
4.14418e-05
4.05015e-07
2.69654e-07
2.64037e-07
2.62602e-07
2.62303e-07
2.62298e-07
2.62124e-07
2.62235e-07
2.92525e-05
3.57122e-07
2.54962e-07
2.52006e-07
2.50696e-07
2.50423e-07
2.50414e-07
2.50241e-07
2.50357e-07
2.5029e-07
1.69545e-05
3.12653e-07
2.44039e-07
2.42863e-07
2.41073e-07
2.4073e-07
2.40694e-07
2.40496e-07
2.40619e-07
2.40532e-07
8.49553e-06
2.76879e-07
2.3641e-07
2.34954e-07
2.33162e-07
2.32808e-07
2.3276e-07
2.32554e-07
2.32684e-07
2.32587e-07
3.91841e-06
2.50803e-07
2.29218e-07
2.28231e-07
2.26394e-07
2.26025e-07
2.25963e-07
2.25745e-07
2.25885e-07
2.25777e-07
1.7698e-06
2.30922e-07
2.22763e-07
2.22212e-07
2.20307e-07
2.19917e-07
2.1984e-07
2.1961e-07
2.19761e-07
2.1964e-07
8.45648e-07
2.15464e-07
2.16851e-07
2.16621e-07
2.14636e-07
2.14225e-07
2.14131e-07
2.13887e-07
2.14053e-07
2.13917e-07
4.64635e-07
2.05324e-07
2.11317e-07
2.11298e-07
2.09228e-07
2.08794e-07
2.08683e-07
2.08424e-07
2.08609e-07
2.08456e-07
3.04673e-07
1.97445e-07
2.06047e-07
2.06139e-07
2.03985e-07
2.03527e-07
2.03398e-07
2.03122e-07
2.03333e-07
2.03163e-07
2.31144e-07
1.91157e-07
2.00953e-07
2.01069e-07
1.98838e-07
1.98355e-07
1.98205e-07
1.97911e-07
1.9816e-07
1.9797e-07
1.92356e-07
1.86002e-07
1.95967e-07
1.96023e-07
1.93726e-07
1.93217e-07
1.93045e-07
1.92726e-07
1.93033e-07
1.92821e-07
1.69252e-07
1.81657e-07
1.91023e-07
1.9093e-07
1.88587e-07
1.88049e-07
1.8785e-07
1.87501e-07
1.87897e-07
1.8766e-07
1.54619e-07
1.77337e-07
1.86057e-07
1.85707e-07
1.83349e-07
1.82776e-07
1.82547e-07
1.82157e-07
1.82684e-07
1.8242e-07
1.45337e-07
1.73708e-07
1.81005e-07
1.80993e-07
1.78596e-07
1.77998e-07
1.77736e-07
1.77292e-07
1.77315e-07
1.77017e-07
1.39661e-07
1.70178e-07
1.75755e-07
1.75985e-07
1.73375e-07
1.72831e-07
1.72651e-07
1.72221e-07
1.72382e-07
1.7205e-07
1.36372e-07
1.66615e-07
1.70873e-07
1.70947e-07
1.68275e-07
1.67721e-07
1.67531e-07
1.67052e-07
1.67285e-07
1.66914e-07
1.3453e-07
1.629e-07
1.6553e-07
1.65668e-07
1.62925e-07
1.62365e-07
1.62168e-07
1.61637e-07
1.61818e-07
1.6139e-07
)
;

boundaryField
{
    fuel
    {
        type            fixedValue;
        value           uniform 0;
    }
    wall
    {
        type            zeroGradient;
    }
    outlet
    {
        type            zeroGradient;
    }
    frontAndBack
    {
        type            empty;
    }
    procBoundary2to0
    {
        type            processor;
        value           nonuniform List<scalar> 
12
(
1.669e-07
1.33316e-07
1.58902e-07
1.6002e-07
1.60071e-07
1.57249e-07
1.56688e-07
1.56493e-07
1.55909e-07
1.56151e-07
1.6138e-07
1.55672e-07
)
;
    }
    procBoundary2to3
    {
        type            processor;
        value           nonuniform List<scalar> 
25
(
3.04366e-06
1.89032e-06
1.18576e-06
7.86136e-07
5.62159e-07
4.27859e-07
3.54466e-07
3.08412e-07
2.81668e-07
2.62169e-07
2.62169e-07
2.50252e-07
2.40498e-07
2.32555e-07
2.25746e-07
2.1961e-07
2.13888e-07
2.08428e-07
2.03137e-07
1.97946e-07
1.92799e-07
1.8764e-07
1.82402e-07
1.77002e-07
1.72035e-07
)
;
    }
}


// ************************************************************************* //
