/*--------------------------------*- C++ -*----------------------------------*\
| =========                 |                                                 |
| \\      /  F ield         | OpenFOAM: The Open Source CFD Toolbox           |
|  \\    /   O peration     | Version:  dev                                   |
|   \\  /    A nd           | Web:      www.OpenFOAM.org                      |
|    \\/     M anipulation  |                                                 |
\*---------------------------------------------------------------------------*/
FoamFile
{
    version     2.0;
    format      ascii;
    class       volScalarField;
    location    "0.03";
    object      CO;
}
// * * * * * * * * * * * * * * * * * * * * * * * * * * * * * * * * * * * * * //

dimensions      [0 0 0 0 0 0 0];

internalField   nonuniform List<scalar> 
250
(
0.0544999
0.131245
0.134047
0.134225
0.134249
0.134257
0.134256
0.134258
0.134258
0.111928
0.153691
0.156396
0.156644
0.156687
0.156704
0.156702
0.156704
0.156705
0.144641
0.16051
0.162943
0.163289
0.163358
0.163387
0.163383
0.163388
0.163388
0.161661
0.163719
0.165762
0.16622
0.16632
0.166368
0.166359
0.166369
0.166367
0.170344
0.1657
0.167428
0.167993
0.168139
0.168211
0.168194
0.168213
0.168207
0.174848
0.167209
0.168645
0.169422
0.169513
0.169612
0.169585
0.169614
0.169603
0.177209
0.168249
0.169644
0.170579
0.170682
0.170838
0.170793
0.17084
0.170821
0.178379
0.169046
0.170516
0.171703
0.171893
0.172095
0.172032
0.172095
0.172069
0.178804
0.169653
0.171408
0.172725
0.17289
0.173134
0.173056
0.173133
0.1731
0.178706
0.170242
0.172264
0.173661
0.173825
0.174122
0.174022
0.174121
0.174078
0.178231
0.170729
0.172991
0.174669
0.174832
0.175176
0.175059
0.175174
0.175124
0.175155
0.17751
0.171123
0.173776
0.175642
0.175791
0.176176
0.176045
0.176173
0.176117
0.176152
0.176623
0.171553
0.174547
0.176564
0.176703
0.177121
0.17698
0.177119
0.177059
0.177097
0.175614
0.171955
0.175294
0.177435
0.177566
0.178012
0.177863
0.178011
0.177948
0.177988
0.174509
0.172411
0.176016
0.178253
0.178382
0.178846
0.178694
0.178848
0.178783
0.178825
0.173338
0.172915
0.176711
0.179018
0.179149
0.179624
0.179472
0.179629
0.179564
0.179606
0.172155
0.173432
0.17738
0.179729
0.179866
0.180346
0.180196
0.180354
0.18029
0.180333
0.171029
0.173962
0.178019
0.180388
0.180534
0.181009
0.180866
0.181023
0.180961
0.181003
0.170037
0.174451
0.178629
0.180993
0.181151
0.181616
0.181482
0.181636
0.181577
0.181619
0.169244
0.17497
0.179208
0.181544
0.181716
0.182165
0.182043
0.182192
0.182136
0.182178
0.168691
0.17551
0.179754
0.182041
0.182229
0.182656
0.182546
0.18269
0.182637
0.182678
0.168395
0.176064
0.180264
0.182484
0.182687
0.183087
0.182991
0.183131
0.183079
0.183116
0.168352
0.176634
0.180734
0.182822
0.183088
0.183416
0.183375
0.183469
0.183458
0.183484
0.168541
0.177258
0.181168
0.183112
0.183386
0.183691
0.183658
0.183749
0.183738
0.183757
0.168928
0.17784
0.181523
0.183328
0.183622
0.183891
0.183877
0.183958
0.183954
0.18397
0.169477
0.178373
0.181816
0.183475
0.183791
0.184021
0.184032
0.1841
0.184108
0.184122
)
;

boundaryField
{
    fuel
    {
        type            fixedValue;
        value           uniform 0;
    }
    wall
    {
        type            zeroGradient;
    }
    outlet
    {
        type            zeroGradient;
    }
    frontAndBack
    {
        type            empty;
    }
    procBoundary2to0
    {
        type            processor;
        value           nonuniform List<scalar> 
12
(
0.18397
0.170147
0.178833
0.182044
0.183553
0.18389
0.184079
0.184116
0.184171
0.18419
0.184122
0.1842
)
;
    }
    procBoundary2to3
    {
        type            processor;
        value           nonuniform List<scalar> 
25
(
0.134257
0.156704
0.163388
0.166369
0.168211
0.169611
0.170834
0.172086
0.173121
0.174105
0.174105
0.175151
0.176148
0.177093
0.177984
0.178821
0.179603
0.18033
0.181001
0.181617
0.182176
0.182678
0.183115
0.183483
0.183757
)
;
    }
}


// ************************************************************************* //
