/*--------------------------------*- C++ -*----------------------------------*\
| =========                 |                                                 |
| \\      /  F ield         | OpenFOAM: The Open Source CFD Toolbox           |
|  \\    /   O peration     | Version:  dev                                   |
|   \\  /    A nd           | Web:      www.OpenFOAM.org                      |
|    \\/     M anipulation  |                                                 |
\*---------------------------------------------------------------------------*/
FoamFile
{
    version     2.0;
    format      ascii;
    class       volScalarField;
    location    "0.03";
    object      H2O2;
}
// * * * * * * * * * * * * * * * * * * * * * * * * * * * * * * * * * * * * * //

dimensions      [0 0 0 0 0 0 0];

internalField   nonuniform List<scalar> 
1997
(
3.59974e-11
3.60445e-11
3.59963e-11
3.59794e-11
3.594e-11
3.59222e-11
3.59066e-11
3.59063e-11
3.5909e-11
3.59202e-11
3.59303e-11
3.59444e-11
3.59556e-11
3.59686e-11
3.59779e-11
3.59882e-11
3.5995e-11
3.60024e-11
3.49686e-11
3.50116e-11
3.49566e-11
3.49356e-11
3.4893e-11
3.48734e-11
3.48571e-11
3.48565e-11
3.48595e-11
3.48713e-11
3.48819e-11
3.48966e-11
3.49083e-11
3.49218e-11
3.49316e-11
3.49423e-11
3.49494e-11
3.49571e-11
3.49614e-11
3.49664e-11
3.49693e-11
3.49722e-11
3.49736e-11
3.49749e-11
3.49752e-11
3.4975e-11
3.49744e-11
3.49728e-11
3.39523e-11
3.399e-11
3.39288e-11
3.3904e-11
3.38589e-11
3.38377e-11
3.38209e-11
3.382e-11
3.3823e-11
3.38349e-11
3.38457e-11
3.38605e-11
3.38723e-11
3.3886e-11
3.38959e-11
3.39066e-11
3.39138e-11
3.39216e-11
3.3926e-11
3.39311e-11
3.39339e-11
3.39368e-11
3.39382e-11
3.39395e-11
3.39398e-11
3.39397e-11
3.3939e-11
3.39374e-11
3.39353e-11
3.39322e-11
3.39292e-11
3.39241e-11
3.39192e-11
3.39114e-11
3.39041e-11
3.38933e-11
3.38835e-11
3.38699e-11
3.38582e-11
3.38435e-11
3.29265e-11
3.2959e-11
3.28917e-11
3.28632e-11
3.28157e-11
3.27931e-11
3.27757e-11
3.27745e-11
3.27775e-11
3.27895e-11
3.28004e-11
3.28154e-11
3.28273e-11
3.28411e-11
3.2851e-11
3.28619e-11
3.28691e-11
3.28769e-11
3.28814e-11
3.28865e-11
3.28893e-11
3.28923e-11
3.28936e-11
3.28949e-11
3.28952e-11
3.28951e-11
3.28944e-11
3.28928e-11
3.28908e-11
3.28877e-11
3.28847e-11
3.28795e-11
3.28747e-11
3.28668e-11
3.28595e-11
3.28486e-11
3.28387e-11
3.2825e-11
3.28132e-11
3.27984e-11
3.27871e-11
3.2775e-11
3.27723e-11
3.27739e-11
3.27915e-11
3.28146e-11
3.28624e-11
3.28915e-11
3.29594e-11
3.29275e-11
3.18922e-11
3.19196e-11
3.18462e-11
3.18142e-11
3.17645e-11
3.17403e-11
3.17226e-11
3.17209e-11
3.17241e-11
3.17362e-11
3.17472e-11
3.17623e-11
3.17743e-11
3.17881e-11
3.17981e-11
3.1809e-11
3.18162e-11
3.18241e-11
3.18286e-11
3.18337e-11
3.18365e-11
3.18395e-11
3.18408e-11
3.18421e-11
3.18424e-11
3.18422e-11
3.18416e-11
3.184e-11
3.18381e-11
3.1835e-11
3.18321e-11
3.18269e-11
3.1822e-11
3.18141e-11
3.18068e-11
3.17959e-11
3.17859e-11
3.17722e-11
3.17603e-11
3.17454e-11
3.1734e-11
3.17218e-11
3.17191e-11
3.1721e-11
3.17391e-11
3.17636e-11
3.18138e-11
3.18464e-11
3.19203e-11
3.18935e-11
3.08505e-11
3.08727e-11
3.07937e-11
3.07582e-11
3.07064e-11
3.06808e-11
3.06627e-11
3.06607e-11
3.06638e-11
3.06761e-11
3.06872e-11
3.07023e-11
3.07144e-11
3.07283e-11
3.07383e-11
3.07492e-11
3.07564e-11
3.07643e-11
3.07689e-11
3.0774e-11
3.07768e-11
3.07797e-11
3.0781e-11
3.07823e-11
3.07826e-11
3.07824e-11
3.07818e-11
3.07802e-11
3.07784e-11
3.07753e-11
3.07724e-11
3.07672e-11
3.07624e-11
3.07545e-11
3.07472e-11
3.07362e-11
3.07263e-11
3.07125e-11
3.07005e-11
3.06855e-11
3.06742e-11
3.06619e-11
3.06592e-11
3.06615e-11
3.068e-11
3.07059e-11
3.07582e-11
3.07942e-11
3.08738e-11
3.08521e-11
2.98027e-11
2.98199e-11
2.97355e-11
2.96967e-11
2.96429e-11
2.96159e-11
2.95974e-11
2.95951e-11
2.95983e-11
2.96106e-11
2.96217e-11
2.96369e-11
2.96491e-11
2.9663e-11
2.9673e-11
2.96839e-11
2.96911e-11
2.96989e-11
2.97035e-11
2.97086e-11
2.97114e-11
2.97143e-11
2.97156e-11
2.97168e-11
2.97171e-11
2.9717e-11
2.97163e-11
2.97148e-11
2.97131e-11
2.971e-11
2.97071e-11
2.9702e-11
2.96971e-11
2.96893e-11
2.9682e-11
2.96711e-11
2.96611e-11
2.96473e-11
2.96353e-11
2.96203e-11
2.96089e-11
2.95967e-11
2.95939e-11
2.95965e-11
2.96154e-11
2.96427e-11
2.9697e-11
2.97363e-11
2.98213e-11
2.98046e-11
2.87502e-11
2.87626e-11
2.8673e-11
2.86311e-11
2.85754e-11
2.85472e-11
2.85284e-11
2.85257e-11
2.8529e-11
2.85412e-11
2.85525e-11
2.85677e-11
2.85798e-11
2.85938e-11
2.86037e-11
2.86146e-11
2.86217e-11
2.86295e-11
2.86341e-11
2.86392e-11
2.86419e-11
2.86448e-11
2.8646e-11
2.86473e-11
2.86475e-11
2.86474e-11
2.86468e-11
2.86452e-11
2.86436e-11
2.86406e-11
2.86377e-11
2.86326e-11
2.86278e-11
2.86201e-11
2.86128e-11
2.86019e-11
2.8592e-11
2.85782e-11
2.85662e-11
2.85512e-11
2.85398e-11
2.85277e-11
2.85248e-11
2.85278e-11
2.8547e-11
2.85755e-11
2.86316e-11
2.86741e-11
2.87643e-11
2.87524e-11
2.76947e-11
2.77024e-11
2.76078e-11
2.7563e-11
2.75057e-11
2.74763e-11
2.74572e-11
2.74542e-11
2.74576e-11
2.74697e-11
2.7481e-11
2.74962e-11
2.75083e-11
2.75222e-11
2.75321e-11
2.75429e-11
2.755e-11
2.75577e-11
2.75623e-11
2.75673e-11
2.75699e-11
2.75728e-11
2.7574e-11
2.75752e-11
2.75755e-11
2.75753e-11
2.75747e-11
2.75732e-11
2.75717e-11
2.75687e-11
2.75659e-11
2.75609e-11
2.75561e-11
2.75484e-11
2.75413e-11
2.75304e-11
2.75205e-11
2.75068e-11
2.74948e-11
2.74798e-11
2.74684e-11
2.74565e-11
2.74535e-11
2.74568e-11
2.74763e-11
2.7506e-11
2.75638e-11
2.76092e-11
2.77044e-11
2.7697e-11
2.66376e-11
2.66409e-11
2.65417e-11
2.64942e-11
2.64354e-11
2.64049e-11
2.63856e-11
2.63824e-11
2.63858e-11
2.63978e-11
2.64091e-11
2.64242e-11
2.64363e-11
2.64501e-11
2.64599e-11
2.64706e-11
2.64776e-11
2.64852e-11
2.64898e-11
2.64946e-11
2.64973e-11
2.65e-11
2.65012e-11
2.65024e-11
2.65027e-11
2.65025e-11
2.65019e-11
2.65004e-11
2.6499e-11
2.64961e-11
2.64933e-11
2.64883e-11
2.64837e-11
2.64761e-11
2.6469e-11
2.64582e-11
2.64485e-11
2.64348e-11
2.64229e-11
2.6408e-11
2.63966e-11
2.63849e-11
2.63818e-11
2.63854e-11
2.64051e-11
2.6436e-11
2.64952e-11
2.65433e-11
2.66431e-11
2.66402e-11
2.5548e-11
2.55487e-11
2.54464e-11
2.53974e-11
2.53378e-11
2.53066e-11
2.52877e-11
2.52847e-11
2.52887e-11
2.53011e-11
2.53131e-11
2.53287e-11
2.53412e-11
2.53554e-11
2.53655e-11
2.53766e-11
2.53839e-11
2.53918e-11
2.53966e-11
2.54017e-11
2.54044e-11
2.54074e-11
2.54087e-11
2.54099e-11
2.54102e-11
2.541e-11
2.54094e-11
2.54079e-11
2.54064e-11
2.54033e-11
2.54004e-11
2.53952e-11
2.53904e-11
2.53825e-11
2.53752e-11
2.5364e-11
2.5354e-11
2.53399e-11
2.53276e-11
2.53122e-11
2.53003e-11
2.52882e-11
2.52845e-11
2.52879e-11
2.53073e-11
2.53387e-11
2.53989e-11
2.54484e-11
2.55513e-11
2.55509e-11
2.44582e-11
2.4454e-11
2.43487e-11
2.42974e-11
2.4237e-11
2.4205e-11
2.41861e-11
2.41829e-11
2.41871e-11
2.41993e-11
2.42112e-11
2.42267e-11
2.42391e-11
2.42531e-11
2.42631e-11
2.42741e-11
2.42812e-11
2.4289e-11
2.42937e-11
2.42987e-11
2.43014e-11
2.43043e-11
2.43055e-11
2.43068e-11
2.4307e-11
2.43068e-11
2.43062e-11
2.43047e-11
2.43033e-11
2.43003e-11
2.42975e-11
2.42924e-11
2.42877e-11
2.42799e-11
2.42727e-11
2.42617e-11
2.42517e-11
2.42379e-11
2.42257e-11
2.42104e-11
2.41985e-11
2.41867e-11
2.41828e-11
2.41864e-11
2.42058e-11
2.4238e-11
2.42989e-11
2.43508e-11
2.44568e-11
2.44613e-11
2.33713e-11
2.33623e-11
2.32545e-11
2.32011e-11
2.31402e-11
2.31075e-11
2.30889e-11
2.30854e-11
2.30897e-11
2.31017e-11
2.31136e-11
2.31288e-11
2.31411e-11
2.31549e-11
2.31647e-11
2.31754e-11
2.31825e-11
2.31901e-11
2.31947e-11
2.31996e-11
2.32022e-11
2.3205e-11
2.32062e-11
2.32074e-11
2.32077e-11
2.32075e-11
2.32069e-11
2.32055e-11
2.32041e-11
2.32012e-11
2.31984e-11
2.31934e-11
2.31888e-11
2.31812e-11
2.31741e-11
2.31633e-11
2.31535e-11
2.31399e-11
2.31279e-11
2.31128e-11
2.3101e-11
2.30894e-11
2.30854e-11
2.30893e-11
2.31085e-11
2.31414e-11
2.32028e-11
2.32566e-11
2.33652e-11
2.33744e-11
2.23221e-11
2.23096e-11
2.21989e-11
2.2144e-11
2.20826e-11
2.20493e-11
2.20308e-11
2.20271e-11
2.20313e-11
2.20431e-11
2.20548e-11
2.20699e-11
2.20819e-11
2.20954e-11
2.2105e-11
2.21156e-11
2.21224e-11
2.21299e-11
2.21344e-11
2.21392e-11
2.21417e-11
2.21444e-11
2.21456e-11
2.21467e-11
2.21469e-11
2.21468e-11
2.21462e-11
2.21448e-11
2.21435e-11
2.21406e-11
2.2138e-11
2.21331e-11
2.21286e-11
2.21211e-11
2.21142e-11
2.21037e-11
2.20941e-11
2.20807e-11
2.20689e-11
2.20541e-11
2.20425e-11
2.20311e-11
2.20272e-11
2.20313e-11
2.20503e-11
2.20839e-11
2.21457e-11
2.2201e-11
2.23126e-11
2.23253e-11
2.12813e-11
2.12656e-11
2.11525e-11
2.10963e-11
2.10347e-11
2.10008e-11
2.09826e-11
2.09787e-11
2.09829e-11
2.09943e-11
2.10058e-11
2.10206e-11
2.10323e-11
2.10455e-11
2.10549e-11
2.10652e-11
2.10719e-11
2.10792e-11
2.10835e-11
2.10882e-11
2.10906e-11
2.10932e-11
2.10944e-11
2.10954e-11
2.10957e-11
2.10955e-11
2.1095e-11
2.10936e-11
2.10923e-11
2.10896e-11
2.1087e-11
2.10823e-11
2.10779e-11
2.10706e-11
2.10639e-11
2.10536e-11
2.10442e-11
2.10312e-11
2.10197e-11
2.10051e-11
2.09938e-11
2.09827e-11
2.09788e-11
2.09832e-11
2.1002e-11
2.1036e-11
2.10981e-11
2.11546e-11
2.12687e-11
2.12846e-11
2.02316e-11
2.02137e-11
2.00989e-11
2.00418e-11
1.99802e-11
1.99458e-11
1.99279e-11
1.99241e-11
1.99286e-11
1.99401e-11
1.9952e-11
1.99669e-11
1.9979e-11
1.99927e-11
2.00026e-11
2.00133e-11
2.00204e-11
2.00281e-11
2.00328e-11
2.00377e-11
2.00404e-11
2.00433e-11
2.00445e-11
2.00457e-11
2.0046e-11
2.00458e-11
2.00452e-11
2.00437e-11
2.00423e-11
2.00394e-11
2.00366e-11
2.00315e-11
2.00268e-11
2.00191e-11
2.00121e-11
2.00013e-11
1.99915e-11
1.99779e-11
1.99659e-11
1.99512e-11
1.99395e-11
1.99284e-11
1.99242e-11
1.99284e-11
1.99467e-11
1.99814e-11
2.00434e-11
2.01008e-11
2.02172e-11
2.02351e-11
1.91813e-11
1.91601e-11
1.90447e-11
1.89869e-11
1.89259e-11
1.88912e-11
1.88739e-11
1.88699e-11
1.88744e-11
1.88855e-11
1.88971e-11
1.89117e-11
1.89235e-11
1.89368e-11
1.89464e-11
1.89569e-11
1.89638e-11
1.89712e-11
1.89758e-11
1.89806e-11
1.89832e-11
1.89859e-11
1.89872e-11
1.89883e-11
1.89886e-11
1.89884e-11
1.89878e-11
1.89864e-11
1.8985e-11
1.89822e-11
1.89795e-11
1.89745e-11
1.897e-11
1.89625e-11
1.89556e-11
1.89451e-11
1.89356e-11
1.89224e-11
1.89107e-11
1.88964e-11
1.88849e-11
1.88742e-11
1.887e-11
1.88744e-11
1.88922e-11
1.89271e-11
1.89886e-11
1.90464e-11
1.91637e-11
1.91848e-11
1.81448e-11
1.81206e-11
1.80052e-11
1.79471e-11
1.78868e-11
1.7852e-11
1.78352e-11
1.78312e-11
1.78357e-11
1.78463e-11
1.78577e-11
1.78718e-11
1.78832e-11
1.78962e-11
1.79055e-11
1.79156e-11
1.79223e-11
1.79295e-11
1.79339e-11
1.79386e-11
1.79411e-11
1.79438e-11
1.79449e-11
1.79461e-11
1.79463e-11
1.79461e-11
1.79456e-11
1.79442e-11
1.79429e-11
1.79401e-11
1.79375e-11
1.79327e-11
1.79283e-11
1.79211e-11
1.79144e-11
1.79042e-11
1.7895e-11
1.78822e-11
1.78709e-11
1.78569e-11
1.78458e-11
1.78355e-11
1.78314e-11
1.78358e-11
1.78529e-11
1.78881e-11
1.79487e-11
1.8007e-11
1.81241e-11
1.81482e-11
1.71245e-11
1.70972e-11
1.69834e-11
1.69248e-11
1.68656e-11
1.68306e-11
1.68145e-11
1.68104e-11
1.68149e-11
1.6825e-11
1.68361e-11
1.68497e-11
1.68608e-11
1.68733e-11
1.68823e-11
1.68921e-11
1.68986e-11
1.69056e-11
1.69098e-11
1.69143e-11
1.69167e-11
1.69193e-11
1.69204e-11
1.69215e-11
1.69217e-11
1.69215e-11
1.6921e-11
1.69197e-11
1.69184e-11
1.69157e-11
1.69132e-11
1.69086e-11
1.69044e-11
1.68974e-11
1.68909e-11
1.68811e-11
1.68722e-11
1.68598e-11
1.68489e-11
1.68354e-11
1.68245e-11
1.68147e-11
1.68106e-11
1.68151e-11
1.68315e-11
1.68668e-11
1.69264e-11
1.69853e-11
1.71006e-11
1.71278e-11
1.6152e-11
1.61228e-11
1.60101e-11
1.59515e-11
1.58933e-11
1.58579e-11
1.58425e-11
1.58384e-11
1.58428e-11
1.58524e-11
1.58631e-11
1.58763e-11
1.5887e-11
1.5899e-11
1.59077e-11
1.59172e-11
1.59234e-11
1.59301e-11
1.59342e-11
1.59385e-11
1.59408e-11
1.59433e-11
1.59444e-11
1.59454e-11
1.59456e-11
1.59454e-11
1.59449e-11
1.59437e-11
1.59425e-11
1.59399e-11
1.59375e-11
1.5933e-11
1.5929e-11
1.59222e-11
1.5916e-11
1.59065e-11
1.58979e-11
1.5886e-11
1.58754e-11
1.58625e-11
1.58519e-11
1.58426e-11
1.58386e-11
1.5843e-11
1.58588e-11
1.58944e-11
1.59531e-11
1.60121e-11
1.6126e-11
1.61552e-11
1.52009e-11
1.51701e-11
1.50592e-11
1.50008e-11
1.49437e-11
1.49074e-11
1.4891e-11
1.48859e-11
1.48899e-11
1.48992e-11
1.49096e-11
1.49224e-11
1.49329e-11
1.49448e-11
1.49532e-11
1.49626e-11
1.49686e-11
1.49752e-11
1.4979e-11
1.49832e-11
1.49854e-11
1.49877e-11
1.49887e-11
1.49896e-11
1.49897e-11
1.49896e-11
1.49891e-11
1.49879e-11
1.49868e-11
1.49843e-11
1.49821e-11
1.49778e-11
1.49739e-11
1.49673e-11
1.49613e-11
1.4952e-11
1.49436e-11
1.49319e-11
1.49215e-11
1.49088e-11
1.48986e-11
1.48896e-11
1.4886e-11
1.48915e-11
1.49082e-11
1.49449e-11
1.50024e-11
1.50612e-11
1.51732e-11
1.5204e-11
1.42597e-11
1.42244e-11
1.41126e-11
1.40527e-11
1.39958e-11
1.39583e-11
1.39423e-11
1.3937e-11
1.39408e-11
1.39496e-11
1.39596e-11
1.3972e-11
1.39822e-11
1.39936e-11
1.40018e-11
1.40108e-11
1.40165e-11
1.40229e-11
1.40266e-11
1.40306e-11
1.40326e-11
1.40348e-11
1.40357e-11
1.40366e-11
1.40367e-11
1.40366e-11
1.40361e-11
1.4035e-11
1.4034e-11
1.40316e-11
1.40295e-11
1.40254e-11
1.40216e-11
1.40153e-11
1.40095e-11
1.40006e-11
1.39925e-11
1.39811e-11
1.39711e-11
1.39589e-11
1.3949e-11
1.39405e-11
1.3937e-11
1.39427e-11
1.39591e-11
1.39968e-11
1.40541e-11
1.41145e-11
1.42275e-11
1.42628e-11
1.33568e-11
1.33205e-11
1.32114e-11
1.31523e-11
1.30969e-11
1.3059e-11
1.30437e-11
1.30384e-11
1.30421e-11
1.30505e-11
1.30601e-11
1.3072e-11
1.30817e-11
1.30927e-11
1.31005e-11
1.31091e-11
1.31146e-11
1.31207e-11
1.31242e-11
1.3128e-11
1.313e-11
1.31321e-11
1.31329e-11
1.31337e-11
1.31339e-11
1.31337e-11
1.31333e-11
1.31322e-11
1.31312e-11
1.3129e-11
1.31269e-11
1.3123e-11
1.31195e-11
1.31134e-11
1.31079e-11
1.30993e-11
1.30916e-11
1.30807e-11
1.30711e-11
1.30594e-11
1.30499e-11
1.30419e-11
1.30384e-11
1.30441e-11
1.30597e-11
1.30979e-11
1.31537e-11
1.32134e-11
1.33235e-11
1.33598e-11
1.24727e-11
1.24325e-11
1.23229e-11
1.22679e-11
1.22167e-11
1.21886e-11
1.21741e-11
1.21688e-11
1.21725e-11
1.21803e-11
1.21896e-11
1.2201e-11
1.22103e-11
1.22207e-11
1.22281e-11
1.22364e-11
1.22416e-11
1.22474e-11
1.22508e-11
1.22544e-11
1.22562e-11
1.22582e-11
1.2259e-11
1.22598e-11
1.22599e-11
1.22598e-11
1.22594e-11
1.22584e-11
1.22574e-11
1.22553e-11
1.22534e-11
1.22496e-11
1.22463e-11
1.22405e-11
1.22352e-11
1.2227e-11
1.22197e-11
1.22093e-11
1.22002e-11
1.2189e-11
1.21798e-11
1.21722e-11
1.21689e-11
1.21745e-11
1.21893e-11
1.22179e-11
1.22695e-11
1.23249e-11
1.24354e-11
1.24756e-11
1.16265e-11
1.15858e-11
1.14797e-11
1.14261e-11
1.13768e-11
1.13489e-11
1.13352e-11
1.13299e-11
1.13335e-11
1.13409e-11
1.13498e-11
1.13606e-11
1.13695e-11
1.13794e-11
1.13865e-11
1.13943e-11
1.13993e-11
1.14048e-11
1.1408e-11
1.14114e-11
1.14132e-11
1.14151e-11
1.14158e-11
1.14165e-11
1.14166e-11
1.14165e-11
1.14161e-11
1.14152e-11
1.14143e-11
1.14122e-11
1.14104e-11
1.14069e-11
1.14037e-11
1.13982e-11
1.13932e-11
1.13854e-11
1.13784e-11
1.13686e-11
1.13599e-11
1.13492e-11
1.13405e-11
1.13333e-11
1.133e-11
1.13355e-11
1.13495e-11
1.1378e-11
1.14276e-11
1.14816e-11
1.15887e-11
1.16292e-11
1.08115e-11
1.07707e-11
1.06683e-11
1.06164e-11
1.05691e-11
1.05415e-11
1.05285e-11
1.05234e-11
1.05268e-11
1.05338e-11
1.05423e-11
1.05526e-11
1.0561e-11
1.05704e-11
1.05771e-11
1.05845e-11
1.05892e-11
1.05945e-11
1.05974e-11
1.06007e-11
1.06024e-11
1.06042e-11
1.06048e-11
1.06055e-11
1.06056e-11
1.06055e-11
1.06051e-11
1.06042e-11
1.06034e-11
1.06015e-11
1.05998e-11
1.05964e-11
1.05934e-11
1.05882e-11
1.05835e-11
1.05761e-11
1.05695e-11
1.05601e-11
1.05518e-11
1.05417e-11
1.05334e-11
1.05266e-11
1.05234e-11
1.05289e-11
1.0542e-11
1.05702e-11
1.06178e-11
1.06702e-11
1.07735e-11
1.08141e-11
1.00292e-11
9.98867e-12
9.89027e-12
9.84023e-12
9.79493e-12
9.76777e-12
9.75565e-12
9.75056e-12
9.75392e-12
9.76048e-12
9.76853e-12
9.77824e-12
9.78617e-12
9.7951e-12
9.8014e-12
9.80846e-12
9.8129e-12
9.81784e-12
9.82064e-12
9.82376e-12
9.82527e-12
9.82697e-12
9.82761e-12
9.82826e-12
9.82833e-12
9.82819e-12
9.82789e-12
9.82704e-12
9.82625e-12
9.82443e-12
9.82283e-12
9.81965e-12
9.81684e-12
9.81189e-12
9.80746e-12
9.80045e-12
9.79421e-12
9.78534e-12
9.77755e-12
9.76795e-12
9.76003e-12
9.7537e-12
9.75057e-12
9.75597e-12
9.7683e-12
9.79592e-12
9.84155e-12
9.8921e-12
9.99129e-12
1.00316e-11
9.27367e-12
9.23158e-12
9.13468e-12
9.0853e-12
9.04113e-12
9.01414e-12
9.00253e-12
8.99741e-12
9.00066e-12
9.00685e-12
9.01455e-12
9.02381e-12
9.03137e-12
9.0399e-12
9.04592e-12
9.05266e-12
9.05689e-12
9.0616e-12
9.06426e-12
9.06723e-12
9.06865e-12
9.07026e-12
9.07085e-12
9.07147e-12
9.07152e-12
9.07139e-12
9.0711e-12
9.0703e-12
9.06957e-12
9.06783e-12
9.06633e-12
9.0633e-12
9.06063e-12
9.05591e-12
9.05169e-12
9.045e-12
9.03905e-12
9.03058e-12
9.02312e-12
9.01396e-12
9.00639e-12
9.00042e-12
8.99739e-12
9.00282e-12
9.01464e-12
9.04207e-12
9.08655e-12
9.13645e-12
9.23414e-12
9.27603e-12
8.56051e-12
8.51911e-12
8.42653e-12
8.37937e-12
8.33732e-12
8.31117e-12
8.30033e-12
8.29531e-12
8.29839e-12
8.30417e-12
8.31141e-12
8.3201e-12
8.32718e-12
8.33521e-12
8.34085e-12
8.3472e-12
8.35117e-12
8.3556e-12
8.35808e-12
8.36087e-12
8.36219e-12
8.3637e-12
8.36425e-12
8.36482e-12
8.36487e-12
8.36475e-12
8.36448e-12
8.36373e-12
8.36305e-12
8.36142e-12
8.36002e-12
8.35717e-12
8.35468e-12
8.35023e-12
8.34628e-12
8.33999e-12
8.33441e-12
8.32643e-12
8.31943e-12
8.31082e-12
8.3037e-12
8.29816e-12
8.29522e-12
8.3006e-12
8.31163e-12
8.33819e-12
8.38054e-12
8.4282e-12
8.52155e-12
8.5627e-12
7.8837e-12
7.84328e-12
7.75519e-12
7.70868e-12
7.67056e-12
7.64542e-12
7.63535e-12
7.63044e-12
7.63334e-12
7.63868e-12
7.64547e-12
7.65355e-12
7.66012e-12
7.66764e-12
7.67292e-12
7.67887e-12
7.68257e-12
7.68673e-12
7.68903e-12
7.69165e-12
7.69288e-12
7.69429e-12
7.69479e-12
7.69532e-12
7.69536e-12
7.69525e-12
7.695e-12
7.69431e-12
7.69367e-12
7.69215e-12
7.69085e-12
7.68818e-12
7.68586e-12
7.6817e-12
7.67801e-12
7.67211e-12
7.66689e-12
7.65942e-12
7.65289e-12
7.64485e-12
7.63819e-12
7.63311e-12
7.63024e-12
7.63559e-12
7.64584e-12
7.67136e-12
7.7098e-12
7.75674e-12
7.8456e-12
7.88571e-12
7.24395e-12
7.20478e-12
7.1213e-12
7.07726e-12
7.04145e-12
7.01743e-12
7.00817e-12
7.0034e-12
7.00609e-12
7.01093e-12
7.01734e-12
7.02478e-12
7.03072e-12
7.03774e-12
7.04266e-12
7.04822e-12
7.05166e-12
7.05554e-12
7.05767e-12
7.06012e-12
7.06125e-12
7.06256e-12
7.06302e-12
7.06352e-12
7.06355e-12
7.06344e-12
7.06322e-12
7.06257e-12
7.06199e-12
7.06057e-12
7.05937e-12
7.05688e-12
7.05473e-12
7.05084e-12
7.04742e-12
7.0419e-12
7.03705e-12
7.03007e-12
7.02405e-12
7.01664e-12
7.01042e-12
7.00584e-12
7.00299e-12
7.00837e-12
7.01782e-12
7.04217e-12
7.07829e-12
7.12273e-12
7.20695e-12
7.24578e-12
6.64175e-12
6.60406e-12
6.52527e-12
6.48381e-12
6.45034e-12
6.42757e-12
6.41912e-12
6.41454e-12
6.41703e-12
6.42121e-12
6.42745e-12
6.43421e-12
6.43932e-12
6.44585e-12
6.45041e-12
6.45558e-12
6.45876e-12
6.46237e-12
6.46434e-12
6.46661e-12
6.46765e-12
6.46887e-12
6.46929e-12
6.46974e-12
6.46977e-12
6.46967e-12
6.46946e-12
6.46887e-12
6.46833e-12
6.46702e-12
6.46591e-12
6.4636e-12
6.46162e-12
6.458e-12
6.45484e-12
6.44971e-12
6.44521e-12
6.43872e-12
6.43333e-12
6.42664e-12
6.42075e-12
6.41677e-12
6.4138e-12
6.41928e-12
6.4279e-12
6.45097e-12
6.48474e-12
6.52658e-12
6.60608e-12
6.64339e-12
6.07501e-12
6.03655e-12
5.95958e-12
5.91938e-12
5.88739e-12
5.86546e-12
5.85759e-12
5.85316e-12
5.85547e-12
5.85854e-12
5.86519e-12
5.87133e-12
5.87525e-12
5.88135e-12
5.88559e-12
5.89043e-12
5.89338e-12
5.89674e-12
5.89855e-12
5.90066e-12
5.90161e-12
5.90273e-12
5.9031e-12
5.90351e-12
5.90352e-12
5.90343e-12
5.90325e-12
5.9027e-12
5.90222e-12
5.901e-12
5.89999e-12
5.89785e-12
5.89602e-12
5.89265e-12
5.88971e-12
5.88493e-12
5.88073e-12
5.87467e-12
5.87018e-12
5.86425e-12
5.85849e-12
5.85518e-12
5.85197e-12
5.85768e-12
5.86573e-12
5.88794e-12
5.92021e-12
5.96077e-12
6.03844e-12
6.07652e-12
5.54854e-12
5.51189e-12
5.43951e-12
5.40194e-12
5.3723e-12
5.35174e-12
5.34473e-12
5.34067e-12
5.34305e-12
5.34414e-12
5.35211e-12
5.35785e-12
5.35982e-12
5.36544e-12
5.36934e-12
5.37379e-12
5.3765e-12
5.37959e-12
5.38125e-12
5.38319e-12
5.38405e-12
5.38507e-12
5.38541e-12
5.38578e-12
5.38579e-12
5.3857e-12
5.38554e-12
5.38504e-12
5.38461e-12
5.38349e-12
5.38257e-12
5.3806e-12
5.37893e-12
5.37583e-12
5.37314e-12
5.36873e-12
5.36487e-12
5.35928e-12
5.35662e-12
5.35133e-12
5.34562e-12
5.34276e-12
5.33943e-12
5.34477e-12
5.35195e-12
5.37275e-12
5.40266e-12
5.44055e-12
5.51361e-12
5.54985e-12
5.05344e-12
5.0181e-12
4.94965e-12
4.91445e-12
4.88698e-12
4.86776e-12
4.86156e-12
4.85794e-12
4.86063e-12
4.86696e-12
4.86916e-12
4.875e-12
4.88241e-12
4.88756e-12
4.89112e-12
4.8952e-12
4.89767e-12
4.9005e-12
4.902e-12
4.90377e-12
4.90454e-12
4.90548e-12
4.90577e-12
4.90611e-12
4.90611e-12
4.90603e-12
4.90589e-12
4.90543e-12
4.90505e-12
4.90404e-12
4.90321e-12
4.90141e-12
4.89989e-12
4.89705e-12
4.89461e-12
4.89056e-12
4.88704e-12
4.88192e-12
4.87527e-12
4.869e-12
4.8646e-12
4.86031e-12
4.85865e-12
4.86156e-12
4.8679e-12
4.88734e-12
4.91505e-12
4.95055e-12
5.01964e-12
5.05457e-12
4.60215e-12
4.56903e-12
4.50492e-12
4.47239e-12
4.44722e-12
4.42943e-12
4.42402e-12
4.42079e-12
4.42353e-12
4.42801e-12
4.43144e-12
4.43689e-12
4.44253e-12
4.44721e-12
4.45044e-12
4.45415e-12
4.45638e-12
4.45895e-12
4.4603e-12
4.46191e-12
4.4626e-12
4.46344e-12
4.46369e-12
4.464e-12
4.46399e-12
4.46392e-12
4.46379e-12
4.46339e-12
4.46305e-12
4.46214e-12
4.4614e-12
4.45977e-12
4.45841e-12
4.45583e-12
4.45361e-12
4.44993e-12
4.44674e-12
4.44209e-12
4.43717e-12
4.43145e-12
4.42714e-12
4.42319e-12
4.42152e-12
4.42394e-12
4.42949e-12
4.44747e-12
4.47286e-12
4.50565e-12
4.57036e-12
4.60308e-12
4.18795e-12
4.15723e-12
4.09729e-12
4.06743e-12
4.04452e-12
4.02814e-12
4.02342e-12
4.02048e-12
4.02306e-12
4.02646e-12
4.03024e-12
4.0351e-12
4.03955e-12
4.04378e-12
4.04668e-12
4.05004e-12
4.05203e-12
4.05435e-12
4.05555e-12
4.05699e-12
4.0576e-12
4.05835e-12
4.05857e-12
4.05883e-12
4.05882e-12
4.05875e-12
4.05865e-12
4.05829e-12
4.058e-12
4.05718e-12
4.05654e-12
4.05507e-12
4.05386e-12
4.05153e-12
4.04955e-12
4.04623e-12
4.04336e-12
4.03916e-12
4.03516e-12
4.03018e-12
4.026e-12
4.02268e-12
4.02083e-12
4.02326e-12
4.02811e-12
4.04464e-12
4.06777e-12
4.09784e-12
4.15835e-12
4.18867e-12
3.80398e-12
3.77533e-12
3.72602e-12
3.69884e-12
3.67809e-12
3.6631e-12
3.65898e-12
3.65622e-12
3.65853e-12
3.66127e-12
3.6649e-12
3.6691e-12
3.67278e-12
3.67656e-12
3.67914e-12
3.68214e-12
3.6839e-12
3.68597e-12
3.68702e-12
3.6883e-12
3.68883e-12
3.68949e-12
3.68966e-12
3.68989e-12
3.68987e-12
3.68981e-12
3.68973e-12
3.68942e-12
3.68918e-12
3.68846e-12
3.6879e-12
3.6866e-12
3.68553e-12
3.68346e-12
3.68171e-12
3.67873e-12
3.67619e-12
3.67243e-12
3.66902e-12
3.66471e-12
3.66086e-12
3.6581e-12
3.65623e-12
3.65872e-12
3.66297e-12
3.67808e-12
3.69903e-12
3.72639e-12
3.77622e-12
3.80449e-12
3.46161e-12
3.4356e-12
3.39036e-12
3.3658e-12
3.34713e-12
3.3335e-12
3.32985e-12
3.32723e-12
3.32921e-12
3.33147e-12
3.33471e-12
3.3383e-12
3.3414e-12
3.34474e-12
3.347e-12
3.34965e-12
3.35119e-12
3.35301e-12
3.35392e-12
3.35504e-12
3.35548e-12
3.35605e-12
3.35619e-12
3.35638e-12
3.35635e-12
3.3563e-12
3.35624e-12
3.35598e-12
3.35578e-12
3.35516e-12
3.35469e-12
3.35355e-12
3.35263e-12
3.3508e-12
3.34928e-12
3.34665e-12
3.34441e-12
3.3411e-12
3.33815e-12
3.33441e-12
3.331e-12
3.32871e-12
3.32699e-12
3.32951e-12
3.33325e-12
3.34698e-12
3.36582e-12
3.39053e-12
3.43624e-12
3.46191e-12
3.15123e-12
3.12724e-12
3.08949e-12
3.06751e-12
3.05081e-12
3.03848e-12
3.03522e-12
3.03269e-12
3.03432e-12
3.03618e-12
3.03895e-12
3.04195e-12
3.04459e-12
3.04749e-12
3.04944e-12
3.05175e-12
3.05306e-12
3.05464e-12
3.0554e-12
3.05636e-12
3.05672e-12
3.0572e-12
3.0573e-12
3.05745e-12
3.05741e-12
3.05737e-12
3.05733e-12
3.05711e-12
3.05697e-12
3.05644e-12
3.05606e-12
3.05508e-12
3.05431e-12
3.05273e-12
3.05143e-12
3.04913e-12
3.04721e-12
3.04433e-12
3.04178e-12
3.03857e-12
3.03563e-12
3.03377e-12
3.03228e-12
3.03478e-12
3.03811e-12
3.05051e-12
3.06735e-12
3.08945e-12
3.12765e-12
3.1513e-12
2.8778e-12
2.85637e-12
2.82272e-12
2.80315e-12
2.78831e-12
2.77724e-12
2.77429e-12
2.77183e-12
2.77311e-12
2.77457e-12
2.77685e-12
2.77931e-12
2.78151e-12
2.78399e-12
2.78563e-12
2.7876e-12
2.78869e-12
2.79002e-12
2.79064e-12
2.79144e-12
2.79171e-12
2.7921e-12
2.79216e-12
2.79227e-12
2.79222e-12
2.79219e-12
2.79217e-12
2.79201e-12
2.79191e-12
2.79148e-12
2.79119e-12
2.79037e-12
2.78975e-12
2.78841e-12
2.78733e-12
2.78538e-12
2.78375e-12
2.7813e-12
2.77914e-12
2.77642e-12
2.77395e-12
2.77249e-12
2.77129e-12
2.77375e-12
2.77675e-12
2.78785e-12
2.80282e-12
2.82248e-12
2.85651e-12
2.87764e-12
2.63777e-12
2.61882e-12
2.58929e-12
2.57201e-12
2.5589e-12
2.54905e-12
2.54633e-12
2.54394e-12
2.54485e-12
2.54592e-12
2.54772e-12
)
;

boundaryField
{
    fuel
    {
        type            fixedValue;
        value           nonuniform 0();
    }
    wall
    {
        type            zeroGradient;
    }
    outlet
    {
        type            zeroGradient;
    }
    frontAndBack
    {
        type            empty;
    }
    procBoundary2to0
    {
        type            processor;
        value           nonuniform List<scalar> 
53
(
3.69914e-11
3.7044e-11
3.70024e-11
3.69895e-11
3.69527e-11
3.69365e-11
3.69214e-11
3.69215e-11
3.69241e-11
3.69351e-11
3.6945e-11
3.6959e-11
3.69699e-11
3.69827e-11
3.69919e-11
3.7002e-11
3.70088e-11
3.70161e-11
3.6007e-11
3.6007e-11
3.60118e-11
3.60145e-11
3.60173e-11
3.60186e-11
3.60198e-11
3.60201e-11
3.60199e-11
3.60193e-11
3.60178e-11
3.49712e-11
3.49712e-11
3.49681e-11
3.49651e-11
3.496e-11
3.49551e-11
3.49474e-11
3.49403e-11
3.49295e-11
3.49198e-11
3.49064e-11
3.48949e-11
3.48804e-11
3.3833e-11
3.3833e-11
3.38212e-11
3.38186e-11
3.38198e-11
3.3837e-11
3.38585e-11
3.3904e-11
3.39293e-11
3.39911e-11
3.39538e-11
)
;
    }
    procBoundary2to3
    {
        type            processor;
        value           nonuniform List<scalar> 
51
(
2.54939e-12
2.55117e-12
2.55322e-12
2.55455e-12
2.55618e-12
2.55704e-12
2.55814e-12
2.5586e-12
2.55925e-12
2.55943e-12
2.55972e-12
2.55973e-12
2.5598e-12
2.55975e-12
2.55972e-12
2.55972e-12
2.55961e-12
2.55957e-12
2.55924e-12
2.55904e-12
2.55839e-12
2.55792e-12
2.55682e-12
2.55597e-12
2.55435e-12
2.55304e-12
2.551e-12
2.54924e-12
2.547e-12
2.545e-12
2.54392e-12
2.54304e-12
2.54544e-12
2.54818e-12
2.55805e-12
2.57127e-12
2.58862e-12
2.61848e-12
2.63718e-12
2.4302e-12
2.41372e-12
2.3882e-12
2.37315e-12
2.36166e-12
2.35297e-12
2.35043e-12
2.34808e-12
2.34863e-12
2.3493e-12
2.54939e-12
2.35059e-12
)
;
    }
}


// ************************************************************************* //
