/*--------------------------------*- C++ -*----------------------------------*\
| =========                 |                                                 |
| \\      /  F ield         | OpenFOAM: The Open Source CFD Toolbox           |
|  \\    /   O peration     | Version:  dev                                   |
|   \\  /    A nd           | Web:      www.OpenFOAM.org                      |
|    \\/     M anipulation  |                                                 |
\*---------------------------------------------------------------------------*/
FoamFile
{
    version     2.0;
    format      ascii;
    class       volScalarField;
    location    "0.03";
    object      HO2;
}
// * * * * * * * * * * * * * * * * * * * * * * * * * * * * * * * * * * * * * //

dimensions      [0 0 0 0 0 0 0];

internalField   nonuniform List<scalar> 
250
(
9.63266e-05
5.91691e-06
4.13518e-06
4.05558e-06
4.04568e-06
4.04432e-06
4.04728e-06
4.04653e-06
4.04706e-06
0.00012318
2.35732e-06
1.35703e-06
1.33318e-06
1.32975e-06
1.32925e-06
1.32953e-06
1.32967e-06
1.32949e-06
6.19768e-05
9.68094e-07
4.55286e-07
4.47817e-07
4.45919e-07
4.45874e-07
4.45672e-07
4.45968e-07
4.45723e-07
2.01692e-05
3.76209e-07
1.61803e-07
1.5961e-07
1.58223e-07
1.58329e-07
1.58113e-07
1.58329e-07
1.58164e-07
5.84331e-06
1.46711e-07
6.12149e-08
6.12327e-08
5.97408e-08
5.98699e-08
5.97195e-08
5.98467e-08
5.97561e-08
1.68959e-06
5.57696e-08
2.46247e-08
2.38877e-08
2.40501e-08
2.42078e-08
2.41036e-08
2.41847e-08
2.41346e-08
5.14044e-07
2.41534e-08
1.04833e-08
1.03387e-08
1.03682e-08
1.03455e-08
1.03178e-08
1.03275e-08
1.03157e-08
1.66717e-07
1.1015e-08
4.74136e-09
4.61234e-09
4.31144e-09
4.30814e-09
4.29449e-09
4.2985e-09
4.29423e-09
5.65622e-08
5.36359e-09
2.11169e-09
2.14079e-09
2.00598e-09
2.00745e-09
2.0006e-09
2.00184e-09
2.00066e-09
1.94407e-08
2.46542e-09
9.63555e-10
1.06157e-09
9.87862e-10
9.84127e-10
9.83485e-10
9.80222e-10
9.81878e-10
6.66698e-09
1.17769e-09
4.9648e-10
5.22866e-10
4.82835e-10
4.7896e-10
4.79899e-10
4.7713e-10
4.78663e-10
4.76632e-10
2.31851e-09
6.32053e-10
2.62047e-10
2.74757e-10
2.55644e-10
2.5261e-10
2.53881e-10
2.51846e-10
2.53039e-10
2.51764e-10
8.4009e-10
3.32378e-10
1.52181e-10
1.59865e-10
1.51542e-10
1.49235e-10
1.50469e-10
1.48993e-10
1.49879e-10
1.49114e-10
3.25759e-10
1.90865e-10
1.0019e-10
1.05541e-10
1.0279e-10
1.00966e-10
1.02073e-10
1.00972e-10
1.0163e-10
1.01152e-10
1.47442e-10
1.13357e-10
7.47204e-11
7.907e-11
7.91605e-11
7.76249e-11
7.8615e-11
7.77457e-11
7.82565e-11
7.79281e-11
8.93999e-11
7.21648e-11
6.15575e-11
6.54639e-11
6.69853e-11
6.56028e-11
6.65162e-11
6.5777e-11
6.62027e-11
6.59488e-11
7.38216e-11
5.20389e-11
5.41445e-11
5.77879e-11
6.00248e-11
5.87031e-11
5.95814e-11
5.89033e-11
5.92888e-11
5.90669e-11
7.47032e-11
4.20938e-11
4.94232e-11
5.28151e-11
5.54095e-11
5.40858e-11
5.4963e-11
5.42997e-11
5.4676e-11
5.44609e-11
8.71918e-11
3.77186e-11
4.59568e-11
4.90368e-11
5.18087e-11
5.04411e-11
5.1343e-11
5.06626e-11
5.10525e-11
5.08272e-11
1.1479e-10
3.57492e-11
4.30622e-11
4.57403e-11
4.85982e-11
4.71589e-11
4.81056e-11
4.73842e-11
4.78079e-11
4.75599e-11
1.63405e-10
3.54401e-11
4.04093e-11
4.25809e-11
4.5479e-11
4.39489e-11
4.49588e-11
4.41749e-11
4.46547e-11
4.43808e-11
2.38096e-10
3.64216e-11
3.78303e-11
3.93759e-11
4.23027e-11
4.06618e-11
4.17586e-11
4.08854e-11
4.14529e-11
4.11754e-11
3.411e-10
3.85112e-11
3.52307e-11
3.64256e-11
3.89867e-11
3.75846e-11
3.84249e-11
3.78043e-11
3.81225e-11
3.78935e-11
4.71272e-10
4.18746e-11
3.25181e-11
3.32553e-11
3.5885e-11
3.42822e-11
3.53032e-11
3.45633e-11
3.49985e-11
3.47727e-11
6.25395e-10
4.60854e-11
2.99288e-11
3.01025e-11
3.26652e-11
3.09835e-11
3.20679e-11
3.12635e-11
3.1762e-11
3.1517e-11
7.96889e-10
5.10796e-11
2.73135e-11
2.68753e-11
2.93441e-11
2.76052e-11
2.86717e-11
2.7884e-11
2.83414e-11
2.80548e-11
)
;

boundaryField
{
    fuel
    {
        type            fixedValue;
        value           uniform 0;
    }
    wall
    {
        type            zeroGradient;
    }
    outlet
    {
        type            zeroGradient;
    }
    frontAndBack
    {
        type            empty;
    }
    procBoundary2to0
    {
        type            processor;
        value           nonuniform List<scalar> 
12
(
3.1519e-11
9.2447e-10
5.45041e-11
2.4628e-11
2.3608e-11
2.59519e-11
2.41872e-11
2.52722e-11
2.44645e-11
2.49432e-11
2.80558e-11
2.46409e-11
)
;
    }
    procBoundary2to3
    {
        type            processor;
        value           nonuniform List<scalar> 
25
(
4.04454e-06
1.32924e-06
4.45783e-07
1.58231e-07
5.97947e-08
2.41567e-08
1.03178e-08
4.29456e-09
2.00002e-09
9.79723e-10
9.79723e-10
4.7808e-10
2.52547e-10
1.49494e-10
1.01332e-10
7.80155e-11
6.59941e-11
5.90929e-11
5.44778e-11
5.08394e-11
4.75693e-11
4.43882e-11
4.11809e-11
3.78972e-11
3.4776e-11
)
;
    }
}


// ************************************************************************* //
