/*--------------------------------*- C++ -*----------------------------------*\
| =========                 |                                                 |
| \\      /  F ield         | OpenFOAM: The Open Source CFD Toolbox           |
|  \\    /   O peration     | Version:  dev                                   |
|   \\  /    A nd           | Web:      www.OpenFOAM.org                      |
|    \\/     M anipulation  |                                                 |
\*---------------------------------------------------------------------------*/
FoamFile
{
    version     2.0;
    format      ascii;
    class       volScalarField;
    location    "0.03";
    object      N2;
}
// * * * * * * * * * * * * * * * * * * * * * * * * * * * * * * * * * * * * * //

dimensions      [0 0 0 0 0 0 0];

internalField   nonuniform List<scalar> 
250
(
0.00496747
0.00050957
4.97176e-05
7.10788e-06
3.42316e-06
3.13927e-06
2.98336e-06
2.96205e-06
2.86492e-06
0.0141809
0.000965951
9.35283e-05
1.36332e-05
6.69041e-06
6.1503e-06
5.85108e-06
5.80883e-06
5.61817e-06
0.0231819
0.00144819
0.000141365
2.12484e-05
1.07262e-05
9.90111e-06
9.42775e-06
9.36324e-06
9.05008e-06
0.0301799
0.00192065
0.000192168
3.01255e-05
1.57774e-05
1.46405e-05
1.39565e-05
1.38669e-05
1.33918e-05
0.0337339
0.00234366
0.000244078
4.03868e-05
2.20979e-05
2.06316e-05
1.96941e-05
1.95767e-05
1.88881e-05
0.0337716
0.00268968
0.000295255
5.27159e-05
3.05901e-05
2.87901e-05
2.7527e-05
2.73854e-05
2.63933e-05
0.0314359
0.00294718
0.000344156
6.63406e-05
4.06192e-05
3.84896e-05
3.68588e-05
3.66884e-05
3.533e-05
0.0279168
0.00311707
0.000391956
8.19894e-05
5.38227e-05
5.15276e-05
4.94545e-05
4.92875e-05
4.74202e-05
0.0242512
0.00320811
0.000434471
0.000101365
6.96406e-05
6.70972e-05
6.45058e-05
6.43227e-05
6.18502e-05
0.0208038
0.00323226
0.000475681
0.00012652
9.26797e-05
8.99101e-05
8.66094e-05
8.64036e-05
8.30509e-05
0.0177339
0.00320277
0.000518246
0.000152932
0.000118192
0.000115273
0.000111228
0.000111015
0.00010667
0.000107875
0.0150824
0.00313306
0.000560783
0.000185956
0.000153856
0.000151206
0.000146255
0.000146125
0.000140379
0.000141758
0.0128345
0.00303623
0.000599986
0.000230757
0.000201001
0.000198455
0.000192319
0.000192189
0.000184623
0.000186324
0.0109532
0.00292491
0.000649627
0.000287052
0.000261496
0.000259165
0.000251614
0.000251468
0.000241565
0.000243783
0.00939539
0.00279797
0.000709883
0.00035818
0.000338944
0.000336936
0.000327708
0.000327523
0.000314602
0.000317573
0.00811951
0.00266643
0.000785047
0.000448364
0.000437817
0.000436245
0.000425053
0.000424806
0.000407956
0.000411979
0.00708852
0.00257003
0.000881079
0.000562899
0.000563647
0.000562629
0.000549166
0.000548868
0.000526843
0.00053229
0.00627015
0.0025004
0.00100491
0.000708383
0.000723235
0.000722891
0.000706837
0.000706588
0.000677662
0.000684999
0.00563783
0.00246657
0.00116475
0.000893
0.000924875
0.000925326
0.000906352
0.000906424
0.000868218
0.000878023
0.00517065
0.00247736
0.00137026
0.00112684
0.0011786
0.00117998
0.00115773
0.00115865
0.00110795
0.00112095
0.00485308
0.00254173
0.00163281
0.00142231
0.00149646
0.00149891
0.00147296
0.00147558
0.00140821
0.0014253
0.00467473
0.00268889
0.00196559
0.00179454
0.0018928
0.00189648
0.00186624
0.0018717
0.00178248
0.00180482
0.00462893
0.00289634
0.0023836
0.00219996
0.00232549
0.00232949
0.00229483
0.00230453
0.00224671
0.00227577
0.00471431
0.00319
0.00290719
0.00270996
0.00288589
0.00288119
0.00282863
0.00283578
0.00275151
0.00278814
0.00493622
0.00358098
0.00348187
0.00330829
0.00352225
0.00351481
0.0034527
0.00346389
0.00335732
0.00340311
0.00531127
0.0040838
0.00420726
0.00402773
0.00428425
0.00427276
0.0041987
0.00421453
0.00409923
0.00415786
)
;

boundaryField
{
    fuel
    {
        type            fixedValue;
        value           uniform 0;
    }
    wall
    {
        type            zeroGradient;
    }
    outlet
    {
        type            zeroGradient;
    }
    frontAndBack
    {
        type            empty;
    }
    procBoundary2to0
    {
        type            processor;
        value           nonuniform List<scalar> 
12
(
0.00340257
0.00583673
0.00471363
0.00505468
0.00488876
0.00519242
0.00517525
0.0050859
0.00510701
0.00496499
0.00415664
0.00503718
)
;
    }
    procBoundary2to3
    {
        type            processor;
        value           nonuniform List<scalar> 
25
(
2.86955e-06
5.6292e-06
9.07223e-06
1.3432e-05
1.89576e-05
2.65147e-05
3.55282e-05
4.77573e-05
6.23848e-05
8.39509e-05
8.39509e-05
0.000107192
0.000141262
0.000185963
0.000243527
0.000317404
0.000411878
0.000532239
0.00068498
0.000878015
0.00112092
0.00142523
0.00180465
0.00227545
0.00278772
)
;
    }
}


// ************************************************************************* //
