/*--------------------------------*- C++ -*----------------------------------*\
| =========                 |                                                 |
| \\      /  F ield         | OpenFOAM: The Open Source CFD Toolbox           |
|  \\    /   O peration     | Version:  dev                                   |
|   \\  /    A nd           | Web:      www.OpenFOAM.org                      |
|    \\/     M anipulation  |                                                 |
\*---------------------------------------------------------------------------*/
FoamFile
{
    version     2.0;
    format      ascii;
    class       volScalarField;
    location    "0.03";
    object      OH;
}
// * * * * * * * * * * * * * * * * * * * * * * * * * * * * * * * * * * * * * //

dimensions      [0 0 0 0 0 0 0];

internalField   nonuniform List<scalar> 
250
(
1.04665e-07
0.000240144
0.000283537
0.000285628
0.000285803
0.000285848
0.000285851
0.000285923
0.000285892
2.09346e-07
0.000211789
0.000246208
0.000248216
0.00024835
0.0002484
0.000248354
0.000248437
0.000248379
3.16661e-07
0.000141438
0.00016788
0.000169926
0.000169919
0.000169998
0.000169919
0.000170019
0.000169943
2.20178e-07
9.32326e-05
0.000113579
0.000115734
0.000115538
0.000115639
0.000115554
0.000115645
0.000115577
1.4109e-07
6.57047e-05
8.19816e-05
8.44395e-05
8.39217e-05
8.40267e-05
8.39589e-05
8.40248e-05
8.39767e-05
1.12678e-07
4.9344e-05
6.41245e-05
6.57471e-05
6.61368e-05
6.62557e-05
6.62102e-05
6.62528e-05
6.62244e-05
1.40187e-07
4.09974e-05
5.39663e-05
5.57343e-05
5.60903e-05
5.60259e-05
5.60523e-05
5.60268e-05
5.60328e-05
2.71607e-07
3.63686e-05
4.80919e-05
4.95666e-05
4.95895e-05
4.95019e-05
4.95608e-05
4.95142e-05
4.95351e-05
6.83607e-07
3.3942e-05
4.42078e-05
4.58338e-05
4.61015e-05
4.59883e-05
4.60725e-05
4.60092e-05
4.60411e-05
1.81977e-06
3.24414e-05
4.16949e-05
4.3497e-05
4.38938e-05
4.37337e-05
4.38488e-05
4.37604e-05
4.38064e-05
4.3963e-06
3.1609e-05
4.01291e-05
4.16973e-05
4.2209e-05
4.20165e-05
4.21547e-05
4.20527e-05
4.21065e-05
4.20745e-05
8.96169e-06
3.10858e-05
3.88028e-05
4.03311e-05
4.09567e-05
4.07368e-05
4.08953e-05
4.0781e-05
4.08419e-05
4.08065e-05
1.50766e-05
3.05114e-05
3.76811e-05
3.92104e-05
3.99314e-05
3.9684e-05
3.98621e-05
3.97351e-05
3.98034e-05
3.97643e-05
2.17352e-05
2.98965e-05
3.66777e-05
3.82156e-05
3.90182e-05
3.87417e-05
3.89396e-05
3.87991e-05
3.88752e-05
3.88323e-05
2.75752e-05
2.90904e-05
3.57352e-05
3.72784e-05
3.81521e-05
3.7844e-05
3.80625e-05
3.79073e-05
3.79922e-05
3.79447e-05
3.14589e-05
2.81127e-05
3.4822e-05
3.63577e-05
3.72943e-05
3.69513e-05
3.71916e-05
3.70203e-05
3.7115e-05
3.70622e-05
3.29452e-05
2.70692e-05
3.39189e-05
3.54265e-05
3.64192e-05
3.60375e-05
3.63015e-05
3.61118e-05
3.62177e-05
3.61586e-05
3.23042e-05
2.60061e-05
3.30118e-05
3.44648e-05
3.55077e-05
3.50827e-05
3.53728e-05
3.51621e-05
3.52812e-05
3.5214e-05
3.02005e-05
2.50605e-05
3.20882e-05
3.34548e-05
3.45433e-05
3.40699e-05
3.43894e-05
3.41538e-05
3.42893e-05
3.42114e-05
2.73483e-05
2.41083e-05
3.11347e-05
3.23792e-05
3.351e-05
3.29825e-05
3.33362e-05
3.30703e-05
3.32276e-05
3.31358e-05
2.43096e-05
2.31709e-05
3.0137e-05
3.12183e-05
3.23915e-05
3.18027e-05
3.21978e-05
3.18939e-05
3.20815e-05
3.19748e-05
2.14367e-05
2.22538e-05
2.90793e-05
2.99475e-05
3.11697e-05
3.05095e-05
3.09572e-05
3.06031e-05
3.08352e-05
3.07223e-05
1.89015e-05
2.13367e-05
2.79418e-05
2.87141e-05
2.98236e-05
2.92371e-05
2.95936e-05
2.93327e-05
2.94675e-05
2.93712e-05
1.67549e-05
2.03246e-05
2.66858e-05
2.7321e-05
2.85073e-05
2.78042e-05
2.82582e-05
2.79318e-05
2.81256e-05
2.80264e-05
1.49805e-05
1.93219e-05
2.54237e-05
2.58674e-05
2.70768e-05
2.63027e-05
2.68083e-05
2.64358e-05
2.66688e-05
2.65554e-05
1.35269e-05
1.82939e-05
2.40824e-05
2.43007e-05
2.55268e-05
2.46825e-05
2.52066e-05
2.48222e-05
2.50472e-05
2.49067e-05
)
;

boundaryField
{
    fuel
    {
        type            fixedValue;
        value           uniform 0;
    }
    wall
    {
        type            zeroGradient;
    }
    outlet
    {
        type            zeroGradient;
    }
    frontAndBack
    {
        type            empty;
    }
    procBoundary2to0
    {
        type            processor;
        value           nonuniform List<scalar> 
12
(
2.65562e-05
1.23331e-05
1.72554e-05
2.26487e-05
2.26204e-05
2.38548e-05
2.2945e-05
2.35113e-05
2.30926e-05
2.33427e-05
2.49071e-05
2.31853e-05
)
;
    }
    procBoundary2to3
    {
        type            processor;
        value           nonuniform List<scalar> 
25
(
0.000285848
0.000248393
0.000169977
0.000115608
8.39968e-05
6.62347e-05
5.60237e-05
4.95196e-05
4.60203e-05
4.37779e-05
4.37779e-05
4.20806e-05
4.0812e-05
3.97694e-05
3.8837e-05
3.79491e-05
3.70664e-05
3.61625e-05
3.52176e-05
3.42149e-05
3.31389e-05
3.19775e-05
3.07244e-05
2.93728e-05
2.80278e-05
)
;
    }
}


// ************************************************************************* //
