/*--------------------------------*- C++ -*----------------------------------*\
| =========                 |                                                 |
| \\      /  F ield         | OpenFOAM: The Open Source CFD Toolbox           |
|  \\    /   O peration     | Version:  dev                                   |
|   \\  /    A nd           | Web:      www.OpenFOAM.org                      |
|    \\/     M anipulation  |                                                 |
\*---------------------------------------------------------------------------*/
FoamFile
{
    version     2.0;
    format      ascii;
    class       volScalarField;
    location    "0.03";
    object      P2-H;
}
// * * * * * * * * * * * * * * * * * * * * * * * * * * * * * * * * * * * * * //

dimensions      [0 0 0 0 0 0 0];

internalField   nonuniform List<scalar> 
250
(
5.52963e-11
4.72634e-13
3.18739e-13
3.05467e-13
3.03926e-13
3.03728e-13
3.03655e-13
3.03713e-13
3.03776e-13
2.87389e-11
3.48264e-13
1.92065e-13
1.79206e-13
1.77687e-13
1.77525e-13
1.77472e-13
1.77487e-13
1.77497e-13
3.28765e-12
2.01029e-13
9.4106e-14
8.51747e-14
8.41149e-14
8.40114e-14
8.39825e-14
8.39789e-14
8.39805e-14
4.71973e-13
1.17114e-13
4.3824e-14
3.82351e-14
3.75886e-14
3.75297e-14
3.75168e-14
3.75081e-14
3.751e-14
1.00684e-13
7.29088e-14
2.08388e-14
1.74409e-14
1.70899e-14
1.70615e-14
1.70564e-14
1.70498e-14
1.70519e-14
2.88984e-14
4.89627e-14
1.05423e-14
8.1682e-15
7.85801e-15
7.83024e-15
7.82738e-15
7.81843e-15
7.82199e-15
1.08429e-14
3.51106e-14
5.80861e-15
4.2123e-15
4.02867e-15
4.01575e-15
4.01474e-15
4.00955e-15
4.01197e-15
5.94561e-15
2.64383e-14
3.43211e-15
2.37924e-15
2.19809e-15
2.17879e-15
2.1764e-15
2.17055e-15
2.17278e-15
5.13461e-15
2.05752e-14
2.24314e-15
1.43526e-15
1.34083e-15
1.32773e-15
1.32597e-15
1.32178e-15
1.32343e-15
5.30027e-15
1.63421e-14
1.55759e-15
9.0691e-16
8.39681e-16
8.30546e-16
8.29099e-16
8.2619e-16
8.27262e-16
5.56934e-15
1.31292e-14
1.12212e-15
6.43328e-16
5.92142e-16
5.8531e-16
5.84087e-16
5.81819e-16
5.82657e-16
5.81937e-16
5.66596e-15
1.06074e-14
8.47377e-16
4.81026e-16
4.32896e-16
4.26426e-16
4.25065e-16
4.22948e-16
4.23577e-16
4.22775e-16
5.26293e-15
8.5885e-15
6.84166e-16
3.70035e-16
3.30788e-16
3.25349e-16
3.24065e-16
3.22272e-16
3.22737e-16
3.22025e-16
4.64643e-15
6.95868e-15
5.55222e-16
2.96334e-16
2.63408e-16
2.58668e-16
2.57427e-16
2.55846e-16
2.5619e-16
2.55548e-16
4.06914e-15
5.50465e-15
4.58048e-16
2.44815e-16
2.16605e-16
2.12357e-16
2.11137e-16
2.097e-16
2.09949e-16
2.09355e-16
3.56285e-15
4.21702e-15
3.83074e-16
2.07141e-16
1.82598e-16
1.78711e-16
1.775e-16
1.76164e-16
1.76336e-16
1.75775e-16
3.09158e-15
3.31989e-15
3.24215e-16
1.7853e-16
1.5694e-16
1.53332e-16
1.52119e-16
1.50857e-16
1.50964e-16
1.50428e-16
2.63808e-15
2.59974e-15
2.77059e-16
1.56134e-16
1.36999e-16
1.33611e-16
1.3239e-16
1.31183e-16
1.31237e-16
1.30721e-16
2.21435e-15
2.02676e-15
2.38787e-16
1.38201e-16
1.2116e-16
1.17949e-16
1.16711e-16
1.15544e-16
1.15561e-16
1.15061e-16
1.83881e-15
1.57625e-15
2.07503e-16
1.23614e-16
1.08401e-16
1.05328e-16
1.04062e-16
1.02921e-16
1.0292e-16
1.02436e-16
1.52145e-15
1.22802e-15
1.81868e-16
1.11637e-16
9.80477e-17
9.50771e-17
9.37706e-17
9.26387e-17
9.26485e-17
9.21783e-17
1.26097e-15
9.26149e-16
1.60857e-16
1.01761e-16
8.9644e-17
8.67391e-17
8.5375e-17
8.4232e-17
8.42906e-17
8.38331e-17
1.05058e-15
7.20086e-16
1.43882e-16
9.46789e-17
8.36718e-17
8.08014e-17
7.93651e-17
7.81838e-17
7.75259e-17
7.70777e-17
8.80433e-16
5.65271e-16
1.30279e-16
8.89506e-17
7.87904e-17
7.59886e-17
7.45596e-17
7.33917e-17
7.27519e-17
7.23079e-17
7.41444e-16
4.50193e-16
1.20776e-16
8.47993e-17
7.54549e-17
7.26215e-17
7.1091e-17
6.98685e-17
6.91623e-17
6.87192e-17
6.24629e-16
3.65577e-16
1.13443e-16
8.19752e-17
7.33075e-17
7.03949e-17
6.87311e-17
6.74366e-17
6.65871e-17
6.61331e-17
)
;

boundaryField
{
    fuel
    {
        type            fixedValue;
        value           uniform 0;
    }
    wall
    {
        type            zeroGradient;
    }
    outlet
    {
        type            zeroGradient;
    }
    frontAndBack
    {
        type            empty;
    }
    procBoundary2to0
    {
        type            processor;
        value           nonuniform List<scalar> 
12
(
6.8679e-17
5.318e-16
3.04863e-16
1.08548e-16
8.04082e-17
7.22785e-17
6.92351e-17
6.74014e-17
6.60171e-17
6.50494e-17
6.60987e-17
6.45797e-17
)
;
    }
    procBoundary2to3
    {
        type            processor;
        value           nonuniform List<scalar> 
25
(
3.03643e-13
1.77444e-13
8.39577e-14
3.74986e-14
1.70456e-14
7.81785e-15
4.00956e-15
2.17054e-15
1.32184e-15
8.2626e-16
8.2626e-16
5.81387e-16
4.22419e-16
3.21759e-16
2.55335e-16
2.0918e-16
1.7563e-16
1.50307e-16
1.3062e-16
1.14978e-16
1.02367e-16
9.21214e-17
8.37854e-17
7.70363e-17
7.22667e-17
)
;
    }
}


// ************************************************************************* //
