/*--------------------------------*- C++ -*----------------------------------*\
| =========                 |                                                 |
| \\      /  F ield         | OpenFOAM: The Open Source CFD Toolbox           |
|  \\    /   O peration     | Version:  dev                                   |
|   \\  /    A nd           | Web:      www.OpenFOAM.org                      |
|    \\/     M anipulation  |                                                 |
\*---------------------------------------------------------------------------*/
FoamFile
{
    version     2.0;
    format      ascii;
    class       volScalarField;
    location    "0.03";
    object      T;
}
// * * * * * * * * * * * * * * * * * * * * * * * * * * * * * * * * * * * * * //

dimensions      [0 0 0 1 0 0 0];

internalField   nonuniform List<scalar> 
1997
(
1976.96
1977.02
1976.87
1976.79
1976.68
1976.62
1976.59
1976.59
1976.6
1976.64
1976.67
1976.72
1976.75
1976.79
1976.82
1976.85
1976.88
1976.9
1974.24
1974.3
1974.12
1974.04
1973.91
1973.85
1973.81
1973.81
1973.83
1973.86
1973.9
1973.95
1973.99
1974.03
1974.06
1974.09
1974.12
1974.14
1974.16
1974.18
1974.19
1974.19
1974.2
1974.2
1974.21
1974.2
1974.2
1974.2
1971.45
1971.5
1971.3
1971.2
1971.07
1971
1970.96
1970.96
1970.97
1971.01
1971.05
1971.1
1971.14
1971.18
1971.21
1971.25
1971.27
1971.3
1971.32
1971.33
1971.34
1971.35
1971.36
1971.36
1971.36
1971.36
1971.36
1971.36
1971.35
1971.34
1971.33
1971.31
1971.3
1971.27
1971.25
1971.21
1971.18
1971.13
1971.09
1971.05
1968.54
1968.58
1968.35
1968.24
1968.09
1968.02
1967.97
1967.97
1967.99
1968.03
1968.07
1968.12
1968.16
1968.2
1968.24
1968.27
1968.3
1968.33
1968.34
1968.36
1968.37
1968.38
1968.39
1968.39
1968.39
1968.39
1968.39
1968.39
1968.38
1968.37
1968.36
1968.34
1968.32
1968.3
1968.27
1968.24
1968.2
1968.16
1968.12
1968.07
1968.03
1967.99
1967.97
1967.97
1968.02
1968.1
1968.25
1968.36
1968.59
1968.55
1965.49
1965.52
1965.27
1965.15
1964.99
1964.91
1964.86
1964.85
1964.87
1964.91
1964.95
1965.01
1965.05
1965.1
1965.13
1965.17
1965.19
1965.22
1965.24
1965.26
1965.27
1965.28
1965.28
1965.29
1965.29
1965.29
1965.29
1965.28
1965.28
1965.27
1965.25
1965.24
1965.22
1965.19
1965.17
1965.13
1965.09
1965.05
1965
1964.95
1964.91
1964.87
1964.86
1964.86
1964.91
1964.99
1965.15
1965.28
1965.53
1965.5
1962.31
1962.33
1962.05
1961.91
1961.74
1961.66
1961.6
1961.6
1961.61
1961.66
1961.7
1961.75
1961.8
1961.85
1961.88
1961.92
1961.95
1961.98
1962
1962.01
1962.03
1962.04
1962.04
1962.05
1962.05
1962.05
1962.04
1962.04
1962.03
1962.02
1962.01
1961.99
1961.97
1961.95
1961.92
1961.88
1961.84
1961.8
1961.75
1961.7
1961.66
1961.61
1961.6
1961.6
1961.66
1961.75
1961.92
1962.06
1962.34
1962.32
1958.99
1958.99
1958.69
1958.54
1958.35
1958.26
1958.2
1958.2
1958.21
1958.26
1958.3
1958.36
1958.4
1958.45
1958.49
1958.53
1958.56
1958.59
1958.61
1958.63
1958.64
1958.65
1958.65
1958.66
1958.66
1958.66
1958.66
1958.65
1958.65
1958.63
1958.62
1958.6
1958.58
1958.56
1958.53
1958.49
1958.45
1958.4
1958.36
1958.3
1958.26
1958.21
1958.2
1958.2
1958.26
1958.36
1958.54
1958.7
1959
1959
1955.51
1955.5
1955.18
1955.01
1954.81
1954.71
1954.65
1954.64
1954.66
1954.71
1954.75
1954.81
1954.86
1954.91
1954.95
1954.99
1955.02
1955.05
1955.07
1955.09
1955.1
1955.11
1955.12
1955.12
1955.12
1955.12
1955.12
1955.11
1955.11
1955.1
1955.08
1955.06
1955.04
1955.02
1954.99
1954.95
1954.91
1954.86
1954.81
1954.75
1954.71
1954.66
1954.65
1954.65
1954.72
1954.82
1955.01
1955.19
1955.51
1955.53
1951.89
1951.86
1951.51
1951.32
1951.12
1951.01
1950.94
1950.93
1950.95
1951
1951.05
1951.11
1951.16
1951.21
1951.25
1951.29
1951.32
1951.35
1951.37
1951.39
1951.4
1951.41
1951.42
1951.42
1951.43
1951.43
1951.42
1951.42
1951.41
1951.4
1951.39
1951.37
1951.35
1951.32
1951.29
1951.25
1951.21
1951.15
1951.1
1951.05
1951
1950.95
1950.94
1950.95
1951.01
1951.12
1951.33
1951.52
1951.87
1951.9
1948.1
1948.06
1947.68
1947.48
1947.26
1947.14
1947.07
1947.06
1947.08
1947.13
1947.18
1947.24
1947.29
1947.35
1947.39
1947.43
1947.46
1947.49
1947.51
1947.53
1947.54
1947.55
1947.56
1947.57
1947.57
1947.57
1947.56
1947.56
1947.55
1947.54
1947.53
1947.51
1947.49
1947.46
1947.43
1947.38
1947.34
1947.29
1947.24
1947.18
1947.13
1947.08
1947.06
1947.07
1947.14
1947.26
1947.49
1947.69
1948.07
1948.12
1944.06
1944.01
1943.6
1943.38
1943.15
1943.02
1942.96
1942.95
1942.97
1943.02
1943.07
1943.14
1943.19
1943.25
1943.29
1943.34
1943.37
1943.4
1943.42
1943.44
1943.46
1943.47
1943.48
1943.48
1943.48
1943.48
1943.48
1943.47
1943.47
1943.45
1943.44
1943.42
1943.4
1943.36
1943.33
1943.29
1943.24
1943.19
1943.13
1943.07
1943.02
1942.97
1942.95
1942.96
1943.03
1943.16
1943.39
1943.61
1944.02
1944.08
1939.84
1939.77
1939.33
1939.1
1938.85
1938.71
1938.64
1938.63
1938.65
1938.7
1938.76
1938.83
1938.88
1938.94
1938.99
1939.03
1939.06
1939.1
1939.12
1939.14
1939.16
1939.17
1939.17
1939.18
1939.18
1939.18
1939.18
1939.17
1939.16
1939.15
1939.14
1939.12
1939.09
1939.06
1939.03
1938.98
1938.94
1938.88
1938.82
1938.76
1938.7
1938.65
1938.63
1938.64
1938.72
1938.86
1939.1
1939.34
1939.78
1939.85
1935.42
1935.33
1934.87
1934.61
1934.35
1934.21
1934.13
1934.12
1934.15
1934.2
1934.26
1934.32
1934.38
1934.44
1934.49
1934.54
1934.57
1934.6
1934.63
1934.65
1934.66
1934.68
1934.68
1934.69
1934.69
1934.69
1934.68
1934.68
1934.67
1934.66
1934.64
1934.62
1934.6
1934.56
1934.53
1934.48
1934.44
1934.38
1934.32
1934.25
1934.2
1934.15
1934.12
1934.14
1934.22
1934.36
1934.62
1934.88
1935.35
1935.44
1930.92
1930.81
1930.31
1930.04
1929.76
1929.61
1929.53
1929.52
1929.54
1929.59
1929.65
1929.72
1929.78
1929.84
1929.89
1929.94
1929.98
1930.01
1930.03
1930.06
1930.07
1930.08
1930.09
1930.09
1930.1
1930.1
1930.09
1930.09
1930.08
1930.07
1930.05
1930.03
1930.01
1929.97
1929.94
1929.89
1929.84
1929.78
1929.72
1929.65
1929.59
1929.54
1929.52
1929.53
1929.61
1929.77
1930.05
1930.32
1930.82
1930.93
1926.21
1926.08
1925.55
1925.26
1924.97
1924.81
1924.73
1924.71
1924.73
1924.79
1924.85
1924.92
1924.98
1925.05
1925.1
1925.15
1925.18
1925.22
1925.24
1925.26
1925.28
1925.29
1925.3
1925.3
1925.3
1925.3
1925.3
1925.29
1925.29
1925.27
1925.26
1925.24
1925.21
1925.18
1925.14
1925.09
1925.04
1924.98
1924.92
1924.85
1924.79
1924.74
1924.71
1924.73
1924.81
1924.98
1925.27
1925.56
1926.1
1926.23
1921.24
1921.09
1920.53
1920.22
1919.91
1919.74
1919.65
1919.64
1919.66
1919.72
1919.79
1919.86
1919.92
1919.99
1920.05
1920.1
1920.14
1920.18
1920.2
1920.23
1920.24
1920.26
1920.27
1920.27
1920.27
1920.27
1920.27
1920.26
1920.25
1920.24
1920.22
1920.2
1920.17
1920.13
1920.1
1920.04
1919.99
1919.92
1919.86
1919.78
1919.72
1919.66
1919.64
1919.66
1919.74
1919.92
1920.23
1920.54
1921.11
1921.25
1916
1915.84
1915.24
1914.91
1914.59
1914.4
1914.32
1914.3
1914.32
1914.38
1914.45
1914.53
1914.59
1914.66
1914.72
1914.77
1914.81
1914.85
1914.88
1914.9
1914.92
1914.93
1914.94
1914.95
1914.95
1914.95
1914.94
1914.94
1914.93
1914.91
1914.9
1914.87
1914.85
1914.81
1914.77
1914.71
1914.66
1914.59
1914.52
1914.45
1914.38
1914.32
1914.3
1914.32
1914.41
1914.6
1914.92
1915.25
1915.86
1916.02
1910.54
1910.35
1909.71
1909.37
1909.04
1908.84
1908.75
1908.72
1908.75
1908.81
1908.88
1908.96
1909.03
1909.1
1909.16
1909.21
1909.25
1909.29
1909.32
1909.35
1909.36
1909.38
1909.38
1909.39
1909.39
1909.39
1909.39
1909.38
1909.37
1909.36
1909.34
1909.31
1909.29
1909.25
1909.21
1909.15
1909.1
1909.02
1908.96
1908.88
1908.81
1908.75
1908.73
1908.75
1908.84
1909.04
1909.38
1909.73
1910.37
1910.56
1904.84
1904.62
1903.96
1903.59
1903.24
1903.03
1902.94
1902.91
1902.94
1903
1903.07
1903.16
1903.22
1903.3
1903.35
1903.41
1903.45
1903.5
1903.52
1903.55
1903.57
1903.58
1903.59
1903.6
1903.6
1903.6
1903.59
1903.58
1903.58
1903.56
1903.54
1903.52
1903.49
1903.45
1903.41
1903.35
1903.29
1903.22
1903.15
1903.07
1903
1902.94
1902.91
1902.94
1903.03
1903.25
1903.6
1903.97
1904.64
1904.86
1899.01
1898.77
1898.07
1897.68
1897.32
1897.09
1897
1896.97
1897
1897.07
1897.14
1897.22
1897.29
1897.37
1897.43
1897.49
1897.53
1897.57
1897.6
1897.63
1897.64
1897.66
1897.67
1897.67
1897.67
1897.67
1897.67
1897.66
1897.65
1897.64
1897.62
1897.59
1897.56
1897.52
1897.48
1897.42
1897.36
1897.29
1897.22
1897.13
1897.06
1897
1896.98
1897
1897.1
1897.33
1897.69
1898.09
1898.8
1899.03
1892.94
1892.68
1891.95
1891.53
1891.15
1890.91
1890.8
1890.77
1890.8
1890.87
1890.94
1891.03
1891.1
1891.18
1891.24
1891.3
1891.34
1891.39
1891.42
1891.44
1891.46
1891.48
1891.48
1891.49
1891.49
1891.49
1891.49
1891.48
1891.47
1891.45
1891.44
1891.41
1891.38
1891.34
1891.29
1891.23
1891.17
1891.09
1891.02
1890.93
1890.86
1890.8
1890.77
1890.81
1890.91
1891.16
1891.54
1891.96
1892.7
1892.96
1886.55
1886.25
1885.46
1885.01
1884.61
1884.35
1884.24
1884.2
1884.23
1884.3
1884.37
1884.46
1884.54
1884.62
1884.68
1884.75
1884.79
1884.84
1884.87
1884.89
1884.91
1884.93
1884.93
1884.94
1884.94
1884.94
1884.94
1884.93
1884.92
1884.9
1884.89
1884.86
1884.83
1884.78
1884.74
1884.67
1884.61
1884.53
1884.46
1884.37
1884.3
1884.23
1884.2
1884.24
1884.36
1884.62
1885.03
1885.48
1886.27
1886.57
1879.96
1879.63
1878.8
1878.33
1877.92
1877.64
1877.52
1877.48
1877.52
1877.58
1877.66
1877.75
1877.83
1877.91
1877.98
1878.04
1878.09
1878.13
1878.16
1878.19
1878.21
1878.23
1878.23
1878.24
1878.24
1878.24
1878.24
1878.23
1878.22
1878.2
1878.18
1878.15
1878.12
1878.08
1878.03
1877.97
1877.91
1877.82
1877.75
1877.66
1877.58
1877.52
1877.49
1877.53
1877.64
1877.93
1878.35
1878.82
1879.65
1879.98
1873.04
1872.67
1871.78
1871.31
1870.89
1870.65
1870.53
1870.49
1870.52
1870.59
1870.67
1870.76
1870.84
1870.93
1870.99
1871.06
1871.11
1871.15
1871.18
1871.21
1871.23
1871.25
1871.25
1871.26
1871.26
1871.26
1871.26
1871.25
1871.24
1871.22
1871.21
1871.17
1871.15
1871.1
1871.05
1870.98
1870.92
1870.84
1870.76
1870.66
1870.59
1870.52
1870.49
1870.53
1870.65
1870.9
1871.32
1871.8
1872.69
1873.07
1865.89
1865.48
1864.56
1864.06
1863.63
1863.37
1863.25
1863.21
1863.24
1863.31
1863.39
1863.49
1863.57
1863.66
1863.72
1863.79
1863.84
1863.89
1863.92
1863.95
1863.97
1863.98
1863.99
1864
1864
1864
1863.99
1863.99
1863.98
1863.96
1863.94
1863.91
1863.88
1863.83
1863.78
1863.71
1863.65
1863.56
1863.48
1863.39
1863.31
1863.24
1863.21
1863.26
1863.38
1863.64
1864.08
1864.58
1865.51
1865.92
1858.45
1858.01
1857.05
1856.52
1856.07
1855.8
1855.68
1855.63
1855.67
1855.74
1855.82
1855.92
1856
1856.09
1856.16
1856.23
1856.28
1856.33
1856.36
1856.39
1856.41
1856.43
1856.43
1856.44
1856.44
1856.44
1856.44
1856.43
1856.42
1856.4
1856.38
1856.35
1856.32
1856.27
1856.22
1856.15
1856.08
1855.99
1855.91
1855.81
1855.73
1855.66
1855.63
1855.68
1855.8
1856.08
1856.54
1857.07
1858.04
1858.47
1850.7
1850.23
1849.23
1848.68
1848.21
1847.92
1847.8
1847.75
1847.78
1847.85
1847.94
1848.04
1848.13
1848.22
1848.29
1848.36
1848.41
1848.46
1848.49
1848.53
1848.54
1848.56
1848.57
1848.58
1848.58
1848.58
1848.57
1848.56
1848.55
1848.53
1848.52
1848.48
1848.45
1848.4
1848.35
1848.28
1848.21
1848.12
1848.04
1847.94
1847.85
1847.78
1847.75
1847.8
1847.93
1848.22
1848.69
1849.25
1850.26
1850.72
1842.58
1842.06
1840.99
1840.41
1839.92
1839.61
1839.48
1839.42
1839.47
1839.54
1839.63
1839.73
1839.82
1839.92
1839.99
1840.06
1840.11
1840.17
1840.2
1840.23
1840.25
1840.27
1840.28
1840.28
1840.28
1840.28
1840.28
1840.27
1840.26
1840.24
1840.22
1840.19
1840.15
1840.1
1840.05
1839.98
1839.91
1839.81
1839.72
1839.62
1839.53
1839.46
1839.42
1839.49
1839.61
1839.93
1840.42
1841.01
1842.09
1842.61
1834.2
1833.64
1832.53
1831.92
1831.41
1831.08
1830.96
1830.9
1830.94
1831.01
1831.1
1831.21
1831.3
1831.4
1831.47
1831.55
1831.6
1831.65
1831.69
1831.72
1831.74
1831.76
1831.76
1831.77
1831.77
1831.77
1831.77
1831.76
1831.75
1831.73
1831.71
1831.67
1831.64
1831.59
1831.54
1831.46
1831.39
1831.29
1831.2
1831.09
1831
1830.93
1830.89
1830.96
1831.09
1831.42
1831.93
1832.55
1833.67
1834.22
1825.47
1824.88
1823.72
1823.07
1822.57
1822.22
1822.09
1822.03
1822.07
1822.15
1822.24
1822.35
1822.44
1822.54
1822.61
1822.7
1822.75
1822.8
1822.84
1822.87
1822.89
1822.91
1822.92
1822.92
1822.93
1822.92
1822.92
1822.91
1822.9
1822.88
1822.86
1822.82
1822.79
1822.74
1822.68
1822.6
1822.53
1822.43
1822.34
1822.23
1822.14
1822.07
1822.03
1822.1
1822.23
1822.58
1823.09
1823.74
1824.91
1825.5
1816.41
1815.78
1814.57
1813.89
1813.37
1813.01
1812.88
1812.82
1812.86
1812.93
1813.04
1813.15
1813.23
1813.34
1813.41
1813.5
1813.55
1813.61
1813.64
1813.68
1813.69
1813.71
1813.72
1813.73
1813.73
1813.73
1813.73
1813.72
1813.71
1813.68
1813.66
1813.63
1813.59
1813.54
1813.48
1813.4
1813.33
1813.22
1813.13
1813.02
1812.93
1812.86
1812.81
1812.89
1813.02
1813.38
1813.91
1814.59
1815.81
1816.43
1806.98
1806.32
1805.05
1804.35
1803.82
1803.44
1803.32
1803.25
1803.29
1803.36
1803.47
1803.59
1803.67
1803.77
1803.85
1803.94
1803.99
1804.05
1804.08
1804.12
1804.14
1804.16
1804.17
1804.18
1804.18
1804.18
1804.17
1804.16
1804.15
1804.13
1804.11
1804.07
1804.04
1803.98
1803.92
1803.84
1803.76
1803.66
1803.57
1803.46
1803.36
1803.29
1803.24
1803.32
1803.45
1803.83
1804.37
1805.08
1806.35
1807.01
1797.16
1796.43
1795.07
1794.33
1793.77
1793.37
1793.24
1793.17
1793.22
1793.28
1793.41
1793.52
1793.59
1793.7
1793.78
1793.87
1793.93
1793.99
1794.02
1794.06
1794.08
1794.1
1794.11
1794.12
1794.12
1794.12
1794.11
1794.1
1794.09
1794.07
1794.05
1794.01
1793.98
1793.91
1793.86
1793.77
1793.69
1793.58
1793.5
1793.39
1793.28
1793.22
1793.15
1793.25
1793.38
1793.78
1794.35
1795.1
1796.46
1797.19
1786.98
1786.21
1784.8
1784.03
1783.46
1783.05
1782.92
1782.85
1782.9
1782.94
1783.1
1783.22
1783.27
1783.38
1783.47
1783.56
1783.61
1783.68
1783.71
1783.75
1783.77
1783.79
1783.8
1783.81
1783.81
1783.81
1783.8
1783.79
1783.78
1783.76
1783.74
1783.7
1783.66
1783.6
1783.54
1783.45
1783.37
1783.26
1783.2
1783.09
1782.97
1782.9
1782.83
1782.93
1783.06
1783.47
1784.05
1784.83
1786.25
1787.01
1776.32
1775.49
1774.02
1773.22
1772.62
1772.2
1772.07
1772
1772.07
1772.2
1772.27
1772.4
1772.56
1772.67
1772.75
1772.85
1772.9
1772.97
1773
1773.05
1773.07
1773.09
1773.1
1773.1
1773.1
1773.1
1773.1
1773.09
1773.08
1773.05
1773.03
1772.99
1772.95
1772.89
1772.83
1772.74
1772.66
1772.54
1772.4
1772.26
1772.16
1772.06
1772.01
1772.08
1772.21
1772.64
1773.24
1774.04
1775.53
1776.35
1765.34
1764.48
1762.94
1762.12
1761.51
1761.07
1760.95
1760.87
1760.95
1761.06
1761.16
1761.3
1761.43
1761.55
1761.64
1761.73
1761.79
1761.86
1761.89
1761.93
1761.96
1761.98
1761.99
1761.99
1761.99
1761.99
1761.99
1761.98
1761.97
1761.94
1761.92
1761.88
1761.84
1761.78
1761.72
1761.62
1761.54
1761.42
1761.3
1761.16
1761.04
1760.94
1760.89
1760.95
1761.08
1761.52
1762.14
1762.97
1764.51
1765.37
1753.95
1753.05
1751.44
1750.59
1749.98
1749.52
1749.4
1749.32
1749.41
1749.51
1749.62
1749.77
1749.89
1750.01
1750.1
1750.2
1750.26
1750.33
1750.36
1750.41
1750.43
1750.45
1750.46
1750.47
1750.47
1750.47
1750.46
1750.45
1750.44
1750.41
1750.39
1750.35
1750.31
1750.24
1750.18
1750.09
1750
1749.88
1749.76
1749.62
1749.5
1749.4
1749.34
1749.41
1749.53
1749.99
1750.62
1751.47
1753.08
1753.98
1742
1741.04
1739.51
1738.64
1738.01
1737.54
1737.43
1737.34
1737.43
1737.53
1737.65
1737.8
1737.92
1738.05
1738.13
1738.23
1738.29
1738.36
1738.4
1738.45
1738.47
1738.49
1738.5
1738.51
1738.51
1738.51
1738.5
1738.49
1738.48
1738.45
1738.43
1738.39
1738.35
1738.28
1738.22
1738.12
1738.03
1737.91
1737.79
1737.65
1737.52
1737.43
1737.35
1737.44
1737.55
1738.03
1738.66
1739.54
1741.07
1742.03
1729.73
1728.72
1727.14
1726.24
1725.6
1725.12
1725.01
1724.92
1725.01
1725.11
1725.24
1725.38
1725.51
1725.63
1725.72
1725.83
1725.89
1725.96
1726
1726.04
1726.06
1726.09
1726.1
1726.11
1726.11
1726.1
1726.1
1726.09
1726.08
1726.05
1726.03
1725.98
1725.94
1725.87
1725.81
1725.71
1725.62
1725.49
1725.38
1725.24
1725.1
1725.01
1724.93
1725.02
1725.13
1725.62
1726.27
1727.17
1728.76
1729.76
1716.91
1715.85
1714.3
1713.39
1712.74
1712.23
1712.13
1712.04
1712.13
1712.23
1712.36
1712.51
1712.63
1712.76
1712.86
1712.96
1713.02
1713.1
1713.14
1713.18
1713.2
1713.23
1713.24
1713.25
1713.25
1713.25
1713.24
1713.23
1713.22
1713.19
1713.17
1713.12
1713.08
1713.01
1712.94
1712.84
1712.75
1712.62
1712.5
1712.36
1712.22
1712.13
1712.04
1712.14
1712.24
1712.75
1713.41
1714.33
1715.88
1716.95
1703.71
1702.59
1701
1700.06
1699.4
1698.88
1698.78
1698.68
1698.78
1698.88
1699.02
1699.17
1699.29
1699.42
1699.52
1699.62
1699.69
1699.76
1699.8
1699.85
1699.87
1699.9
1699.91
1699.92
1699.92
1699.91
1699.91
1699.9
1699.89
1699.86
1699.84
1699.79
1699.75
1699.67
1699.61
1699.5
1699.41
1699.28
1699.16
1699.01
1698.87
1698.78
1698.69
1698.79
1698.89
1699.41
1700.08
1701.03
1702.63
1703.75
1690.03
1688.85
1687.21
1686.24
1685.57
1685.04
1684.95
1684.84
1684.94
1685.04
1685.18
)
;

boundaryField
{
    fuel
    {
        type            fixedValue;
        value           nonuniform 0();
    }
    wall
    {
        type            fixedValue;
        value           nonuniform 0();
    }
    outlet
    {
        type            zeroGradient;
    }
    frontAndBack
    {
        type            empty;
    }
    procBoundary2to0
    {
        type            processor;
        value           nonuniform List<scalar> 
53
(
1979.51
1979.59
1979.45
1979.38
1979.28
1979.23
1979.2
1979.2
1979.21
1979.25
1979.28
1979.32
1979.36
1979.4
1979.43
1979.46
1979.48
1979.5
1976.92
1976.92
1976.93
1976.94
1976.95
1976.96
1976.96
1976.96
1976.96
1976.96
1976.95
1974.19
1974.19
1974.18
1974.17
1974.16
1974.14
1974.11
1974.09
1974.06
1974.02
1973.98
1973.94
1973.9
1971.01
1971.01
1970.97
1970.96
1970.96
1971
1971.07
1971.21
1971.31
1971.51
1971.46
)
;
    }
    procBoundary2to3
    {
        type            processor;
        value           nonuniform List<scalar> 
51
(
1685.33
1685.46
1685.59
1685.69
1685.8
1685.86
1685.94
1685.98
1686.03
1686.05
1686.07
1686.08
1686.09
1686.09
1686.09
1686.09
1686.07
1686.06
1686.03
1686.01
1685.96
1685.92
1685.85
1685.78
1685.67
1685.58
1685.44
1685.32
1685.17
1685.03
1684.94
1684.84
1684.95
1685.05
1685.59
1686.26
1687.23
1688.89
1690.06
1675.84
1674.61
1672.91
1671.92
1671.24
1670.69
1670.61
1670.49
1670.6
1670.7
1685.33
1670.84
)
;
    }
}


// ************************************************************************* //
