/*--------------------------------*- C++ -*----------------------------------*\
| =========                 |                                                 |
| \\      /  F ield         | OpenFOAM: The Open Source CFD Toolbox           |
|  \\    /   O peration     | Version:  dev                                   |
|   \\  /    A nd           | Web:      www.OpenFOAM.org                      |
|    \\/     M anipulation  |                                                 |
\*---------------------------------------------------------------------------*/
FoamFile
{
    version     2.0;
    format      ascii;
    class       surfaceScalarField;
    location    "0.03";
    object      phi;
}
// * * * * * * * * * * * * * * * * * * * * * * * * * * * * * * * * * * * * * //

dimensions      [1 0 -1 0 0 0 0];

internalField   nonuniform List<scalar> 
12
(
6.27025e-05
6.44552e-05
6.61703e-05
6.78175e-05
6.9357e-05
7.13317e-05
7.31384e-05
7.49191e-05
7.66169e-05
7.82607e-05
7.98666e-05
8.14192e-05
)
;

boundaryField
{
    wall
    {
        type            calculated;
        value           nonuniform List<scalar> 
52
(
9.12636e-20
8.70656e-20
8.28627e-20
7.86491e-20
7.44981e-20
7.04854e-20
6.63412e-20
6.22437e-20
5.82092e-20
5.42193e-20
5.02951e-20
4.64825e-20
4.28716e-20
-9.12636e-20
-8.70656e-20
-8.28627e-20
-7.86491e-20
-7.44981e-20
-7.04854e-20
-6.63412e-20
-6.22437e-20
-5.82092e-20
-5.42193e-20
-5.02951e-20
-4.64825e-20
-4.28716e-20
9.12636e-20
8.70656e-20
8.28627e-20
7.86491e-20
7.44981e-20
7.04854e-20
6.63412e-20
6.22437e-20
5.82092e-20
5.42193e-20
5.02951e-20
4.64825e-20
4.28716e-20
-9.12636e-20
-8.70656e-20
-8.28627e-20
-7.86491e-20
-7.44981e-20
-7.04854e-20
-6.63412e-20
-6.22437e-20
-5.82092e-20
-5.42193e-20
-5.02951e-20
-4.64825e-20
-4.28716e-20
)
;
    }
    fuel
    {
        type            calculated;
        value           nonuniform 0();
    }
    outlet
    {
        type            calculated;
        value           nonuniform 0();
    }
    procBoundary5to4
    {
        type            processor;
        value           uniform -6.09187e-05;
    }
    procBoundary5to6
    {
        type            processor;
        value           uniform 8.28488e-05;
    }
}


// ************************************************************************* //
