/*--------------------------------*- C++ -*----------------------------------*\
| =========                 |                                                 |
| \\      /  F ield         | OpenFOAM: The Open Source CFD Toolbox           |
|  \\    /   O peration     | Version:  dev                                   |
|   \\  /    A nd           | Web:      www.OpenFOAM.org                      |
|    \\/     M anipulation  |                                                 |
\*---------------------------------------------------------------------------*/
FoamFile
{
    version     2.0;
    format      ascii;
    class       volScalarField;
    location    "0.03";
    object      A1C2H3*;
}
// * * * * * * * * * * * * * * * * * * * * * * * * * * * * * * * * * * * * * //

dimensions      [0 0 0 0 0 0 0];

internalField   nonuniform List<scalar> 
25
(
2.07956e-11
9.04066e-12
3.22296e-12
1.09369e-12
3.6433e-13
1.2096e-13
3.93917e-14
1.29747e-14
4.23602e-15
1.37471e-15
4.48115e-16
1.49484e-16
5.44701e-17
2.54009e-17
1.78553e-17
1.76557e-17
2.0288e-17
2.44122e-17
2.96889e-17
3.61092e-17
4.37828e-17
5.28737e-17
6.3587e-17
7.61806e-17
9.10259e-17
)
;

boundaryField
{
    wall
    {
        type            zeroGradient;
    }
    fuel
    {
        type            fixedValue;
        value           uniform 0;
    }
    outlet
    {
        type            inletOutlet;
        inletValue      nonuniform 0();
        value           nonuniform 0();
    }
    procBoundary0to1
    {
        type            processor;
        value           uniform 1.09011e-16;
    }
}


// ************************************************************************* //
