/*--------------------------------*- C++ -*----------------------------------*\
| =========                 |                                                 |
| \\      /  F ield         | OpenFOAM: The Open Source CFD Toolbox           |
|  \\    /   O peration     | Version:  dev                                   |
|   \\  /    A nd           | Web:      www.OpenFOAM.org                      |
|    \\/     M anipulation  |                                                 |
\*---------------------------------------------------------------------------*/
FoamFile
{
    version     2.0;
    format      ascii;
    class       volScalarField;
    location    "0.03";
    object      CH;
}
// * * * * * * * * * * * * * * * * * * * * * * * * * * * * * * * * * * * * * //

dimensions      [0 0 0 0 0 0 0];

internalField   nonuniform List<scalar> 
2014
(
1.13266e-08
1.13843e-08
1.14446e-08
1.1478e-08
1.14957e-08
1.15042e-08
1.15057e-08
1.1508e-08
1.15077e-08
1.15091e-08
1.15092e-08
1.15104e-08
1.15108e-08
1.15119e-08
1.15123e-08
1.15131e-08
1.15134e-08
1.1514e-08
1.15142e-08
1.15146e-08
1.15148e-08
1.1515e-08
1.15151e-08
1.15152e-08
1.15152e-08
1.15152e-08
1.15152e-08
1.1515e-08
1.1515e-08
1.15147e-08
1.15145e-08
1.15141e-08
1.15139e-08
1.15133e-08
1.1513e-08
1.15122e-08
1.15118e-08
1.15107e-08
1.15104e-08
1.15092e-08
1.15091e-08
1.15077e-08
1.1508e-08
1.15057e-08
1.15043e-08
1.14958e-08
1.14781e-08
1.14448e-08
1.13845e-08
1.13268e-08
1.11335e-08
1.11895e-08
1.12475e-08
1.12797e-08
1.12969e-08
1.13051e-08
1.13065e-08
1.13087e-08
1.13085e-08
1.13099e-08
1.131e-08
1.13113e-08
1.13117e-08
1.13128e-08
1.13132e-08
1.13141e-08
1.13144e-08
1.1315e-08
1.13153e-08
1.13157e-08
1.13158e-08
1.13161e-08
1.13162e-08
1.13163e-08
1.13163e-08
1.13163e-08
1.13163e-08
1.13161e-08
1.1316e-08
1.13158e-08
1.13156e-08
1.13152e-08
1.13149e-08
1.13143e-08
1.1314e-08
1.13132e-08
1.13128e-08
1.13117e-08
1.13113e-08
1.131e-08
1.13099e-08
1.13085e-08
1.13088e-08
1.13066e-08
1.13052e-08
1.1297e-08
1.12799e-08
1.12477e-08
1.11897e-08
1.11337e-08
1.09458e-08
1.10004e-08
1.1056e-08
1.10872e-08
1.11038e-08
1.11117e-08
1.11131e-08
1.11152e-08
1.11151e-08
1.11164e-08
1.11166e-08
1.11179e-08
1.11184e-08
1.11195e-08
1.112e-08
1.11209e-08
1.11212e-08
1.11218e-08
1.11221e-08
1.11225e-08
1.11227e-08
1.11229e-08
1.1123e-08
1.11231e-08
1.11231e-08
1.11231e-08
1.11231e-08
1.1123e-08
1.11229e-08
1.11226e-08
1.11224e-08
1.1122e-08
1.11217e-08
1.11211e-08
1.11208e-08
1.11199e-08
1.11194e-08
1.11183e-08
1.11179e-08
1.11166e-08
1.11164e-08
1.11151e-08
1.11153e-08
1.11131e-08
1.11118e-08
1.11039e-08
1.10873e-08
1.10563e-08
1.10006e-08
1.09461e-08
1.07626e-08
1.08159e-08
1.08691e-08
1.08992e-08
1.09153e-08
1.09229e-08
1.09242e-08
1.09263e-08
1.09262e-08
1.09275e-08
1.09278e-08
1.09291e-08
1.09297e-08
1.09308e-08
1.09313e-08
1.09322e-08
1.09326e-08
1.09332e-08
1.09335e-08
1.09339e-08
1.09341e-08
1.09343e-08
1.09344e-08
1.09345e-08
1.09346e-08
1.09345e-08
1.09345e-08
1.09344e-08
1.09343e-08
1.0934e-08
1.09338e-08
1.09334e-08
1.09331e-08
1.09325e-08
1.09321e-08
1.09312e-08
1.09307e-08
1.09296e-08
1.09291e-08
1.09278e-08
1.09275e-08
1.09262e-08
1.09264e-08
1.09243e-08
1.09231e-08
1.09155e-08
1.08994e-08
1.08694e-08
1.08161e-08
1.07628e-08
1.05828e-08
1.06349e-08
1.0686e-08
1.0715e-08
1.07305e-08
1.07378e-08
1.0739e-08
1.0741e-08
1.07409e-08
1.07423e-08
1.07426e-08
1.0744e-08
1.07445e-08
1.07457e-08
1.07462e-08
1.07472e-08
1.07476e-08
1.07482e-08
1.07485e-08
1.07489e-08
1.07491e-08
1.07494e-08
1.07495e-08
1.07496e-08
1.07496e-08
1.07496e-08
1.07496e-08
1.07494e-08
1.07493e-08
1.0749e-08
1.07488e-08
1.07484e-08
1.07481e-08
1.07474e-08
1.0747e-08
1.07461e-08
1.07456e-08
1.07445e-08
1.07439e-08
1.07426e-08
1.07423e-08
1.0741e-08
1.07411e-08
1.07391e-08
1.07379e-08
1.07306e-08
1.07151e-08
1.06862e-08
1.06352e-08
1.0583e-08
1.04057e-08
1.04567e-08
1.05057e-08
1.05335e-08
1.05485e-08
1.05555e-08
1.05566e-08
1.05586e-08
1.05585e-08
1.05599e-08
1.05603e-08
1.05616e-08
1.05622e-08
1.05634e-08
1.0564e-08
1.0565e-08
1.05654e-08
1.05661e-08
1.05664e-08
1.05668e-08
1.0567e-08
1.05673e-08
1.05674e-08
1.05675e-08
1.05675e-08
1.05675e-08
1.05675e-08
1.05673e-08
1.05672e-08
1.05669e-08
1.05667e-08
1.05662e-08
1.05659e-08
1.05653e-08
1.05648e-08
1.05639e-08
1.05634e-08
1.05622e-08
1.05616e-08
1.05602e-08
1.05599e-08
1.05585e-08
1.05586e-08
1.05567e-08
1.05556e-08
1.05486e-08
1.05337e-08
1.0506e-08
1.04569e-08
1.0406e-08
1.02307e-08
1.02806e-08
1.03277e-08
1.03543e-08
1.03686e-08
1.03754e-08
1.03764e-08
1.03783e-08
1.03783e-08
1.03796e-08
1.03801e-08
1.03815e-08
1.03821e-08
1.03833e-08
1.03839e-08
1.03849e-08
1.03854e-08
1.03861e-08
1.03864e-08
1.03868e-08
1.0387e-08
1.03873e-08
1.03874e-08
1.03875e-08
1.03876e-08
1.03876e-08
1.03875e-08
1.03874e-08
1.03872e-08
1.03869e-08
1.03867e-08
1.03863e-08
1.03859e-08
1.03852e-08
1.03848e-08
1.03838e-08
1.03832e-08
1.0382e-08
1.03814e-08
1.038e-08
1.03796e-08
1.03783e-08
1.03784e-08
1.03764e-08
1.03755e-08
1.03688e-08
1.03545e-08
1.0328e-08
1.02808e-08
1.0231e-08
1.00572e-08
1.0106e-08
1.01513e-08
1.01766e-08
1.01904e-08
1.01968e-08
1.01977e-08
1.01996e-08
1.01996e-08
1.0201e-08
1.02015e-08
1.02029e-08
1.02036e-08
1.02048e-08
1.02055e-08
1.02065e-08
1.0207e-08
1.02077e-08
1.0208e-08
1.02085e-08
1.02087e-08
1.0209e-08
1.02091e-08
1.02092e-08
1.02092e-08
1.02092e-08
1.02092e-08
1.0209e-08
1.02089e-08
1.02086e-08
1.02084e-08
1.02079e-08
1.02075e-08
1.02068e-08
1.02063e-08
1.02054e-08
1.02047e-08
1.02035e-08
1.02028e-08
1.02014e-08
1.0201e-08
1.01996e-08
1.01997e-08
1.01978e-08
1.01969e-08
1.01906e-08
1.01769e-08
1.01516e-08
1.01063e-08
1.00575e-08
9.88486e-09
9.93259e-09
9.976e-09
1.00002e-08
1.00133e-08
1.00194e-08
1.00202e-08
1.0022e-08
1.0022e-08
1.00234e-08
1.00239e-08
1.00254e-08
1.00261e-08
1.00275e-08
1.00281e-08
1.00292e-08
1.00297e-08
1.00304e-08
1.00307e-08
1.00312e-08
1.00314e-08
1.00317e-08
1.00318e-08
1.0032e-08
1.0032e-08
1.0032e-08
1.00319e-08
1.00318e-08
1.00317e-08
1.00313e-08
1.00311e-08
1.00306e-08
1.00303e-08
1.00295e-08
1.0029e-08
1.0028e-08
1.00273e-08
1.00261e-08
1.00253e-08
1.00239e-08
1.00234e-08
1.0022e-08
1.00221e-08
1.00203e-08
1.00195e-08
1.00134e-08
1.00004e-08
9.9763e-09
9.93284e-09
9.88512e-09
9.71315e-09
9.75985e-09
9.80139e-09
9.82441e-09
9.83684e-09
9.84265e-09
9.84333e-09
9.84511e-09
9.84514e-09
9.84657e-09
9.84714e-09
9.84864e-09
9.84943e-09
9.85076e-09
9.85148e-09
9.85253e-09
9.85307e-09
9.85382e-09
9.85418e-09
9.85468e-09
9.85491e-09
9.85521e-09
9.85532e-09
9.85545e-09
9.85548e-09
9.85546e-09
9.85541e-09
9.85526e-09
9.85512e-09
9.8548e-09
9.85456e-09
9.85405e-09
9.85368e-09
9.85293e-09
9.85239e-09
9.85135e-09
9.85065e-09
9.84933e-09
9.84857e-09
9.8471e-09
9.84656e-09
9.84516e-09
9.84517e-09
9.84343e-09
9.84279e-09
9.83701e-09
9.82463e-09
9.80169e-09
9.76012e-09
9.71342e-09
9.54177e-09
9.58747e-09
9.62711e-09
9.64903e-09
9.66076e-09
9.66628e-09
9.66684e-09
9.66856e-09
9.66861e-09
9.67006e-09
9.67068e-09
9.67221e-09
9.67305e-09
9.67442e-09
9.67518e-09
9.67626e-09
9.67683e-09
9.67759e-09
9.67797e-09
9.67849e-09
9.67872e-09
9.67903e-09
9.67915e-09
9.67928e-09
9.6793e-09
9.67929e-09
9.67924e-09
9.67908e-09
9.67894e-09
9.67861e-09
9.67836e-09
9.67783e-09
9.67745e-09
9.67668e-09
9.67611e-09
9.67504e-09
9.6743e-09
9.67295e-09
9.67214e-09
9.67063e-09
9.67005e-09
9.66863e-09
9.66862e-09
9.66694e-09
9.66642e-09
9.66093e-09
9.64925e-09
9.62741e-09
9.58774e-09
9.54206e-09
9.37044e-09
9.41513e-09
9.45285e-09
9.4737e-09
9.48472e-09
9.48995e-09
9.49038e-09
9.49205e-09
9.49211e-09
9.49358e-09
9.49425e-09
9.49582e-09
9.49671e-09
9.49812e-09
9.49891e-09
9.50002e-09
9.50062e-09
9.50141e-09
9.50181e-09
9.50233e-09
9.50258e-09
9.50289e-09
9.50301e-09
9.50315e-09
9.50317e-09
9.50316e-09
9.50311e-09
9.50294e-09
9.50279e-09
9.50246e-09
9.5022e-09
9.50166e-09
9.50126e-09
9.50046e-09
9.49988e-09
9.49877e-09
9.498e-09
9.4966e-09
9.49574e-09
9.4942e-09
9.49357e-09
9.49214e-09
9.49211e-09
9.49048e-09
9.49009e-09
9.4849e-09
9.47393e-09
9.45316e-09
9.41541e-09
9.37074e-09
9.1989e-09
9.24256e-09
9.27836e-09
9.29817e-09
9.30845e-09
9.31338e-09
9.31369e-09
9.31531e-09
9.31538e-09
9.31688e-09
9.31759e-09
9.3192e-09
9.32013e-09
9.32159e-09
9.32242e-09
9.32356e-09
9.32419e-09
9.325e-09
9.32541e-09
9.32595e-09
9.3262e-09
9.32652e-09
9.32665e-09
9.32679e-09
9.32682e-09
9.3268e-09
9.32674e-09
9.32658e-09
9.32642e-09
9.32608e-09
9.32581e-09
9.32526e-09
9.32484e-09
9.32402e-09
9.32341e-09
9.32228e-09
9.32146e-09
9.32003e-09
9.31912e-09
9.31754e-09
9.31686e-09
9.3154e-09
9.31537e-09
9.31379e-09
9.31353e-09
9.30863e-09
9.29841e-09
9.27867e-09
9.24285e-09
9.19921e-09
9.02691e-09
9.06953e-09
9.10339e-09
9.12219e-09
9.13171e-09
9.13636e-09
9.13653e-09
9.13809e-09
9.13818e-09
9.1397e-09
9.14046e-09
9.14212e-09
9.1431e-09
9.14459e-09
9.14546e-09
9.14664e-09
9.14729e-09
9.14812e-09
9.14855e-09
9.1491e-09
9.14937e-09
9.1497e-09
9.14983e-09
9.14997e-09
9.15e-09
9.14998e-09
9.14992e-09
9.14975e-09
9.14959e-09
9.14924e-09
9.14896e-09
9.1484e-09
9.14796e-09
9.14712e-09
9.14648e-09
9.14531e-09
9.14446e-09
9.14298e-09
9.14203e-09
9.1404e-09
9.13968e-09
9.1382e-09
9.13815e-09
9.13664e-09
9.13651e-09
9.13191e-09
9.12243e-09
9.10371e-09
9.06983e-09
9.02723e-09
8.85429e-09
8.89582e-09
8.92773e-09
8.94556e-09
8.95431e-09
8.95866e-09
8.95871e-09
8.9602e-09
8.96031e-09
8.96185e-09
8.96266e-09
8.96436e-09
8.96539e-09
8.96692e-09
8.96784e-09
8.96904e-09
8.96972e-09
8.97058e-09
8.97103e-09
8.97159e-09
8.97186e-09
8.9722e-09
8.97234e-09
8.97248e-09
8.97251e-09
8.97249e-09
8.97243e-09
8.97226e-09
8.97209e-09
8.97173e-09
8.97144e-09
8.97086e-09
8.9704e-09
8.96955e-09
8.96887e-09
8.96768e-09
8.96678e-09
8.96527e-09
8.96426e-09
8.9626e-09
8.96183e-09
8.96033e-09
8.96027e-09
8.95881e-09
8.95881e-09
8.95451e-09
8.94581e-09
8.92806e-09
8.89613e-09
8.85462e-09
8.68085e-09
8.72125e-09
8.75122e-09
8.76809e-09
8.77606e-09
8.78011e-09
8.78002e-09
8.78146e-09
8.78158e-09
8.78314e-09
8.784e-09
8.78574e-09
8.78682e-09
8.7884e-09
8.78935e-09
8.79059e-09
8.7913e-09
8.79218e-09
8.79265e-09
8.79323e-09
8.79351e-09
8.79385e-09
8.79399e-09
8.79414e-09
8.79417e-09
8.79415e-09
8.79409e-09
8.79391e-09
8.79374e-09
8.79337e-09
8.79307e-09
8.79248e-09
8.792e-09
8.79112e-09
8.79042e-09
8.78919e-09
8.78825e-09
8.7867e-09
8.78564e-09
8.78394e-09
8.78312e-09
8.7816e-09
8.78152e-09
8.78013e-09
8.78027e-09
8.77627e-09
8.76834e-09
8.75155e-09
8.72156e-09
8.68119e-09
8.50644e-09
8.54564e-09
8.57368e-09
8.58961e-09
8.5968e-09
8.60055e-09
8.60032e-09
8.6017e-09
8.60183e-09
8.60342e-09
8.60433e-09
8.60611e-09
8.60724e-09
8.60887e-09
8.60986e-09
8.61113e-09
8.61187e-09
8.61277e-09
8.61326e-09
8.61385e-09
8.61414e-09
8.61449e-09
8.61464e-09
8.61479e-09
8.61482e-09
8.6148e-09
8.61473e-09
8.61455e-09
8.61437e-09
8.614e-09
8.61369e-09
8.61308e-09
8.61258e-09
8.61168e-09
8.61095e-09
8.60969e-09
8.60871e-09
8.60711e-09
8.60601e-09
8.60426e-09
8.60339e-09
8.60185e-09
8.60176e-09
8.60044e-09
8.60071e-09
8.59701e-09
8.58987e-09
8.57401e-09
8.54595e-09
8.5068e-09
8.33093e-09
8.36884e-09
8.39498e-09
8.41e-09
8.41638e-09
8.41984e-09
8.41947e-09
8.42078e-09
8.42093e-09
8.42254e-09
8.4235e-09
8.42533e-09
8.42651e-09
8.42818e-09
8.42921e-09
8.43052e-09
8.43128e-09
8.43221e-09
8.43271e-09
8.43332e-09
8.43362e-09
8.43398e-09
8.43413e-09
8.43428e-09
8.43431e-09
8.43429e-09
8.43423e-09
8.43404e-09
8.43385e-09
8.43347e-09
8.43315e-09
8.43253e-09
8.43202e-09
8.43109e-09
8.43033e-09
8.42903e-09
8.42802e-09
8.42637e-09
8.42522e-09
8.42343e-09
8.42252e-09
8.42095e-09
8.42085e-09
8.41959e-09
8.42001e-09
8.4166e-09
8.41026e-09
8.39532e-09
8.36916e-09
8.33131e-09
8.1542e-09
8.19074e-09
8.215e-09
8.22911e-09
8.2347e-09
8.23785e-09
8.23734e-09
8.23859e-09
8.23875e-09
8.24039e-09
8.24139e-09
8.24327e-09
8.2445e-09
8.24621e-09
8.24729e-09
8.24863e-09
8.24942e-09
8.25037e-09
8.25089e-09
8.25151e-09
8.25183e-09
8.25219e-09
8.25234e-09
8.2525e-09
8.25253e-09
8.25251e-09
8.25244e-09
8.25225e-09
8.25206e-09
8.25167e-09
8.25134e-09
8.2507e-09
8.25017e-09
8.24922e-09
8.24843e-09
8.2471e-09
8.24605e-09
8.24436e-09
8.24316e-09
8.24132e-09
8.24036e-09
8.23877e-09
8.23866e-09
8.23746e-09
8.23802e-09
8.23493e-09
8.22938e-09
8.21534e-09
8.19107e-09
8.1546e-09
7.97613e-09
8.01124e-09
8.03362e-09
8.04684e-09
8.05164e-09
8.05449e-09
8.05383e-09
8.05502e-09
8.05519e-09
8.05685e-09
8.05791e-09
8.05983e-09
8.06111e-09
8.06287e-09
8.06398e-09
8.06536e-09
8.06618e-09
8.06715e-09
8.06769e-09
8.06833e-09
8.06865e-09
8.06902e-09
8.06918e-09
8.06934e-09
8.06937e-09
8.06935e-09
8.06928e-09
8.06908e-09
8.06889e-09
8.06849e-09
8.06815e-09
8.0675e-09
8.06695e-09
8.06597e-09
8.06515e-09
8.06379e-09
8.06269e-09
8.06096e-09
8.05971e-09
8.05783e-09
8.05682e-09
8.05521e-09
8.05509e-09
8.05396e-09
8.05466e-09
8.05187e-09
8.04713e-09
8.03398e-09
8.01157e-09
7.97653e-09
7.79661e-09
7.83024e-09
7.85077e-09
7.86311e-09
7.86712e-09
7.86965e-09
7.86886e-09
7.86997e-09
7.87016e-09
7.87185e-09
7.87295e-09
7.87492e-09
7.87625e-09
7.87805e-09
7.8792e-09
7.88061e-09
7.88146e-09
7.88246e-09
7.88302e-09
7.88367e-09
7.884e-09
7.88438e-09
7.88454e-09
7.8847e-09
7.88474e-09
7.88472e-09
7.88464e-09
7.88444e-09
7.88424e-09
7.88383e-09
7.88348e-09
7.88281e-09
7.88225e-09
7.88125e-09
7.8804e-09
7.879e-09
7.87787e-09
7.87609e-09
7.8748e-09
7.87287e-09
7.87181e-09
7.87017e-09
7.87004e-09
7.86898e-09
7.86983e-09
7.86736e-09
7.8634e-09
7.85113e-09
7.83059e-09
7.79703e-09
7.61557e-09
7.64769e-09
7.66636e-09
7.67782e-09
7.68106e-09
7.68327e-09
7.68233e-09
7.68338e-09
7.68358e-09
7.68529e-09
7.68644e-09
7.68846e-09
7.68984e-09
7.69168e-09
7.69287e-09
7.69432e-09
7.6952e-09
7.69622e-09
7.69679e-09
7.69746e-09
7.6978e-09
7.69819e-09
7.69835e-09
7.69852e-09
7.69855e-09
7.69853e-09
7.69846e-09
7.69825e-09
7.69804e-09
7.69763e-09
7.69726e-09
7.69658e-09
7.696e-09
7.69497e-09
7.6941e-09
7.69267e-09
7.69149e-09
7.68968e-09
7.68833e-09
7.68636e-09
7.68525e-09
7.68359e-09
7.68345e-09
7.68246e-09
7.68345e-09
7.6813e-09
7.67812e-09
7.66673e-09
7.64804e-09
7.616e-09
7.43293e-09
7.46351e-09
7.48033e-09
7.49092e-09
7.49341e-09
7.49528e-09
7.4942e-09
7.49518e-09
7.49539e-09
7.49713e-09
7.49833e-09
7.50039e-09
7.50182e-09
7.5037e-09
7.50493e-09
7.50641e-09
7.50732e-09
7.50837e-09
7.50896e-09
7.50964e-09
7.50999e-09
7.51038e-09
7.51055e-09
7.51072e-09
7.51076e-09
7.51073e-09
7.51066e-09
7.51045e-09
7.51023e-09
7.50981e-09
7.50944e-09
7.50874e-09
7.50814e-09
7.50709e-09
7.50619e-09
7.50472e-09
7.50351e-09
7.50165e-09
7.50026e-09
7.49824e-09
7.49709e-09
7.49541e-09
7.49525e-09
7.49433e-09
7.49547e-09
7.49366e-09
7.49122e-09
7.4807e-09
7.46387e-09
7.43337e-09
7.24864e-09
7.27766e-09
7.29263e-09
7.30235e-09
7.30411e-09
7.30564e-09
7.30442e-09
7.30533e-09
7.30555e-09
7.30731e-09
7.30856e-09
7.31066e-09
7.31214e-09
7.31407e-09
7.31534e-09
7.31685e-09
7.31778e-09
7.31885e-09
7.31946e-09
7.32015e-09
7.32052e-09
7.32092e-09
7.32109e-09
7.32126e-09
7.3213e-09
7.32128e-09
7.3212e-09
7.32098e-09
7.32076e-09
7.32033e-09
7.31995e-09
7.31924e-09
7.31862e-09
7.31755e-09
7.31662e-09
7.31512e-09
7.31387e-09
7.31197e-09
7.31053e-09
7.30847e-09
7.30727e-09
7.30557e-09
7.3054e-09
7.30456e-09
7.30584e-09
7.30436e-09
7.30266e-09
7.29301e-09
7.27803e-09
7.24909e-09
7.06264e-09
7.09011e-09
7.10321e-09
7.11208e-09
7.11312e-09
7.11431e-09
7.11295e-09
7.11378e-09
7.11403e-09
7.11581e-09
7.1171e-09
7.11925e-09
7.12077e-09
7.12274e-09
7.12405e-09
7.12559e-09
7.12655e-09
7.12764e-09
7.12827e-09
7.12897e-09
7.12934e-09
7.12975e-09
7.12993e-09
7.13011e-09
7.13014e-09
7.13012e-09
7.13004e-09
7.12982e-09
7.1296e-09
7.12916e-09
7.12876e-09
7.12804e-09
7.1274e-09
7.12631e-09
7.12535e-09
7.12382e-09
7.12253e-09
7.1206e-09
7.11911e-09
7.11701e-09
7.11576e-09
7.11404e-09
7.11386e-09
7.11309e-09
7.11451e-09
7.11338e-09
7.1124e-09
7.1036e-09
7.0905e-09
7.06311e-09
6.8749e-09
6.90085e-09
6.91205e-09
6.92008e-09
6.92042e-09
6.92126e-09
6.91977e-09
6.92053e-09
6.92078e-09
6.92258e-09
6.92393e-09
6.92611e-09
6.92768e-09
6.92968e-09
6.93103e-09
6.9326e-09
6.93359e-09
6.9347e-09
6.93534e-09
6.93606e-09
6.93644e-09
6.93686e-09
6.93704e-09
6.93722e-09
6.93726e-09
6.93723e-09
6.93715e-09
6.93693e-09
6.9367e-09
6.93625e-09
6.93585e-09
6.93511e-09
6.93445e-09
6.93334e-09
6.93236e-09
6.9308e-09
6.92947e-09
6.9275e-09
6.92597e-09
6.92383e-09
6.92254e-09
6.9208e-09
6.9206e-09
6.91991e-09
6.92146e-09
6.92068e-09
6.92041e-09
6.91245e-09
6.90124e-09
6.87537e-09
6.68538e-09
6.70978e-09
6.71916e-09
6.72631e-09
6.72597e-09
6.72646e-09
6.72484e-09
6.72552e-09
6.72579e-09
6.72761e-09
6.729e-09
6.73122e-09
6.73284e-09
6.73487e-09
6.73625e-09
6.73785e-09
6.73887e-09
6.74e-09
6.74066e-09
6.74139e-09
6.74178e-09
6.7422e-09
6.74238e-09
6.74256e-09
6.7426e-09
6.74258e-09
6.74249e-09
6.74227e-09
6.74203e-09
6.74158e-09
6.74117e-09
6.74042e-09
6.73975e-09
6.73861e-09
6.73761e-09
6.73602e-09
6.73466e-09
6.73265e-09
6.73107e-09
6.7289e-09
6.72756e-09
6.72581e-09
6.7256e-09
6.72499e-09
6.72667e-09
6.72624e-09
6.72665e-09
6.71956e-09
6.71019e-09
6.68586e-09
6.50051e-09
6.5236e-09
6.53122e-09
6.53756e-09
6.53655e-09
6.53671e-09
6.53495e-09
6.53556e-09
6.53584e-09
6.53767e-09
6.5391e-09
6.54135e-09
6.543e-09
6.54507e-09
6.54648e-09
6.54811e-09
6.54914e-09
6.55029e-09
6.55096e-09
6.5517e-09
6.5521e-09
6.55253e-09
6.55272e-09
6.55289e-09
6.55293e-09
6.55291e-09
6.55282e-09
6.5526e-09
6.55236e-09
6.5519e-09
6.55148e-09
6.55072e-09
6.55003e-09
6.54888e-09
6.54786e-09
6.54625e-09
6.54486e-09
6.54282e-09
6.5412e-09
6.539e-09
6.53763e-09
6.53586e-09
6.53565e-09
6.5351e-09
6.53693e-09
6.53683e-09
6.53791e-09
6.53163e-09
6.52403e-09
6.501e-09
6.30999e-09
6.33188e-09
6.33757e-09
6.34289e-09
6.34102e-09
6.34079e-09
6.33884e-09
6.33943e-09
6.33976e-09
6.34171e-09
6.34326e-09
6.34565e-09
6.34743e-09
6.34963e-09
6.35115e-09
6.35289e-09
6.35401e-09
6.35524e-09
6.35598e-09
6.35678e-09
6.35722e-09
6.35768e-09
6.35789e-09
6.35809e-09
6.35814e-09
6.35811e-09
6.35801e-09
6.35777e-09
6.3575e-09
6.35701e-09
6.35654e-09
6.35573e-09
6.35498e-09
6.35374e-09
6.35263e-09
6.35091e-09
6.34941e-09
6.34724e-09
6.3455e-09
6.34316e-09
6.34167e-09
6.33979e-09
6.33953e-09
6.33901e-09
6.34102e-09
6.34133e-09
6.34326e-09
6.338e-09
6.33234e-09
6.31051e-09
6.11585e-09
6.13621e-09
6.14022e-09
6.14462e-09
6.14212e-09
6.14153e-09
6.13947e-09
6.13999e-09
6.14034e-09
6.14229e-09
6.14389e-09
6.14631e-09
6.14814e-09
6.15037e-09
6.15192e-09
6.15368e-09
6.15483e-09
6.15608e-09
6.15683e-09
6.15764e-09
6.15809e-09
6.15856e-09
6.15878e-09
6.15897e-09
6.15902e-09
6.15899e-09
6.1589e-09
6.15865e-09
6.15838e-09
6.15788e-09
6.1574e-09
6.15658e-09
6.15581e-09
6.15456e-09
6.15342e-09
6.15168e-09
6.15015e-09
6.14795e-09
6.14616e-09
6.14379e-09
6.14226e-09
6.14037e-09
6.14009e-09
6.13965e-09
6.14178e-09
6.14244e-09
6.145e-09
6.14067e-09
6.13668e-09
6.11639e-09
5.92662e-09
5.94567e-09
5.94806e-09
5.9516e-09
5.94849e-09
5.94757e-09
5.94538e-09
5.94582e-09
5.94618e-09
5.94815e-09
5.94978e-09
5.95223e-09
5.95409e-09
5.95635e-09
5.95793e-09
5.95971e-09
5.96087e-09
5.96214e-09
5.96291e-09
5.96373e-09
5.96418e-09
5.96465e-09
5.96487e-09
5.96507e-09
5.96512e-09
5.9651e-09
5.965e-09
5.96474e-09
5.96447e-09
5.96396e-09
5.96349e-09
5.96265e-09
5.96187e-09
5.9606e-09
5.95945e-09
5.95768e-09
5.95612e-09
5.9539e-09
5.95208e-09
5.94968e-09
5.94812e-09
5.94622e-09
5.94593e-09
5.94557e-09
5.94783e-09
5.94882e-09
5.952e-09
5.94852e-09
5.94617e-09
5.92717e-09
5.73633e-09
5.75408e-09
5.75488e-09
5.75758e-09
5.75386e-09
5.75262e-09
5.7503e-09
5.75067e-09
5.75104e-09
5.75302e-09
5.75468e-09
5.75716e-09
5.75904e-09
5.76132e-09
5.76292e-09
5.76472e-09
5.7659e-09
5.76719e-09
5.76796e-09
5.76879e-09
5.76925e-09
5.76973e-09
5.76995e-09
5.77015e-09
5.7702e-09
5.77017e-09
5.77007e-09
5.76982e-09
5.76955e-09
5.76903e-09
5.76855e-09
5.7677e-09
5.76692e-09
5.76564e-09
5.76447e-09
5.76268e-09
5.7611e-09
5.75886e-09
5.75701e-09
5.75459e-09
5.753e-09
5.75109e-09
5.7508e-09
5.75051e-09
5.7529e-09
5.75421e-09
5.75799e-09
5.75536e-09
5.75459e-09
5.73689e-09
5.54266e-09
5.55966e-09
5.55884e-09
5.56056e-09
5.55601e-09
5.55437e-09
5.55186e-09
5.55224e-09
5.55267e-09
5.55481e-09
5.55663e-09
5.55929e-09
5.56134e-09
5.5638e-09
5.56554e-09
5.56749e-09
5.56878e-09
5.57018e-09
5.57105e-09
5.57196e-09
5.57247e-09
5.573e-09
5.57325e-09
5.57348e-09
5.57353e-09
5.57351e-09
5.57339e-09
5.57311e-09
5.57281e-09
5.57225e-09
5.57171e-09
5.57078e-09
5.56991e-09
5.56851e-09
5.56723e-09
5.5653e-09
5.56359e-09
5.56116e-09
5.55916e-09
5.55656e-09
5.55482e-09
5.55276e-09
5.5524e-09
5.55211e-09
5.5547e-09
5.55641e-09
5.56103e-09
5.55938e-09
5.56024e-09
5.54329e-09
5.34412e-09
5.35963e-09
5.35735e-09
5.35815e-09
5.35307e-09
5.3511e-09
5.34849e-09
5.34879e-09
5.34925e-09
5.35139e-09
5.35325e-09
5.35594e-09
5.35802e-09
5.3605e-09
5.36227e-09
5.36423e-09
5.36554e-09
5.36696e-09
5.36784e-09
5.36876e-09
5.36928e-09
5.36982e-09
5.37008e-09
5.37031e-09
5.37037e-09
5.37034e-09
5.37022e-09
5.36993e-09
5.36963e-09
5.36906e-09
5.36852e-09
5.36758e-09
5.3667e-09
5.36529e-09
5.36399e-09
5.36204e-09
5.3603e-09
5.35785e-09
5.35582e-09
5.35319e-09
5.35142e-09
5.34935e-09
5.34898e-09
5.34876e-09
5.35145e-09
5.35349e-09
5.35866e-09
5.35792e-09
5.36024e-09
5.34477e-09
5.1446e-09
5.15863e-09
5.15496e-09
5.15486e-09
5.14926e-09
5.14696e-09
5.14427e-09
5.1445e-09
5.14498e-09
5.14713e-09
5.14903e-09
5.15173e-09
5.15384e-09
5.15634e-09
5.15814e-09
5.16011e-09
5.16144e-09
5.16286e-09
5.16377e-09
5.1647e-09
5.16522e-09
5.16576e-09
5.16602e-09
5.16626e-09
5.16632e-09
5.16629e-09
5.16617e-09
5.16588e-09
5.16557e-09
5.165e-09
5.16445e-09
5.16351e-09
5.16262e-09
5.1612e-09
5.15988e-09
5.15792e-09
5.15615e-09
5.15369e-09
5.15162e-09
5.14898e-09
5.14718e-09
5.1451e-09
5.14471e-09
5.14457e-09
5.14734e-09
5.14971e-09
5.15539e-09
5.15556e-09
5.15928e-09
5.14529e-09
4.95077e-09
4.96355e-09
4.95849e-09
4.95758e-09
4.95147e-09
4.94887e-09
4.94609e-09
4.94624e-09
4.94673e-09
4.9489e-09
4.95082e-09
4.95354e-09
4.95568e-09
4.95819e-09
4.96e-09
4.96199e-09
4.96332e-09
4.96476e-09
4.96568e-09
4.96661e-09
4.96714e-09
4.96769e-09
4.96795e-09
4.96818e-09
4.96824e-09
4.96821e-09
4.96809e-09
4.9678e-09
4.9675e-09
4.96693e-09
4.96637e-09
4.96543e-09
4.96453e-09
4.9631e-09
4.96178e-09
4.9598e-09
4.95802e-09
4.95554e-09
4.95345e-09
4.95079e-09
4.94898e-09
4.94689e-09
4.94649e-09
4.94642e-09
4.94929e-09
4.95196e-09
4.95815e-09
4.95913e-09
4.96423e-09
4.95148e-09
4.75666e-09
4.76821e-09
4.76183e-09
4.76013e-09
4.75353e-09
4.75065e-09
4.74778e-09
4.74786e-09
4.74837e-09
4.75053e-09
4.75248e-09
4.75521e-09
4.75737e-09
4.75989e-09
4.76171e-09
4.76371e-09
4.76506e-09
4.7665e-09
4.76744e-09
4.76837e-09
4.7689e-09
4.76945e-09
4.76971e-09
4.76995e-09
4.77001e-09
4.76998e-09
4.76986e-09
4.76957e-09
4.76927e-09
4.7687e-09
4.76814e-09
4.76719e-09
4.76629e-09
4.76485e-09
4.76352e-09
4.76154e-09
4.75974e-09
4.75726e-09
4.75515e-09
4.75247e-09
4.75065e-09
4.74856e-09
4.74815e-09
4.74815e-09
4.75111e-09
4.75407e-09
4.76075e-09
4.76251e-09
4.76893e-09
4.75741e-09
4.56253e-09
4.57287e-09
4.56523e-09
4.56277e-09
4.55571e-09
4.55256e-09
4.54961e-09
4.54963e-09
4.55014e-09
4.55231e-09
4.55427e-09
4.55701e-09
4.55918e-09
4.56172e-09
4.56355e-09
4.56555e-09
4.5669e-09
4.56834e-09
4.5693e-09
4.57024e-09
4.57077e-09
4.57131e-09
4.57158e-09
4.57181e-09
4.57187e-09
4.57184e-09
4.57172e-09
4.57143e-09
4.57114e-09
4.57057e-09
4.57002e-09
4.56906e-09
4.56816e-09
4.56672e-09
4.56539e-09
4.5634e-09
4.56159e-09
4.5591e-09
4.55698e-09
4.5543e-09
4.55247e-09
4.55038e-09
4.54996e-09
4.55003e-09
4.55307e-09
4.5563e-09
4.56344e-09
4.56597e-09
4.57365e-09
4.56333e-09
4.36867e-09
4.37782e-09
4.36898e-09
4.36579e-09
4.35831e-09
4.3549e-09
4.35188e-09
4.35183e-09
4.35236e-09
4.35452e-09
4.3565e-09
4.35924e-09
4.36143e-09
4.36396e-09
4.3658e-09
4.3678e-09
4.36915e-09
4.37059e-09
4.37157e-09
4.3725e-09
4.37303e-09
4.37358e-09
4.37384e-09
4.37407e-09
4.37414e-09
4.3741e-09
4.37398e-09
4.37369e-09
4.37342e-09
4.37285e-09
4.37229e-09
4.37134e-09
4.37044e-09
4.369e-09
4.36767e-09
4.36568e-09
4.36387e-09
4.36138e-09
4.35924e-09
4.35656e-09
4.35474e-09
4.35265e-09
4.35222e-09
4.35236e-09
4.35547e-09
4.35896e-09
4.36652e-09
4.36978e-09
4.37865e-09
4.36952e-09
4.17456e-09
4.1755e-09
4.17602e-09
4.17657e-09
4.17682e-09
4.17706e-09
4.17712e-09
4.17709e-09
4.17697e-09
4.17668e-09
4.17642e-09
4.17585e-09
4.1753e-09
4.17435e-09
4.17345e-09
4.17202e-09
4.17069e-09
4.1687e-09
4.1669e-09
4.16441e-09
4.16227e-09
4.1596e-09
4.15778e-09
4.15569e-09
4.15526e-09
4.15547e-09
4.15863e-09
4.16237e-09
4.17031e-09
4.17427e-09
4.18426e-09
4.1763e-09
3.97663e-09
3.97605e-09
3.97548e-09
3.9745e-09
3.97357e-09
3.9721e-09
3.97072e-09
3.96868e-09
3.96682e-09
3.96427e-09
3.96206e-09
3.95932e-09
3.95746e-09
3.95529e-09
3.95481e-09
3.95506e-09
3.95829e-09
3.9623e-09
3.9707e-09
3.97539e-09
3.98647e-09
3.97942e-09
3.76281e-09
3.76063e-09
3.76015e-09
3.76045e-09
3.76372e-09
3.76794e-09
3.77664e-09
3.78195e-09
3.79401e-09
3.78806e-09
)
;

boundaryField
{
    fuel
    {
        type            fixedValue;
        value           nonuniform 0();
    }
    wall
    {
        type            zeroGradient;
    }
    outlet
    {
        type            zeroGradient;
    }
    frontAndBack
    {
        type            empty;
    }
    procBoundary0to1
    {
        type            processor;
        value           nonuniform List<scalar> 
50
(
1.15267e-08
1.15862e-08
1.16488e-08
1.16835e-08
1.17016e-08
1.17105e-08
1.1712e-08
1.17144e-08
1.1714e-08
1.17154e-08
1.17155e-08
1.17167e-08
1.1717e-08
1.17181e-08
1.17184e-08
1.17192e-08
1.17195e-08
1.17201e-08
1.17203e-08
1.17207e-08
1.17208e-08
1.17211e-08
1.17211e-08
1.17212e-08
1.17213e-08
1.17212e-08
1.17212e-08
1.17211e-08
1.1721e-08
1.17208e-08
1.17206e-08
1.17202e-08
1.172e-08
1.17194e-08
1.17192e-08
1.17183e-08
1.1718e-08
1.1717e-08
1.17167e-08
1.17154e-08
1.17154e-08
1.17141e-08
1.17144e-08
1.17121e-08
1.17106e-08
1.17018e-08
1.16836e-08
1.1649e-08
1.15864e-08
1.15269e-08
)
;
    }
    procBoundary0to2
    {
        type            processor;
        value           nonuniform List<scalar> 
53
(
4.17553e-09
4.18353e-09
4.17358e-09
4.1697e-09
4.16183e-09
4.15817e-09
4.15509e-09
4.15497e-09
4.1555e-09
4.15765e-09
4.15963e-09
4.16236e-09
4.16454e-09
4.16706e-09
4.16889e-09
4.17088e-09
4.17222e-09
4.17366e-09
4.17366e-09
3.97476e-09
3.97572e-09
3.97627e-09
3.97682e-09
3.97709e-09
3.97733e-09
3.9774e-09
3.97737e-09
3.97724e-09
3.97694e-09
3.97694e-09
3.78193e-09
3.78136e-09
3.78079e-09
3.77983e-09
3.77891e-09
3.77745e-09
3.77609e-09
3.77407e-09
3.77222e-09
3.76969e-09
3.7675e-09
3.76477e-09
3.76477e-09
3.57007e-09
3.5679e-09
3.56743e-09
3.56779e-09
3.57108e-09
3.5755e-09
3.58447e-09
3.59034e-09
3.60328e-09
3.59836e-09
)
;
    }
}


// ************************************************************************* //
