/*--------------------------------*- C++ -*----------------------------------*\
| =========                 |                                                 |
| \\      /  F ield         | OpenFOAM: The Open Source CFD Toolbox           |
|  \\    /   O peration     | Version:  dev                                   |
|   \\  /    A nd           | Web:      www.OpenFOAM.org                      |
|    \\/     M anipulation  |                                                 |
\*---------------------------------------------------------------------------*/
FoamFile
{
    version     2.0;
    format      ascii;
    class       volScalarField;
    location    "0.03";
    object      dQ;
}
// * * * * * * * * * * * * * * * * * * * * * * * * * * * * * * * * * * * * * //

dimensions      [1 2 -3 0 0 0 0];

internalField   nonuniform List<scalar> 
250
(
-0.00211403
-0.00215127
-0.00211027
-0.00218897
-0.00210334
-0.00226746
-0.00212277
-0.00222412
-0.00206771
-0.00231757
-0.00161818
-0.00165458
-0.0016019
-0.00169172
-0.00159235
-0.00176651
-0.00163422
-0.00175877
-0.0015852
-0.00161543
-8.69626e-05
-0.000790362
-0.00130116
-0.001039
-0.00124883
-0.00102324
-0.00115034
-0.00104728
-0.00110624
-0.0010653
-0.00106523
-0.00110463
-0.00105012
-0.00114289
-0.00103795
-0.0012216
-0.00108954
-0.00125359
-0.00106809
-0.000930681
0.000536223
-0.000279415
-0.000755583
-0.000451604
-0.000658401
-0.000424306
-0.000557101
-0.000450222
-0.000512794
-0.000468837
-0.000468717
-0.000511162
-0.000453213
-0.000549443
-0.00043942
-0.000630405
-0.00050253
-0.000704137
-0.000541426
-0.000282908
0.00107563
0.000255767
-0.000165099
0.000177769
-2.27983e-05
0.000214494
8.01193e-05
0.00019088
0.000122568
0.000168472
0.000168641
0.000124136
0.000187687
8.78797e-05
0.000199391
5.28579e-06
0.000124625
-0.000110065
2.10754e-05
0.000322036
0.00154676
0.000803068
0.000467831
0.000840638
0.000650611
0.000882469
0.000755925
0.000872052
0.000792175
0.000837996
0.000838211
0.000793527
0.000868471
0.000763949
0.000867992
0.000677958
0.000784377
0.000524319
0.000597977
0.000880206
0.00195601
0.00136462
0.00113274
0.00150397
0.00134613
0.00155977
0.00144252
0.00154284
0.00148122
0.00152406
0.00152434
0.00148212
0.00154047
0.00144969
0.00154675
0.00137123
0.00146201
0.00118774
0.00118793
0.00138879
0.00228477
0.00192501
0.00181073
0.00216072
0.0020375
0.00221618
0.00212422
0.00221789
0.00216813
0.00220429
0.00220471
0.00216843
0.00221645
0.00213125
0.00220566
0.00205865
0.00213493
0.00186047
0.00177757
0.00184808
0.00259471
0.00246299
0.00246797
0.00275475
0.00268638
0.00280995
0.00274293
0.00280075
0.00275714
0.00278607
0.00278627
0.00275756
0.0027991
0.00274698
0.00280305
0.0027011
0.00272708
0.00250247
0.00234232
0.00225803
0.00284948
0.00290068
0.00306005
0.0032454
0.00324315
0.00329165
0.00326511
0.00328924
0.0032692
0.00328559
0.00328567
0.00326942
0.0032885
0.00326677
0.00328948
0.00324905
0.00323255
0.00307514
0.00283087
0.00261945
0.00308209
0.00324193
0.00353071
0.00357407
0.00365237
0.00361038
0.00363484
0.0036164
0.00362504
0.00362508
0.00362499
0.00362493
0.00361673
0.00363356
0.0036137
0.00364751
0.00358008
0.00352014
0.00321416
0.00292376
0.00322513
0.00343026
0.00382493
0.00370248
0.00386457
0.00372763
0.00380743
0.00374314
0.00378252
0.00376438
0.00376405
0.00378209
0.00374456
0.00380308
0.00373643
0.00384827
0.00372715
0.00378519
0.00344369
0.00310798
0.00329455
0.00344079
0.00390489
0.0036207
0.00385477
0.00363512
0.00376422
0.00365938
0.00372608
0.00369114
0.00369049
0.0037254
0.00366163
0.00375723
0.00364833
0.0038282
0.00366062
0.00383682
0.0034907
0.00319726
0.00343549
0.00348221
0.00340132
0.00352096
0.00338441
0.0036078
0.00341212
0.00368117
0.00335939
0.00316237
)
;

boundaryField
{
    fuel
    {
        type            calculated;
        value           nonuniform 0();
    }
    wall
    {
        type            calculated;
        value           nonuniform 0();
    }
    outlet
    {
        type            calculated;
        value           uniform 0;
    }
    frontAndBack
    {
        type            empty;
    }
    procBoundary0to1
    {
        type            processor;
        value           uniform 0;
    }
    procBoundary0to2
    {
        type            processor;
        value           uniform 0;
    }
    procBoundary0to3
    {
        type            processor;
        value           uniform 0;
    }
}


// ************************************************************************* //
