/*--------------------------------*- C++ -*----------------------------------*\
| =========                 |                                                 |
| \\      /  F ield         | OpenFOAM: The Open Source CFD Toolbox           |
|  \\    /   O peration     | Version:  dev                                   |
|   \\  /    A nd           | Web:      www.OpenFOAM.org                      |
|    \\/     M anipulation  |                                                 |
\*---------------------------------------------------------------------------*/
FoamFile
{
    version     2.0;
    format      ascii;
    class       volScalarField;
    location    "0.03";
    object      HCCOH;
}
// * * * * * * * * * * * * * * * * * * * * * * * * * * * * * * * * * * * * * //

dimensions      [0 0 0 0 0 0 0];

internalField   nonuniform List<scalar> 
250
(
6.13469e-06
6.15507e-06
6.12143e-06
6.19252e-06
6.12866e-06
6.29477e-06
6.27205e-06
6.67587e-06
6.87116e-06
7.58599e-06
5.84576e-06
5.86971e-06
5.83989e-06
5.90852e-06
5.84773e-06
6.0126e-06
5.97908e-06
6.37159e-06
6.50872e-06
7.11321e-06
6.64825e-06
6.00951e-06
6.12126e-06
5.65931e-06
5.75004e-06
5.55464e-06
5.63351e-06
5.55499e-06
5.58989e-06
5.56291e-06
5.56297e-06
5.58892e-06
5.55712e-06
5.62805e-06
5.56522e-06
5.72914e-06
5.69259e-06
6.06638e-06
6.15724e-06
6.6588e-06
6.20984e-06
5.69743e-06
5.81393e-06
5.36844e-06
5.46259e-06
5.26785e-06
5.34858e-06
5.26842e-06
5.30457e-06
5.27586e-06
5.27585e-06
5.3036e-06
5.27051e-06
5.3432e-06
5.27834e-06
5.44168e-06
5.40174e-06
5.75835e-06
5.80309e-06
6.22604e-06
5.79935e-06
5.37901e-06
5.50141e-06
5.07066e-06
5.16851e-06
4.97397e-06
5.05692e-06
4.97554e-06
5.01241e-06
4.98214e-06
4.98209e-06
5.01143e-06
4.97758e-06
5.05157e-06
4.98443e-06
5.14757e-06
5.10388e-06
5.44522e-06
5.48702e-06
5.81382e-06
5.40904e-06
5.05301e-06
5.18099e-06
4.7636e-06
4.86523e-06
4.67056e-06
4.75634e-06
4.67435e-06
4.71119e-06
4.67947e-06
4.67937e-06
4.71019e-06
4.67633e-06
4.75106e-06
4.68102e-06
4.84435e-06
4.79673e-06
5.12435e-06
5.16127e-06
5.41631e-06
5.02999e-06
4.71998e-06
4.8503e-06
4.44157e-06
4.55048e-06
4.35558e-06
4.44019e-06
4.35193e-06
4.39902e-06
4.36596e-06
4.36584e-06
4.398e-06
4.35433e-06
4.43453e-06
4.36605e-06
4.52901e-06
4.47842e-06
4.79341e-06
4.81879e-06
5.02771e-06
4.62612e-06
4.37719e-06
4.50763e-06
4.11119e-06
4.22255e-06
4.0277e-06
4.11447e-06
4.02639e-06
4.07491e-06
4.04074e-06
4.04061e-06
4.07392e-06
4.0288e-06
4.10891e-06
4.03818e-06
4.20109e-06
4.14787e-06
4.45077e-06
4.46977e-06
4.64644e-06
4.26489e-06
4.02331e-06
4.14996e-06
3.76117e-06
3.88048e-06
3.68641e-06
3.77272e-06
3.67807e-06
3.72272e-06
3.68787e-06
3.68761e-06
3.7218e-06
3.68003e-06
3.76647e-06
3.69686e-06
3.85894e-06
3.79367e-06
4.09129e-06
4.1078e-06
4.25203e-06
3.88492e-06
3.64285e-06
3.77939e-06
3.40386e-06
3.52439e-06
3.33246e-06
3.41932e-06
3.32538e-06
3.3714e-06
3.33599e-06
3.33571e-06
3.37055e-06
3.32734e-06
3.41312e-06
3.3428e-06
3.50288e-06
3.43555e-06
3.72126e-06
3.72878e-06
3.87581e-06
3.52188e-06
3.26394e-06
3.39535e-06
3.03443e-06
3.15574e-06
2.9679e-06
3.05473e-06
2.96206e-06
3.00874e-06
2.97297e-06
2.97268e-06
3.00791e-06
2.964e-06
3.0486e-06
2.97804e-06
3.13448e-06
3.06563e-06
3.33817e-06
3.3433e-06
3.49461e-06
3.13317e-06
2.87623e-06
3.00047e-06
2.6572e-06
2.77761e-06
2.59644e-06
2.68212e-06
2.59184e-06
2.63833e-06
2.60271e-06
2.60241e-06
2.63752e-06
2.59374e-06
2.67615e-06
2.60623e-06
2.7569e-06
2.68754e-06
2.94494e-06
2.94926e-06
3.10058e-06
2.75109e-06
2.4841e-06
2.59924e-06
2.27792e-06
2.39497e-06
2.22352e-06
2.30649e-06
2.22012e-06
2.26543e-06
2.23064e-06
2.23033e-06
2.26466e-06
2.22194e-06
2.30079e-06
2.2328e-06
2.37518e-06
2.30678e-06
2.54628e-06
2.55076e-06
2.70837e-06
1.8637e-06
1.89641e-06
1.85582e-06
1.92946e-06
1.86503e-06
1.99636e-06
1.9308e-06
2.14899e-06
2.15397e-06
2.31556e-06
)
;

boundaryField
{
    fuel
    {
        type            fixedValue;
        value           nonuniform 0();
    }
    wall
    {
        type            zeroGradient;
    }
    outlet
    {
        type            zeroGradient;
    }
    frontAndBack
    {
        type            empty;
    }
    procBoundary0to1
    {
        type            processor;
        value           nonuniform List<scalar> 
21
(
2.36232e-06
2.09413e-06
2.19833e-06
1.90409e-06
2.01478e-06
1.85644e-06
1.93477e-06
1.85413e-06
1.89713e-06
1.86401e-06
1.86401e-06
1.51146e-06
1.54164e-06
1.5043e-06
1.57097e-06
1.51193e-06
1.62944e-06
1.56887e-06
1.76205e-06
1.76756e-06
1.92705e-06
)
;
    }
    procBoundary0to2
    {
        type            processor;
        value           nonuniform List<scalar> 
12
(
6.1345e-06
7.1186e-06
6.33845e-06
6.42667e-06
5.94581e-06
6.03358e-06
5.83701e-06
5.91412e-06
5.8377e-06
5.87073e-06
5.84566e-06
5.84566e-06
)
;
    }
    procBoundary0to3
    {
        type            processor;
        value           nonuniform List<scalar> 10(6.41441e-06 6.43352e-06 6.40423e-06 6.47139e-06 6.4106e-06 6.5782e-06 6.55781e-06 6.98006e-06 7.2388e-06 8.0679e-06);
    }
}


// ************************************************************************* //
