/*--------------------------------*- C++ -*----------------------------------*\
| =========                 |                                                 |
| \\      /  F ield         | OpenFOAM: The Open Source CFD Toolbox           |
|  \\    /   O peration     | Version:  dev                                   |
|   \\  /    A nd           | Web:      www.OpenFOAM.org                      |
|    \\/     M anipulation  |                                                 |
\*---------------------------------------------------------------------------*/
FoamFile
{
    version     2.0;
    format      ascii;
    class       volScalarField;
    location    "0.03";
    object      HCCO;
}
// * * * * * * * * * * * * * * * * * * * * * * * * * * * * * * * * * * * * * //

dimensions      [0 0 0 0 0 0 0];

internalField   nonuniform List<scalar> 
25
(
5.14383e-05
4.90502e-05
3.4031e-05
2.08916e-05
1.21639e-05
7.00561e-06
4.04958e-06
2.41113e-06
1.48533e-06
9.51042e-07
6.35453e-07
4.4134e-07
3.16549e-07
2.32698e-07
1.74069e-07
1.32229e-07
1.02212e-07
8.08152e-08
6.59539e-08
5.61276e-08
5.01859e-08
4.72197e-08
4.65022e-08
4.74505e-08
4.96059e-08
)
;

boundaryField
{
    wall
    {
        type            zeroGradient;
    }
    fuel
    {
        type            fixedValue;
        value           uniform 0;
    }
    outlet
    {
        type            inletOutlet;
        inletValue      nonuniform 0();
        value           nonuniform 0();
    }
    procBoundary0to1
    {
        type            processor;
        value           uniform 5.24916e-08;
    }
}


// ************************************************************************* //
