/*--------------------------------*- C++ -*----------------------------------*\
| =========                 |                                                 |
| \\      /  F ield         | OpenFOAM: The Open Source CFD Toolbox           |
|  \\    /   O peration     | Version:  dev                                   |
|   \\  /    A nd           | Web:      www.OpenFOAM.org                      |
|    \\/     M anipulation  |                                                 |
\*---------------------------------------------------------------------------*/
FoamFile
{
    version     2.0;
    format      ascii;
    class       volScalarField;
    location    "0.03";
    object      n-A1C2H2;
}
// * * * * * * * * * * * * * * * * * * * * * * * * * * * * * * * * * * * * * //

dimensions      [0 0 0 0 0 0 0];

internalField   nonuniform List<scalar> 
25
(
3.28135e-11
1.41458e-11
5.04517e-12
1.71421e-12
5.71633e-13
1.90147e-13
6.2535e-14
2.05981e-14
6.73459e-15
2.18541e-15
7.07442e-16
2.28737e-16
7.46238e-17
2.54867e-17
1.01747e-17
5.84903e-18
5.14429e-18
5.75248e-18
6.96992e-18
8.61083e-18
1.06646e-17
1.31975e-17
1.63464e-17
2.03771e-17
2.58414e-17
)
;

boundaryField
{
    wall
    {
        type            zeroGradient;
    }
    fuel
    {
        type            fixedValue;
        value           uniform 0;
    }
    outlet
    {
        type            inletOutlet;
        inletValue      nonuniform 0();
        value           nonuniform 0();
    }
    procBoundary0to1
    {
        type            processor;
        value           uniform 3.40748e-17;
    }
}


// ************************************************************************* //
