/*--------------------------------*- C++ -*----------------------------------*\
| =========                 |                                                 |
| \\      /  F ield         | OpenFOAM: The Open Source CFD Toolbox           |
|  \\    /   O peration     | Version:  dev                                   |
|   \\  /    A nd           | Web:      www.OpenFOAM.org                      |
|    \\/     M anipulation  |                                                 |
\*---------------------------------------------------------------------------*/
FoamFile
{
    version     2.0;
    format      ascii;
    class       volScalarField;
    location    "0.03";
    object      O;
}
// * * * * * * * * * * * * * * * * * * * * * * * * * * * * * * * * * * * * * //

dimensions      [0 0 0 0 0 0 0];

internalField   nonuniform List<scalar> 
250
(
5.82332e-08
5.83655e-08
5.79723e-08
5.79198e-08
5.76937e-08
5.69962e-08
5.68077e-08
4.83973e-08
2.70739e-08
1.70389e-08
5.24346e-08
5.2587e-08
5.22636e-08
5.22305e-08
5.20222e-08
5.13484e-08
5.14646e-08
4.43329e-08
2.65159e-08
1.41539e-08
1.13856e-08
2.5942e-08
3.99633e-08
4.59857e-08
4.55714e-08
4.59814e-08
4.63932e-08
4.6259e-08
4.68593e-08
4.6522e-08
4.65231e-08
4.66913e-08
4.63352e-08
4.63129e-08
4.61232e-08
4.54792e-08
4.5864e-08
3.99392e-08
2.55553e-08
1.2501e-08
1.11344e-08
2.45038e-08
3.52879e-08
4.0216e-08
3.95895e-08
3.99658e-08
4.03747e-08
4.02133e-08
4.08359e-08
4.04802e-08
4.04827e-08
4.06644e-08
4.02924e-08
4.02742e-08
4.01042e-08
3.94968e-08
4.00988e-08
3.52751e-08
2.39945e-08
1.15578e-08
1.09477e-08
2.24125e-08
3.04419e-08
3.44021e-08
3.36254e-08
3.39653e-08
3.43719e-08
3.41848e-08
3.48094e-08
3.44444e-08
3.44477e-08
3.46393e-08
3.42661e-08
3.42477e-08
3.4099e-08
3.35351e-08
3.42922e-08
3.04471e-08
2.18614e-08
1.09232e-08
1.05852e-08
2.00829e-08
2.55681e-08
2.8691e-08
2.78315e-08
2.81328e-08
2.85391e-08
2.83263e-08
2.89321e-08
2.85687e-08
2.85724e-08
2.87692e-08
2.84075e-08
2.83866e-08
2.82624e-08
2.77469e-08
2.85913e-08
2.55949e-08
1.95306e-08
1.03101e-08
9.91214e-09
1.7397e-08
2.08312e-08
2.32444e-08
2.23689e-08
2.26287e-08
2.2866e-08
2.27984e-08
2.33663e-08
2.30163e-08
2.30203e-08
2.32168e-08
2.28771e-08
2.28532e-08
2.27609e-08
2.22929e-08
2.31572e-08
2.08773e-08
1.68803e-08
9.53369e-09
8.90206e-09
1.4514e-08
1.63998e-08
1.8223e-08
1.73911e-08
1.76112e-08
1.78294e-08
1.77564e-08
1.82696e-08
1.79442e-08
1.79479e-08
1.81391e-08
1.78295e-08
1.78031e-08
1.76996e-08
1.7326e-08
1.81498e-08
1.64588e-08
1.40585e-08
8.51959e-09
7.6192e-09
1.16171e-08
1.24261e-08
1.37684e-08
1.3027e-08
1.32089e-08
1.34011e-08
1.33294e-08
1.37771e-08
1.34845e-08
1.34877e-08
1.36714e-08
1.33952e-08
1.33672e-08
1.32909e-08
1.29745e-08
1.37096e-08
1.249e-08
1.12364e-08
7.28931e-09
6.18873e-09
8.88696e-09
9.02608e-09
9.9842e-09
9.36338e-09
9.50832e-09
9.6691e-09
9.60486e-09
9.93921e-09
9.72751e-09
9.73e-09
9.81632e-09
9.65134e-09
9.63406e-09
9.57692e-09
9.32315e-09
9.93898e-09
9.0866e-09
8.58447e-09
5.93358e-09
4.75878e-09
6.47577e-09
6.263e-09
6.92099e-09
6.43226e-09
6.54234e-09
6.66919e-09
6.61688e-09
6.87844e-09
6.70936e-09
6.71111e-09
6.78342e-09
6.65419e-09
6.63807e-09
6.59569e-09
6.40281e-09
6.88742e-09
6.31363e-09
6.24611e-09
4.57652e-09
3.4633e-09
4.48449e-09
4.14046e-09
4.56987e-09
4.20751e-09
4.28609e-09
4.38003e-09
4.34103e-09
4.53443e-09
4.40737e-09
4.40842e-09
4.46516e-09
4.3692e-09
4.35532e-09
4.325e-09
4.18672e-09
4.54524e-09
4.17706e-09
4.31637e-09
3.33873e-09
2.39454e-09
2.95188e-09
2.60613e-09
2.86673e-09
2.61245e-09
2.66397e-09
2.72891e-09
2.70205e-09
2.83672e-09
2.74727e-09
2.74769e-09
2.78918e-09
2.72209e-09
2.71095e-09
2.69055e-09
2.59799e-09
2.84812e-09
2.62728e-09
2.83079e-09
2.30791e-09
1.61921e-09
1.64751e-09
1.60351e-09
1.59516e-09
1.58269e-09
1.52593e-09
1.69194e-09
1.57316e-09
1.76778e-09
1.52389e-09
)
;

boundaryField
{
    fuel
    {
        type            fixedValue;
        value           nonuniform 0();
    }
    wall
    {
        type            zeroGradient;
    }
    outlet
    {
        type            zeroGradient;
    }
    frontAndBack
    {
        type            empty;
    }
    procBoundary0to1
    {
        type            processor;
        value           nonuniform List<scalar> 
21
(
1.58868e-09
1.85516e-09
1.5664e-09
1.7071e-09
1.53633e-09
1.566e-09
1.60738e-09
1.59015e-09
1.67812e-09
1.61932e-09
1.61932e-09
8.98765e-10
9.16869e-10
8.89912e-10
8.84086e-10
8.77646e-10
8.47013e-10
9.5363e-10
9.0254e-10
1.06186e-09
9.77924e-10
)
;
    }
    procBoundary0to2
    {
        type            processor;
        value           nonuniform List<scalar> 
12
(
5.8235e-08
1.21643e-08
2.67008e-08
4.43446e-08
5.15858e-08
5.14376e-08
5.18806e-08
5.22937e-08
5.21895e-08
5.27461e-08
5.24347e-08
5.24347e-08
)
;
    }
    procBoundary0to3
    {
        type            processor;
        value           nonuniform List<scalar> 10(6.35838e-08 6.36992e-08 6.338e-08 6.33003e-08 6.30581e-08 6.23421e-08 6.18227e-08 5.20412e-08 2.73308e-08 2.21661e-08);
    }
}


// ************************************************************************* //
