/*--------------------------------*- C++ -*----------------------------------*\
| =========                 |                                                 |
| \\      /  F ield         | OpenFOAM: The Open Source CFD Toolbox           |
|  \\    /   O peration     | Version:  dev                                   |
|   \\  /    A nd           | Web:      www.OpenFOAM.org                      |
|    \\/     M anipulation  |                                                 |
\*---------------------------------------------------------------------------*/
FoamFile
{
    version     2.0;
    format      ascii;
    class       volScalarField;
    location    "0.03";
    object      OH;
}
// * * * * * * * * * * * * * * * * * * * * * * * * * * * * * * * * * * * * * //

dimensions      [0 0 0 0 0 0 0];

internalField   nonuniform List<scalar> 
250
(
2.62902e-05
2.63315e-05
2.62344e-05
2.62362e-05
2.61977e-05
2.60468e-05
2.61239e-05
2.40619e-05
1.75781e-05
7.99588e-06
2.4651e-05
2.46992e-05
2.46182e-05
2.46253e-05
2.45893e-05
2.44369e-05
2.45855e-05
2.27807e-05
1.73355e-05
8.57761e-06
9.32105e-06
1.71025e-05
2.13906e-05
2.29799e-05
2.27502e-05
2.28311e-05
2.29283e-05
2.28694e-05
2.30328e-05
2.29271e-05
2.29271e-05
2.29817e-05
2.2887e-05
2.28967e-05
2.28632e-05
2.27095e-05
2.29259e-05
2.13671e-05
1.69163e-05
9.08561e-06
9.77697e-06
1.6481e-05
1.9841e-05
2.12035e-05
2.09137e-05
2.09928e-05
2.10964e-05
2.10273e-05
2.12074e-05
2.10907e-05
2.1091e-05
2.11523e-05
2.10471e-05
2.10573e-05
2.10263e-05
2.08719e-05
2.11496e-05
1.98188e-05
1.62443e-05
9.45973e-06
1.00085e-05
1.55801e-05
1.8161e-05
1.93207e-05
1.89808e-05
1.90579e-05
1.91698e-05
1.90899e-05
1.92832e-05
1.91564e-05
1.9157e-05
1.92252e-05
1.91121e-05
1.91212e-05
1.9093e-05
1.89385e-05
1.92679e-05
1.81447e-05
1.53251e-05
9.64709e-06
9.98208e-06
1.45617e-05
1.63709e-05
1.73516e-05
1.69738e-05
1.70487e-05
1.71715e-05
1.70791e-05
1.72819e-05
1.71466e-05
1.71474e-05
1.72221e-05
1.71035e-05
1.71105e-05
1.70861e-05
1.6932e-05
1.73008e-05
1.63634e-05
1.43006e-05
9.61052e-06
9.68159e-06
1.33469e-05
1.4501e-05
1.53251e-05
1.4924e-05
1.49956e-05
1.50679e-05
1.50257e-05
1.52337e-05
1.50921e-05
1.5093e-05
1.51739e-05
1.50518e-05
1.5056e-05
1.50386e-05
1.48836e-05
1.52773e-05
1.45032e-05
1.30914e-05
9.32805e-06
9.11631e-06
1.19697e-05
1.25912e-05
1.32792e-05
1.28705e-05
1.29392e-05
1.30153e-05
1.29688e-05
1.31774e-05
1.30322e-05
1.30331e-05
1.31195e-05
1.2996e-05
1.2997e-05
1.29694e-05
1.28326e-05
1.32353e-05
1.26026e-05
1.17291e-05
8.80104e-06
8.31992e-06
1.04772e-05
1.06895e-05
1.12597e-05
1.08595e-05
1.09251e-05
1.10023e-05
1.09539e-05
1.11588e-05
1.10126e-05
1.10135e-05
1.11057e-05
1.09817e-05
1.09794e-05
1.09576e-05
1.08253e-05
1.12204e-05
1.07085e-05
1.02584e-05
8.05466e-06
7.34662e-06
8.92743e-06
8.84887e-06
9.3169e-06
8.94069e-06
9.00224e-06
9.07755e-06
9.02995e-06
9.20463e-06
9.0829e-06
9.08355e-06
9.13498e-06
9.05194e-06
9.05236e-06
9.03388e-06
8.91081e-06
9.28302e-06
8.87316e-06
8.73493e-06
7.13526e-06
6.26469e-06
7.38439e-06
7.12254e-06
7.50188e-06
7.1626e-06
7.21909e-06
7.28962e-06
7.24561e-06
7.40537e-06
7.29191e-06
7.29229e-06
7.34283e-06
7.26637e-06
7.26449e-06
7.24814e-06
7.13748e-06
7.47374e-06
7.1495e-06
7.22049e-06
6.10485e-06
5.14824e-06
5.91232e-06
5.55842e-06
5.86064e-06
5.56764e-06
5.61805e-06
5.68147e-06
5.64316e-06
5.78382e-06
5.68243e-06
5.68248e-06
5.7296e-06
5.66189e-06
5.65826e-06
5.64371e-06
5.54742e-06
5.8383e-06
5.58554e-06
5.77738e-06
5.03338e-06
4.06816e-06
4.56839e-06
4.19341e-06
4.42879e-06
4.18696e-06
4.23055e-06
4.28534e-06
4.25395e-06
4.37291e-06
4.28626e-06
4.28587e-06
4.32769e-06
4.27013e-06
4.26521e-06
4.25244e-06
4.17153e-06
4.41197e-06
4.21857e-06
4.46115e-06
3.98967e-06
3.11935e-06
3.15479e-06
3.10791e-06
3.10209e-06
3.09116e-06
3.02571e-06
3.2152e-06
3.07067e-06
3.31398e-06
3.03258e-06
)
;

boundaryField
{
    fuel
    {
        type            fixedValue;
        value           nonuniform 0();
    }
    wall
    {
        type            zeroGradient;
    }
    outlet
    {
        type            zeroGradient;
    }
    frontAndBack
    {
        type            empty;
    }
    procBoundary0to1
    {
        type            processor;
        value           nonuniform List<scalar> 
21
(
3.08306e-06
3.39574e-06
3.04897e-06
3.2271e-06
3.03676e-06
3.07317e-06
3.11867e-06
3.09451e-06
3.19094e-06
3.1203e-06
3.1203e-06
2.18337e-06
2.21218e-06
2.17567e-06
2.1693e-06
2.16026e-06
2.10943e-06
2.25143e-06
2.14658e-06
2.35982e-06
2.20386e-06
)
;
    }
    procBoundary0to2
    {
        type            processor;
        value           nonuniform List<scalar> 
12
(
2.62913e-05
8.69509e-06
1.74577e-05
2.28005e-05
2.46389e-05
2.44761e-05
2.4559e-05
2.46512e-05
2.46021e-05
2.47459e-05
2.46514e-05
2.46514e-05
)
;
    }
    procBoundary0to3
    {
        type            processor;
        value           nonuniform List<scalar> 10(2.77722e-05 2.78082e-05 2.77337e-05 2.7728e-05 2.76868e-05 2.75376e-05 2.75425e-05 2.52045e-05 1.7679e-05 7.39648e-06);
    }
}


// ************************************************************************* //
