/*--------------------------------*- C++ -*----------------------------------*\
| =========                 |                                                 |
| \\      /  F ield         | OpenFOAM: The Open Source CFD Toolbox           |
|  \\    /   O peration     | Version:  dev                                   |
|   \\  /    A nd           | Web:      www.OpenFOAM.org                      |
|    \\/     M anipulation  |                                                 |
\*---------------------------------------------------------------------------*/
FoamFile
{
    version     2.0;
    format      ascii;
    class       volScalarField;
    location    "0.03";
    object      P2-;
}
// * * * * * * * * * * * * * * * * * * * * * * * * * * * * * * * * * * * * * //

dimensions      [0 0 0 0 0 0 0];

internalField   nonuniform List<scalar> 
250
(
3.42192e-12
3.44061e-12
3.42128e-12
3.4972e-12
3.46502e-12
3.69771e-12
3.97729e-12
6.1888e-12
2.23027e-11
2.21701e-10
3.19545e-12
3.21489e-12
3.2031e-12
3.26983e-12
3.24989e-12
3.45825e-12
3.71469e-12
5.70513e-12
2.04049e-11
2.19381e-10
2.66372e-10
1.92073e-11
5.41029e-12
3.4809e-12
3.27436e-12
3.06387e-12
3.08641e-12
3.01895e-12
3.02961e-12
3.00982e-12
3.00987e-12
3.02906e-12
3.02031e-12
3.08261e-12
3.07049e-12
3.25794e-12
3.49962e-12
5.27528e-12
1.84299e-11
2.07075e-10
2.36566e-10
1.70456e-11
5.00579e-12
3.30065e-12
3.103e-12
2.91334e-12
2.92686e-12
2.86382e-12
2.87077e-12
2.85125e-12
2.85123e-12
2.87027e-12
2.86482e-12
2.92354e-12
2.91867e-12
3.08891e-12
3.31614e-12
4.89177e-12
1.63615e-11
1.87045e-10
2.01831e-10
1.48902e-11
4.64259e-12
3.14191e-12
2.95513e-12
2.78128e-12
2.78757e-12
2.72738e-12
2.73096e-12
2.7113e-12
2.71122e-12
2.73045e-12
2.72808e-12
2.78454e-12
2.78563e-12
2.94276e-12
3.15496e-12
4.54622e-12
1.45192e-11
1.62059e-10
1.65599e-10
1.28051e-11
4.30996e-12
2.99403e-12
2.82121e-12
2.65759e-12
2.65935e-12
2.60016e-12
2.60092e-12
2.58042e-12
2.58028e-12
2.60036e-12
2.60061e-12
2.65642e-12
2.66131e-12
2.8099e-12
3.00555e-12
4.22773e-12
1.26796e-11
1.34806e-10
1.30524e-10
1.08547e-11
3.99608e-12
2.8432e-12
2.69012e-12
2.53077e-12
2.52973e-12
2.467e-12
2.47014e-12
2.44792e-12
2.44774e-12
2.4695e-12
2.46745e-12
2.52654e-12
2.53425e-12
2.67885e-12
2.85596e-12
3.92429e-12
1.08656e-11
1.07694e-10
9.63072e-11
9.06569e-12
3.68805e-12
2.67972e-12
2.54949e-12
2.38872e-12
2.38979e-12
2.32354e-12
2.32769e-12
2.30292e-12
2.3027e-12
2.32693e-12
2.32397e-12
2.38634e-12
2.39235e-12
2.53772e-12
2.69357e-12
3.62326e-12
9.18185e-12
8.28644e-11
7.06957e-11
7.46984e-12
3.37127e-12
2.48644e-12
2.38704e-12
2.22053e-12
2.22605e-12
2.15116e-12
2.15558e-12
2.12764e-12
2.12733e-12
2.15471e-12
2.15141e-12
2.22184e-12
2.22462e-12
2.37405e-12
2.50055e-12
3.30856e-12
7.62909e-12
6.07068e-11
4.9463e-11
6.00565e-12
3.03705e-12
2.26198e-12
2.19316e-12
2.01931e-12
2.03213e-12
1.95136e-12
1.95963e-12
1.92863e-12
1.92829e-12
1.95866e-12
1.95171e-12
2.02741e-12
2.02403e-12
2.17856e-12
2.27829e-12
2.97593e-12
6.21214e-12
4.37043e-11
3.43733e-11
4.77909e-12
2.67903e-12
2.00187e-12
1.96399e-12
1.78491e-12
1.80568e-12
1.72045e-12
1.73272e-12
1.69936e-12
1.699e-12
1.73168e-12
1.72092e-12
1.80052e-12
1.79022e-12
1.94786e-12
2.02052e-12
2.61837e-12
4.97375e-12
3.05349e-11
2.28099e-11
3.726e-12
2.30019e-12
1.71436e-12
1.70376e-12
1.52524e-12
1.55268e-12
1.46634e-12
1.48185e-12
1.44757e-12
1.4472e-12
1.48078e-12
1.4669e-12
1.54731e-12
1.5309e-12
1.68671e-12
1.73452e-12
2.24049e-12
3.89606e-12
2.05422e-11
1.49728e-11
2.8383e-12
1.91229e-12
1.41505e-12
1.42495e-12
1.25506e-12
1.28633e-12
1.2033e-12
1.22054e-12
1.18724e-12
1.18688e-12
1.21951e-12
1.20391e-12
1.28105e-12
1.26068e-12
1.40794e-12
1.43529e-12
1.85533e-12
2.97819e-12
1.35317e-11
9.34887e-13
9.64767e-13
9.49105e-13
1.019e-12
9.97428e-13
1.1295e-12
1.142e-12
1.48162e-12
2.21594e-12
8.69945e-12
)
;

boundaryField
{
    fuel
    {
        type            fixedValue;
        value           nonuniform 0();
    }
    wall
    {
        type            zeroGradient;
    }
    outlet
    {
        type            zeroGradient;
    }
    frontAndBack
    {
        type            empty;
    }
    procBoundary0to1
    {
        type            processor;
        value           nonuniform List<scalar> 
21
(
9.56853e-12
2.10666e-12
1.53352e-12
1.12319e-12
1.14539e-12
9.92245e-13
1.02385e-12
9.48523e-13
9.65692e-13
9.35221e-13
9.35221e-13
7.06566e-13
7.32322e-13
7.18044e-13
7.77775e-13
7.57516e-13
8.69658e-13
8.72883e-13
1.13874e-12
1.60193e-12
5.4518e-12
)
;
    }
    procBoundary0to2
    {
        type            processor;
        value           nonuniform List<scalar> 
12
(
3.42165e-12
2.87218e-10
2.14649e-11
5.86679e-12
3.69202e-12
3.4776e-12
3.2417e-12
3.27434e-12
3.20133e-12
3.21555e-12
3.1953e-12
3.1953e-12
)
;
    }
    procBoundary0to3
    {
        type            processor;
        value           nonuniform List<scalar> 10(3.68302e-12 3.70325e-12 3.68306e-12 3.76389e-12 3.72412e-12 3.98445e-12 4.28193e-12 6.73238e-12 2.40561e-11 2.12907e-10);
    }
}


// ************************************************************************* //
