/*--------------------------------*- C++ -*----------------------------------*\
| =========                 |                                                 |
| \\      /  F ield         | OpenFOAM: The Open Source CFD Toolbox           |
|  \\    /   O peration     | Version:  dev                                   |
|   \\  /    A nd           | Web:      www.OpenFOAM.org                      |
|    \\/     M anipulation  |                                                 |
\*---------------------------------------------------------------------------*/
FoamFile
{
    version     2.0;
    format      ascii;
    class       volScalarField;
    location    "0.03";
    object      T;
}
// * * * * * * * * * * * * * * * * * * * * * * * * * * * * * * * * * * * * * //

dimensions      [0 0 0 1 0 0 0];

internalField   nonuniform List<scalar> 
2014
(
2026.74
2026.97
2027.21
2027.36
2027.44
2027.47
2027.49
2027.5
2027.5
2027.51
2027.51
2027.52
2027.52
2027.53
2027.53
2027.54
2027.54
2027.55
2027.55
2027.55
2027.55
2027.56
2027.56
2027.56
2027.56
2027.56
2027.56
2027.56
2027.55
2027.55
2027.55
2027.55
2027.55
2027.54
2027.54
2027.53
2027.53
2027.52
2027.52
2027.51
2027.51
2027.5
2027.5
2027.49
2027.48
2027.44
2027.36
2027.22
2026.97
2026.74
2026.19
2026.41
2026.65
2026.79
2026.87
2026.91
2026.92
2026.93
2026.94
2026.94
2026.95
2026.96
2026.96
2026.97
2026.97
2026.98
2026.98
2026.98
2026.99
2026.99
2026.99
2026.99
2026.99
2026.99
2026.99
2026.99
2026.99
2026.99
2026.99
2026.99
2026.99
2026.99
2026.98
2026.98
2026.98
2026.97
2026.97
2026.96
2026.95
2026.95
2026.94
2026.94
2026.93
2026.92
2026.91
2026.87
2026.79
2026.65
2026.42
2026.19
2025.62
2025.84
2026.07
2026.21
2026.29
2026.33
2026.34
2026.35
2026.35
2026.36
2026.36
2026.37
2026.38
2026.38
2026.39
2026.4
2026.4
2026.4
2026.41
2026.41
2026.41
2026.41
2026.41
2026.41
2026.41
2026.41
2026.41
2026.41
2026.41
2026.41
2026.41
2026.41
2026.4
2026.4
2026.39
2026.39
2026.38
2026.38
2026.37
2026.36
2026.36
2026.35
2026.35
2026.34
2026.33
2026.29
2026.21
2026.08
2025.84
2025.62
2025.03
2025.25
2025.48
2025.61
2025.69
2025.72
2025.73
2025.75
2025.75
2025.76
2025.76
2025.77
2025.78
2025.78
2025.79
2025.79
2025.8
2025.8
2025.81
2025.81
2025.81
2025.81
2025.81
2025.81
2025.81
2025.81
2025.81
2025.81
2025.81
2025.81
2025.81
2025.81
2025.8
2025.8
2025.79
2025.79
2025.78
2025.78
2025.77
2025.76
2025.76
2025.75
2025.75
2025.73
2025.72
2025.69
2025.61
2025.48
2025.25
2025.03
2024.42
2024.64
2024.86
2024.99
2025.07
2025.1
2025.11
2025.12
2025.13
2025.13
2025.14
2025.15
2025.16
2025.16
2025.17
2025.17
2025.18
2025.18
2025.19
2025.19
2025.19
2025.19
2025.19
2025.19
2025.2
2025.2
2025.19
2025.19
2025.19
2025.19
2025.19
2025.19
2025.18
2025.18
2025.17
2025.17
2025.16
2025.15
2025.15
2025.14
2025.14
2025.13
2025.12
2025.11
2025.1
2025.07
2024.99
2024.86
2024.64
2024.42
2023.79
2024.01
2024.22
2024.35
2024.42
2024.46
2024.47
2024.48
2024.48
2024.49
2024.5
2024.51
2024.51
2024.52
2024.53
2024.53
2024.54
2024.54
2024.55
2024.55
2024.55
2024.55
2024.55
2024.55
2024.55
2024.55
2024.55
2024.55
2024.55
2024.55
2024.55
2024.54
2024.54
2024.54
2024.53
2024.53
2024.52
2024.51
2024.51
2024.5
2024.49
2024.48
2024.48
2024.47
2024.46
2024.42
2024.35
2024.22
2024.01
2023.79
2023.14
2023.35
2023.56
2023.69
2023.76
2023.79
2023.8
2023.81
2023.82
2023.83
2023.83
2023.84
2023.85
2023.86
2023.86
2023.87
2023.87
2023.88
2023.88
2023.89
2023.89
2023.89
2023.89
2023.89
2023.89
2023.89
2023.89
2023.89
2023.89
2023.89
2023.88
2023.88
2023.88
2023.87
2023.87
2023.86
2023.86
2023.85
2023.84
2023.83
2023.83
2023.82
2023.81
2023.8
2023.79
2023.76
2023.69
2023.56
2023.35
2023.14
2022.46
2022.67
2022.88
2023
2023.07
2023.1
2023.11
2023.12
2023.13
2023.14
2023.14
2023.15
2023.16
2023.17
2023.17
2023.18
2023.19
2023.19
2023.19
2023.2
2023.2
2023.2
2023.2
2023.2
2023.21
2023.21
2023.2
2023.2
2023.2
2023.2
2023.2
2023.19
2023.19
2023.19
2023.18
2023.17
2023.17
2023.16
2023.15
2023.14
2023.14
2023.13
2023.12
2023.11
2023.1
2023.07
2023
2022.88
2022.67
2022.46
2021.76
2021.97
2022.17
2022.29
2022.35
2022.39
2022.39
2022.41
2022.41
2022.42
2022.43
2022.44
2022.44
2022.45
2022.46
2022.47
2022.47
2022.48
2022.48
2022.49
2022.49
2022.49
2022.49
2022.49
2022.49
2022.49
2022.49
2022.49
2022.49
2022.49
2022.49
2022.48
2022.48
2022.47
2022.47
2022.46
2022.45
2022.44
2022.44
2022.43
2022.42
2022.41
2022.41
2022.39
2022.39
2022.36
2022.29
2022.17
2021.97
2021.76
2021.03
2021.24
2021.44
2021.55
2021.61
2021.64
2021.65
2021.66
2021.67
2021.68
2021.69
2021.7
2021.7
2021.71
2021.72
2021.73
2021.73
2021.74
2021.74
2021.75
2021.75
2021.75
2021.75
2021.76
2021.76
2021.76
2021.75
2021.75
2021.75
2021.75
2021.75
2021.74
2021.74
2021.73
2021.73
2021.72
2021.71
2021.7
2021.7
2021.69
2021.68
2021.67
2021.66
2021.65
2021.64
2021.61
2021.55
2021.44
2021.24
2021.03
2020.27
2020.48
2020.67
2020.78
2020.84
2020.87
2020.88
2020.89
2020.9
2020.91
2020.92
2020.93
2020.94
2020.95
2020.95
2020.96
2020.97
2020.97
2020.98
2020.98
2020.98
2020.99
2020.99
2020.99
2020.99
2020.99
2020.99
2020.99
2020.99
2020.98
2020.98
2020.98
2020.97
2020.97
2020.96
2020.95
2020.95
2020.94
2020.93
2020.92
2020.91
2020.9
2020.89
2020.88
2020.88
2020.85
2020.78
2020.68
2020.49
2020.28
2019.49
2019.7
2019.88
2019.99
2020.05
2020.07
2020.08
2020.09
2020.1
2020.11
2020.12
2020.13
2020.14
2020.15
2020.16
2020.17
2020.17
2020.18
2020.18
2020.19
2020.19
2020.19
2020.19
2020.19
2020.19
2020.19
2020.19
2020.19
2020.19
2020.19
2020.18
2020.18
2020.18
2020.17
2020.16
2020.16
2020.15
2020.14
2020.13
2020.12
2020.11
2020.1
2020.09
2020.08
2020.08
2020.05
2019.99
2019.88
2019.7
2019.49
2018.68
2018.88
2019.06
2019.16
2019.22
2019.24
2019.25
2019.26
2019.27
2019.28
2019.29
2019.3
2019.31
2019.32
2019.33
2019.34
2019.34
2019.35
2019.35
2019.36
2019.36
2019.36
2019.37
2019.37
2019.37
2019.37
2019.37
2019.36
2019.36
2019.36
2019.36
2019.35
2019.35
2019.34
2019.34
2019.33
2019.32
2019.31
2019.3
2019.29
2019.28
2019.27
2019.26
2019.25
2019.24
2019.22
2019.16
2019.06
2018.89
2018.68
2017.83
2018.03
2018.2
2018.3
2018.35
2018.38
2018.38
2018.4
2018.4
2018.41
2018.42
2018.44
2018.45
2018.46
2018.47
2018.48
2018.48
2018.49
2018.49
2018.5
2018.5
2018.5
2018.51
2018.51
2018.51
2018.51
2018.51
2018.5
2018.5
2018.5
2018.5
2018.49
2018.49
2018.48
2018.47
2018.46
2018.46
2018.44
2018.43
2018.42
2018.41
2018.4
2018.4
2018.39
2018.38
2018.35
2018.3
2018.21
2018.04
2017.83
2016.95
2017.15
2017.31
2017.41
2017.46
2017.48
2017.48
2017.5
2017.5
2017.51
2017.52
2017.54
2017.55
2017.56
2017.57
2017.58
2017.59
2017.59
2017.6
2017.6
2017.61
2017.61
2017.61
2017.61
2017.61
2017.61
2017.61
2017.61
2017.61
2017.6
2017.6
2017.6
2017.59
2017.58
2017.58
2017.57
2017.56
2017.55
2017.54
2017.52
2017.51
2017.5
2017.5
2017.49
2017.48
2017.46
2017.41
2017.31
2017.15
2016.95
2016.03
2016.23
2016.38
2016.48
2016.52
2016.54
2016.55
2016.56
2016.56
2016.58
2016.59
2016.6
2016.61
2016.63
2016.64
2016.65
2016.65
2016.66
2016.67
2016.67
2016.67
2016.68
2016.68
2016.68
2016.68
2016.68
2016.68
2016.68
2016.68
2016.67
2016.67
2016.66
2016.66
2016.65
2016.64
2016.63
2016.62
2016.61
2016.6
2016.59
2016.58
2016.56
2016.56
2016.55
2016.55
2016.52
2016.48
2016.39
2016.23
2016.03
2015.07
2015.27
2015.42
2015.51
2015.55
2015.57
2015.57
2015.58
2015.59
2015.6
2015.61
2015.63
2015.64
2015.65
2015.66
2015.67
2015.68
2015.69
2015.69
2015.7
2015.7
2015.71
2015.71
2015.71
2015.71
2015.71
2015.71
2015.71
2015.71
2015.7
2015.7
2015.69
2015.69
2015.68
2015.67
2015.66
2015.65
2015.64
2015.63
2015.61
2015.6
2015.59
2015.58
2015.57
2015.57
2015.55
2015.51
2015.42
2015.27
2015.07
2014.08
2014.27
2014.41
2014.5
2014.53
2014.55
2014.55
2014.56
2014.57
2014.58
2014.6
2014.61
2014.62
2014.64
2014.65
2014.66
2014.67
2014.68
2014.68
2014.69
2014.69
2014.69
2014.7
2014.7
2014.7
2014.7
2014.7
2014.7
2014.69
2014.69
2014.69
2014.68
2014.68
2014.67
2014.66
2014.65
2014.64
2014.62
2014.61
2014.6
2014.58
2014.57
2014.56
2014.55
2014.55
2014.53
2014.5
2014.41
2014.28
2014.08
2013.04
2013.23
2013.36
2013.44
2013.47
2013.49
2013.49
2013.5
2013.51
2013.52
2013.54
2013.55
2013.57
2013.58
2013.59
2013.6
2013.61
2013.62
2013.63
2013.63
2013.64
2013.64
2013.64
2013.64
2013.64
2013.64
2013.64
2013.64
2013.64
2013.63
2013.63
2013.63
2013.62
2013.61
2013.6
2013.59
2013.58
2013.56
2013.55
2013.54
2013.52
2013.51
2013.5
2013.49
2013.49
2013.48
2013.44
2013.36
2013.23
2013.04
2011.95
2012.14
2012.27
2012.34
2012.37
2012.39
2012.39
2012.4
2012.4
2012.42
2012.43
2012.45
2012.46
2012.48
2012.49
2012.5
2012.51
2012.52
2012.53
2012.53
2012.54
2012.54
2012.54
2012.54
2012.54
2012.54
2012.54
2012.54
2012.54
2012.53
2012.53
2012.52
2012.52
2012.51
2012.5
2012.49
2012.48
2012.46
2012.45
2012.43
2012.42
2012.4
2012.4
2012.39
2012.39
2012.37
2012.34
2012.27
2012.15
2011.96
2010.82
2011.01
2011.12
2011.19
2011.22
2011.23
2011.23
2011.24
2011.25
2011.26
2011.28
2011.29
2011.31
2011.33
2011.34
2011.35
2011.36
2011.37
2011.38
2011.38
2011.39
2011.39
2011.39
2011.39
2011.39
2011.39
2011.39
2011.39
2011.39
2011.39
2011.38
2011.37
2011.37
2011.36
2011.35
2011.34
2011.32
2011.31
2011.29
2011.28
2011.26
2011.25
2011.24
2011.23
2011.23
2011.22
2011.2
2011.13
2011.01
2010.83
2009.64
2009.83
2009.93
2010
2010.01
2010.03
2010.02
2010.03
2010.04
2010.06
2010.07
2010.09
2010.11
2010.12
2010.14
2010.15
2010.16
2010.17
2010.18
2010.18
2010.19
2010.19
2010.19
2010.2
2010.2
2010.2
2010.19
2010.19
2010.19
2010.19
2010.18
2010.18
2010.17
2010.16
2010.15
2010.14
2010.12
2010.11
2010.09
2010.07
2010.06
2010.04
2010.04
2010.03
2010.03
2010.02
2010
2009.93
2009.83
2009.65
2008.41
2008.59
2008.68
2008.75
2008.76
2008.77
2008.77
2008.78
2008.78
2008.8
2008.81
2008.83
2008.85
2008.87
2008.88
2008.9
2008.91
2008.92
2008.92
2008.93
2008.94
2008.94
2008.94
2008.94
2008.94
2008.94
2008.94
2008.94
2008.94
2008.93
2008.93
2008.92
2008.92
2008.9
2008.89
2008.88
2008.87
2008.85
2008.83
2008.81
2008.8
2008.78
2008.78
2008.77
2008.77
2008.76
2008.75
2008.69
2008.59
2008.42
2007.13
2007.3
2007.38
2007.44
2007.45
2007.46
2007.45
2007.46
2007.47
2007.49
2007.5
2007.52
2007.54
2007.56
2007.57
2007.59
2007.6
2007.61
2007.62
2007.62
2007.63
2007.63
2007.63
2007.64
2007.64
2007.64
2007.63
2007.63
2007.63
2007.63
2007.62
2007.61
2007.61
2007.59
2007.58
2007.57
2007.56
2007.54
2007.52
2007.5
2007.49
2007.47
2007.46
2007.45
2007.46
2007.45
2007.44
2007.39
2007.3
2007.13
2005.78
2005.95
2006.02
2006.07
2006.08
2006.08
2006.08
2006.09
2006.09
2006.11
2006.13
2006.15
2006.17
2006.19
2006.2
2006.22
2006.23
2006.24
2006.25
2006.26
2006.26
2006.26
2006.27
2006.27
2006.27
2006.27
2006.27
2006.27
2006.26
2006.26
2006.25
2006.25
2006.24
2006.23
2006.22
2006.2
2006.18
2006.17
2006.15
2006.13
2006.11
2006.09
2006.09
2006.08
2006.08
2006.08
2006.08
2006.03
2005.95
2005.79
2004.38
2004.54
2004.6
2004.65
2004.64
2004.65
2004.64
2004.65
2004.66
2004.68
2004.69
2004.72
2004.73
2004.75
2004.77
2004.79
2004.8
2004.81
2004.82
2004.83
2004.83
2004.84
2004.84
2004.84
2004.84
2004.84
2004.84
2004.84
2004.83
2004.83
2004.82
2004.82
2004.81
2004.8
2004.78
2004.77
2004.75
2004.73
2004.71
2004.69
2004.68
2004.66
2004.65
2004.64
2004.65
2004.65
2004.65
2004.6
2004.54
2004.38
2002.91
2003.07
2003.11
2003.16
2003.15
2003.15
2003.14
2003.15
2003.15
2003.17
2003.19
2003.22
2003.24
2003.26
2003.27
2003.29
2003.3
2003.32
2003.32
2003.33
2003.34
2003.34
2003.34
2003.35
2003.35
2003.35
2003.35
2003.34
2003.34
2003.34
2003.33
2003.32
2003.31
2003.3
2003.29
2003.27
2003.26
2003.23
2003.21
2003.19
2003.17
2003.15
2003.15
2003.14
2003.15
2003.15
2003.16
2003.12
2003.07
2002.91
2001.41
2001.56
2001.6
2001.63
2001.62
2001.62
2001.61
2001.61
2001.62
2001.64
2001.66
2001.69
2001.71
2001.73
2001.75
2001.77
2001.78
2001.79
2001.8
2001.81
2001.81
2001.82
2001.82
2001.82
2001.82
2001.82
2001.82
2001.82
2001.82
2001.81
2001.81
2001.8
2001.79
2001.78
2001.76
2001.75
2001.73
2001.71
2001.69
2001.66
2001.64
2001.62
2001.62
2001.61
2001.62
2001.62
2001.64
2001.6
2001.57
2001.42
1999.82
1999.97
1999.99
2000.02
2000
1999.99
1999.98
1999.98
1999.99
2000.02
2000.04
2000.06
2000.08
2000.11
2000.13
2000.15
2000.16
2000.17
2000.18
2000.19
2000.2
2000.2
2000.21
2000.21
2000.21
2000.21
2000.21
2000.21
2000.2
2000.2
2000.19
2000.18
2000.17
2000.16
2000.14
2000.13
2000.11
2000.08
2000.06
2000.04
2000.02
1999.99
1999.99
1999.98
1999.99
2000
2000.02
1999.99
1999.97
1999.82
1998.14
1998.28
1998.29
1998.31
1998.29
1998.28
1998.26
1998.27
1998.28
1998.3
1998.32
1998.35
1998.37
1998.4
1998.42
1998.44
1998.45
1998.47
1998.48
1998.49
1998.49
1998.5
1998.5
1998.5
1998.51
1998.51
1998.5
1998.5
1998.5
1998.49
1998.48
1998.48
1998.47
1998.45
1998.44
1998.42
1998.4
1998.37
1998.35
1998.32
1998.3
1998.28
1998.27
1998.26
1998.28
1998.29
1998.32
1998.3
1998.29
1998.15
1996.43
1996.57
1996.56
1996.58
1996.54
1996.53
1996.51
1996.52
1996.53
1996.55
1996.58
1996.6
1996.63
1996.65
1996.67
1996.7
1996.71
1996.73
1996.74
1996.75
1996.75
1996.76
1996.76
1996.76
1996.77
1996.77
1996.76
1996.76
1996.76
1996.75
1996.74
1996.73
1996.72
1996.71
1996.69
1996.67
1996.65
1996.63
1996.6
1996.57
1996.55
1996.53
1996.52
1996.51
1996.53
1996.54
1996.58
1996.57
1996.57
1996.44
1994.64
1994.77
1994.75
1994.76
1994.72
1994.7
1994.68
1994.69
1994.7
1994.73
1994.75
1994.78
1994.8
1994.83
1994.85
1994.87
1994.89
1994.91
1994.92
1994.93
1994.93
1994.94
1994.94
1994.95
1994.95
1994.95
1994.95
1994.94
1994.94
1994.93
1994.92
1994.91
1994.9
1994.89
1994.87
1994.85
1994.83
1994.8
1994.78
1994.75
1994.72
1994.7
1994.69
1994.68
1994.71
1994.72
1994.77
1994.76
1994.78
1994.65
1992.76
1992.89
1992.85
1992.85
1992.8
1992.78
1992.75
1992.76
1992.77
1992.8
1992.82
1992.86
1992.88
1992.91
1992.94
1992.96
1992.98
1993
1993.01
1993.02
1993.03
1993.03
1993.04
1993.04
1993.04
1993.04
1993.04
1993.03
1993.03
1993.02
1993.02
1993
1992.99
1992.97
1992.96
1992.93
1992.91
1992.88
1992.85
1992.82
1992.8
1992.77
1992.76
1992.76
1992.78
1992.8
1992.85
1992.86
1992.89
1992.76
1990.76
1990.88
1990.83
1990.81
1990.75
1990.73
1990.71
1990.71
1990.72
1990.75
1990.78
1990.81
1990.84
1990.87
1990.9
1990.92
1990.94
1990.96
1990.97
1990.98
1990.99
1991
1991
1991
1991
1991
1991
1991
1990.99
1990.99
1990.98
1990.97
1990.95
1990.94
1990.92
1990.89
1990.87
1990.84
1990.81
1990.78
1990.75
1990.72
1990.71
1990.71
1990.73
1990.76
1990.82
1990.83
1990.88
1990.76
1988.66
1988.77
1988.71
1988.69
1988.62
1988.59
1988.56
1988.57
1988.58
1988.61
1988.64
1988.67
1988.7
1988.74
1988.76
1988.79
1988.81
1988.82
1988.84
1988.85
1988.86
1988.87
1988.87
1988.87
1988.87
1988.87
1988.87
1988.87
1988.86
1988.85
1988.85
1988.83
1988.82
1988.8
1988.78
1988.76
1988.73
1988.7
1988.67
1988.64
1988.61
1988.58
1988.57
1988.57
1988.59
1988.62
1988.69
1988.71
1988.78
1988.67
1986.52
1986.63
1986.54
1986.51
1986.44
1986.4
1986.37
1986.38
1986.39
1986.42
1986.45
1986.49
1986.52
1986.55
1986.58
1986.61
1986.63
1986.65
1986.66
1986.67
1986.68
1986.69
1986.69
1986.7
1986.7
1986.7
1986.7
1986.69
1986.69
1986.68
1986.67
1986.66
1986.64
1986.62
1986.6
1986.58
1986.55
1986.52
1986.49
1986.45
1986.42
1986.39
1986.38
1986.38
1986.41
1986.44
1986.52
1986.55
1986.63
1986.53
1984.29
1984.38
1984.28
1984.24
1984.16
1984.12
1984.09
1984.09
1984.1
1984.14
1984.17
1984.21
1984.24
1984.27
1984.3
1984.33
1984.35
1984.37
1984.38
1984.4
1984.41
1984.41
1984.42
1984.42
1984.42
1984.42
1984.42
1984.42
1984.41
1984.4
1984.39
1984.38
1984.37
1984.34
1984.32
1984.3
1984.27
1984.23
1984.2
1984.16
1984.14
1984.1
1984.09
1984.09
1984.12
1984.16
1984.25
1984.29
1984.39
1984.29
1981.95
1982.04
1981.92
1981.87
1981.77
1981.73
1981.7
1981.7
1981.71
1981.75
1981.78
1981.82
1981.85
1981.89
1981.92
1981.95
1981.97
1981.99
1982
1982.02
1982.03
1982.04
1982.04
1982.04
1982.04
1982.04
1982.04
1982.04
1982.03
1982.02
1982.01
1982
1981.99
1981.96
1981.94
1981.91
1981.89
1981.85
1981.82
1981.78
1981.75
1981.71
1981.7
1981.7
1981.73
1981.78
1981.87
1981.93
1982.05
1981.96
1979.51
1979.59
1979.45
1979.38
1979.28
1979.23
1979.2
1979.2
1979.21
1979.25
1979.28
1979.32
1979.36
1979.4
1979.43
1979.46
1979.48
1979.5
1979.52
1979.53
1979.54
1979.55
1979.55
1979.56
1979.56
1979.56
1979.56
1979.55
1979.55
1979.54
1979.53
1979.51
1979.5
1979.47
1979.45
1979.42
1979.39
1979.36
1979.32
1979.28
1979.25
1979.21
1979.2
1979.2
1979.24
1979.29
1979.39
1979.46
1979.59
1979.52
1976.92
1976.93
1976.94
1976.95
1976.96
1976.96
1976.96
1976.96
1976.96
1976.95
1976.95
1976.94
1976.93
1976.91
1976.9
1976.87
1976.85
1976.82
1976.79
1976.75
1976.71
1976.67
1976.64
1976.6
1976.59
1976.59
1976.63
1976.68
1976.8
1976.87
1977.03
1976.97
1974.19
1974.18
1974.17
1974.16
1974.14
1974.11
1974.09
1974.06
1974.02
1973.98
1973.94
1973.9
1973.86
1973.83
1973.81
1973.81
1973.85
1973.92
1974.04
1974.13
1974.31
1974.25
1971.01
1970.97
1970.96
1970.96
1971
1971.07
1971.21
1971.31
1971.51
1971.46
)
;

boundaryField
{
    fuel
    {
        type            fixedValue;
        value           nonuniform 0();
    }
    wall
    {
        type            fixedValue;
        value           nonuniform 0();
    }
    outlet
    {
        type            zeroGradient;
    }
    frontAndBack
    {
        type            empty;
    }
    procBoundary0to1
    {
        type            processor;
        value           nonuniform List<scalar> 
50
(
2027.28
2027.51
2027.76
2027.9
2027.98
2028.02
2028.04
2028.05
2028.05
2028.06
2028.06
2028.07
2028.07
2028.08
2028.08
2028.09
2028.09
2028.09
2028.1
2028.1
2028.1
2028.1
2028.1
2028.1
2028.1
2028.1
2028.1
2028.1
2028.1
2028.1
2028.1
2028.09
2028.09
2028.09
2028.09
2028.08
2028.08
2028.07
2028.07
2028.06
2028.06
2028.05
2028.05
2028.04
2028.02
2027.98
2027.9
2027.76
2027.51
2027.28
)
;
    }
    procBoundary0to2
    {
        type            processor;
        value           nonuniform List<scalar> 
53
(
1976.96
1977.02
1976.87
1976.79
1976.68
1976.62
1976.59
1976.59
1976.6
1976.64
1976.67
1976.72
1976.75
1976.79
1976.82
1976.85
1976.88
1976.9
1976.9
1974.16
1974.18
1974.19
1974.19
1974.2
1974.2
1974.21
1974.2
1974.2
1974.2
1974.2
1971.35
1971.34
1971.33
1971.31
1971.3
1971.27
1971.25
1971.21
1971.18
1971.13
1971.09
1971.05
1971.05
1968.03
1967.99
1967.97
1967.97
1968.02
1968.1
1968.25
1968.36
1968.59
1968.55
)
;
    }
}


// ************************************************************************* //
