/*--------------------------------*- C++ -*----------------------------------*\
| =========                 |                                                 |
| \\      /  F ield         | OpenFOAM: The Open Source CFD Toolbox           |
|  \\    /   O peration     | Version:  dev                                   |
|   \\  /    A nd           | Web:      www.OpenFOAM.org                      |
|    \\/     M anipulation  |                                                 |
\*---------------------------------------------------------------------------*/
FoamFile
{
    version     2.0;
    format      ascii;
    class       volScalarField;
    location    "0.035";
    object      A1C2H*;
}
// * * * * * * * * * * * * * * * * * * * * * * * * * * * * * * * * * * * * * //

dimensions      [0 0 0 0 0 0 0];

internalField   nonuniform List<scalar> 
250
(
3.04728e-09
3.05315e-09
3.04644e-09
3.06428e-09
3.0602e-09
3.15955e-09
3.276e-09
4.40247e-09
7.99325e-09
3.03932e-08
2.8436e-09
2.84932e-09
2.84313e-09
2.85992e-09
2.857e-09
2.94701e-09
3.05261e-09
4.05165e-09
7.02426e-09
2.54472e-08
1.73125e-08
6.17655e-09
3.67916e-09
2.86214e-09
2.74478e-09
2.67657e-09
2.67425e-09
2.66114e-09
2.66619e-09
2.66133e-09
2.66079e-09
2.66646e-09
2.66076e-09
2.67668e-09
2.67479e-09
2.75647e-09
2.8523e-09
3.73074e-09
6.15839e-09
2.10298e-08
1.45599e-08
5.40637e-09
3.39015e-09
2.67827e-09
2.57243e-09
2.50988e-09
2.50719e-09
2.49431e-09
2.49902e-09
2.49398e-09
2.49347e-09
2.49922e-09
2.49392e-09
2.50927e-09
2.50819e-09
2.58269e-09
2.66889e-09
3.43596e-09
5.38667e-09
1.72421e-08
1.23368e-08
4.71687e-09
3.12151e-09
2.50489e-09
2.41076e-09
2.35299e-09
2.35008e-09
2.3372e-09
2.34167e-09
2.3363e-09
2.3358e-09
2.3418e-09
2.33677e-09
2.35187e-09
2.35133e-09
2.41993e-09
2.49582e-09
3.1624e-09
4.70012e-09
1.43932e-08
1.0282e-08
4.1315e-09
2.86751e-09
2.33551e-09
2.25347e-09
2.19963e-09
2.1967e-09
2.18353e-09
2.18789e-09
2.18201e-09
2.18152e-09
2.18795e-09
2.18306e-09
2.19826e-09
2.19794e-09
2.26189e-09
2.32636e-09
2.9043e-09
4.11016e-09
1.18451e-08
8.67554e-09
3.58129e-09
2.62165e-09
2.1617e-09
2.09402e-09
2.0436e-09
2.04079e-09
2.02711e-09
2.03141e-09
2.02489e-09
2.02441e-09
2.03141e-09
2.02658e-09
2.04215e-09
2.04182e-09
2.10205e-09
2.15372e-09
2.6552e-09
3.56167e-09
9.93374e-09
6.90893e-09
3.09611e-09
2.37788e-09
1.98173e-09
1.92638e-09
1.87578e-09
1.87455e-09
1.85995e-09
1.86583e-09
1.85838e-09
1.85785e-09
1.86578e-09
1.85938e-09
1.87606e-09
1.87393e-09
1.93428e-09
1.97328e-09
2.40879e-09
3.07508e-09
7.9364e-09
5.58625e-09
2.6501e-09
2.13094e-09
1.7899e-09
1.74614e-09
1.69769e-09
1.69715e-09
1.68192e-09
1.68819e-09
1.68004e-09
1.67952e-09
1.68809e-09
1.6813e-09
1.69857e-09
1.69571e-09
1.75407e-09
1.781e-09
2.15962e-09
2.62803e-09
6.4592e-09
4.44978e-09
2.22341e-09
1.87501e-09
1.58466e-09
1.55167e-09
1.5053e-09
1.50558e-09
1.48841e-09
1.4953e-09
1.4853e-09
1.48476e-09
1.49508e-09
1.48767e-09
1.50694e-09
1.5032e-09
1.55964e-09
1.57554e-09
1.90448e-09
2.20219e-09
4.97663e-09
3.4853e-09
1.84124e-09
1.61609e-09
1.36866e-09
1.34517e-09
1.30141e-09
1.30254e-09
1.2852e-09
1.2925e-09
1.28208e-09
1.28154e-09
1.29224e-09
1.28444e-09
1.30383e-09
1.29926e-09
1.35304e-09
1.35959e-09
1.64382e-09
1.82039e-09
3.90133e-09
2.67884e-09
1.49078e-09
1.35661e-09
1.14847e-09
1.13276e-09
1.09261e-09
1.09445e-09
1.0776e-09
1.08507e-09
1.07463e-09
1.07412e-09
1.08479e-09
1.07684e-09
1.09564e-09
1.09049e-09
1.14028e-09
1.13974e-09
1.38208e-09
1.4714e-09
2.9794e-09
2.01611e-09
1.17609e-09
1.10459e-09
9.33341e-10
9.23508e-10
8.88038e-10
8.90342e-10
8.74687e-10
8.81956e-10
8.72012e-10
8.71537e-10
8.8168e-10
8.73983e-10
8.91404e-10
8.86057e-10
9.30382e-10
9.25299e-10
1.12724e-09
1.15887e-09
2.22623e-09
6.8326e-10
6.92411e-10
6.85362e-10
7.00721e-10
6.95623e-10
7.33269e-10
7.26052e-10
8.88979e-10
8.86993e-10
1.62484e-09
)
;

boundaryField
{
    fuel
    {
        type            fixedValue;
        value           nonuniform 0();
    }
    wall
    {
        type            zeroGradient;
    }
    outlet
    {
        type            zeroGradient;
    }
    frontAndBack
    {
        type            empty;
    }
    procBoundary0to1
    {
        type            processor;
        value           nonuniform List<scalar> 
21
(
1.48301e-09
9.01279e-10
8.70083e-10
7.32967e-10
7.27441e-10
6.97338e-10
6.99845e-10
6.85973e-10
6.92666e-10
6.83669e-10
6.83669e-10
5.1696e-10
5.24804e-10
5.18694e-10
5.31598e-10
5.2704e-10
5.5761e-10
5.49879e-10
6.76719e-10
6.5821e-10
1.15658e-09
)
;
    }
    procBoundary0to2
    {
        type            processor;
        value           nonuniform List<scalar> 
12
(
3.04779e-09
2.05769e-08
7.03902e-09
3.99455e-09
3.06186e-09
2.93382e-09
2.85883e-09
2.8571e-09
2.84348e-09
2.84895e-09
2.84414e-09
2.84414e-09
)
;
    }
    procBoundary0to3
    {
        type            processor;
        value           nonuniform List<scalar> 10(3.2768e-09 3.28288e-09 3.27565e-09 3.29475e-09 3.2893e-09 3.39924e-09 3.52402e-09 4.86242e-09 9.07697e-09 3.5423e-08);
    }
}


// ************************************************************************* //
