/*--------------------------------*- C++ -*----------------------------------*\
| =========                 |                                                 |
| \\      /  F ield         | OpenFOAM: The Open Source CFD Toolbox           |
|  \\    /   O peration     | Version:  dev                                   |
|   \\  /    A nd           | Web:      www.OpenFOAM.org                      |
|    \\/     M anipulation  |                                                 |
\*---------------------------------------------------------------------------*/
FoamFile
{
    version     2.0;
    format      ascii;
    class       volScalarField;
    location    "0.035";
    object      A2;
}
// * * * * * * * * * * * * * * * * * * * * * * * * * * * * * * * * * * * * * //

dimensions      [0 0 0 0 0 0 0];

internalField   nonuniform List<scalar> 
2014
(
2.1984e-08
2.20858e-08
2.21708e-08
2.22104e-08
2.22127e-08
2.22179e-08
2.22057e-08
2.22073e-08
2.21991e-08
2.22004e-08
2.21953e-08
2.21962e-08
2.21926e-08
2.21931e-08
2.21905e-08
2.21908e-08
2.2189e-08
2.21893e-08
2.2188e-08
2.21882e-08
2.21874e-08
2.21875e-08
2.2187e-08
2.21871e-08
2.21869e-08
2.21869e-08
2.21871e-08
2.21871e-08
2.21876e-08
2.21875e-08
2.21883e-08
2.21882e-08
2.21895e-08
2.21892e-08
2.2191e-08
2.21907e-08
2.21933e-08
2.21928e-08
2.21964e-08
2.21955e-08
2.22005e-08
2.21992e-08
2.22074e-08
2.22057e-08
2.22179e-08
2.22127e-08
2.22104e-08
2.21707e-08
2.20857e-08
2.19839e-08
2.09505e-08
2.10488e-08
2.11294e-08
2.11675e-08
2.11701e-08
2.11751e-08
2.11637e-08
2.1165e-08
2.11573e-08
2.11584e-08
2.11535e-08
2.11543e-08
2.11508e-08
2.11512e-08
2.11487e-08
2.1149e-08
2.11472e-08
2.11474e-08
2.11462e-08
2.11463e-08
2.11456e-08
2.11456e-08
2.11452e-08
2.11452e-08
2.11451e-08
2.11451e-08
2.11453e-08
2.11452e-08
2.11457e-08
2.11457e-08
2.11465e-08
2.11464e-08
2.11476e-08
2.11474e-08
2.11492e-08
2.11489e-08
2.11514e-08
2.1151e-08
2.11544e-08
2.11537e-08
2.11585e-08
2.11574e-08
2.11651e-08
2.11637e-08
2.11751e-08
2.11701e-08
2.11674e-08
2.11293e-08
2.10486e-08
2.09504e-08
2.00064e-08
2.01012e-08
2.01774e-08
2.0214e-08
2.0217e-08
2.02217e-08
2.0211e-08
2.02121e-08
2.02048e-08
2.02057e-08
2.02011e-08
2.02017e-08
2.01984e-08
2.01987e-08
2.01963e-08
2.01965e-08
2.01948e-08
2.0195e-08
2.01938e-08
2.01939e-08
2.01931e-08
2.01932e-08
2.01927e-08
2.01928e-08
2.01927e-08
2.01927e-08
2.01928e-08
2.01928e-08
2.01933e-08
2.01933e-08
2.0194e-08
2.0194e-08
2.01952e-08
2.0195e-08
2.01967e-08
2.01965e-08
2.01989e-08
2.01986e-08
2.02019e-08
2.02013e-08
2.02059e-08
2.0205e-08
2.02122e-08
2.02111e-08
2.02217e-08
2.02169e-08
2.02139e-08
2.01774e-08
2.01011e-08
2.00062e-08
1.91427e-08
1.92342e-08
1.93062e-08
1.93413e-08
1.93444e-08
1.9349e-08
1.9339e-08
1.93399e-08
1.9333e-08
1.93337e-08
1.93294e-08
1.93298e-08
1.93267e-08
1.93268e-08
1.93245e-08
1.93246e-08
1.9323e-08
1.93231e-08
1.9322e-08
1.93221e-08
1.93213e-08
1.93214e-08
1.93209e-08
1.9321e-08
1.93208e-08
1.93209e-08
1.9321e-08
1.9321e-08
1.93215e-08
1.93215e-08
1.93222e-08
1.93222e-08
1.93233e-08
1.93232e-08
1.93249e-08
1.93248e-08
1.9327e-08
1.93269e-08
1.933e-08
1.93296e-08
1.93339e-08
1.93332e-08
1.934e-08
1.9339e-08
1.9349e-08
1.93444e-08
1.93412e-08
1.93061e-08
1.92341e-08
1.91426e-08
1.83517e-08
1.84401e-08
1.85078e-08
1.85414e-08
1.85448e-08
1.85491e-08
1.85398e-08
1.85405e-08
1.85341e-08
1.85346e-08
1.85304e-08
1.85307e-08
1.85277e-08
1.85278e-08
1.85256e-08
1.85256e-08
1.8524e-08
1.85241e-08
1.8523e-08
1.85231e-08
1.85224e-08
1.85224e-08
1.8522e-08
1.8522e-08
1.85219e-08
1.85219e-08
1.8522e-08
1.8522e-08
1.85225e-08
1.85225e-08
1.85232e-08
1.85232e-08
1.85243e-08
1.85242e-08
1.85258e-08
1.85258e-08
1.8528e-08
1.85279e-08
1.85309e-08
1.85306e-08
1.85347e-08
1.85342e-08
1.85406e-08
1.85399e-08
1.85491e-08
1.85448e-08
1.85414e-08
1.85077e-08
1.844e-08
1.83515e-08
1.76263e-08
1.77116e-08
1.77755e-08
1.78076e-08
1.78111e-08
1.78152e-08
1.78065e-08
1.78071e-08
1.7801e-08
1.78013e-08
1.77974e-08
1.77976e-08
1.77947e-08
1.77947e-08
1.77926e-08
1.77925e-08
1.7791e-08
1.77911e-08
1.779e-08
1.779e-08
1.77893e-08
1.77893e-08
1.77889e-08
1.77889e-08
1.77888e-08
1.77888e-08
1.7789e-08
1.7789e-08
1.77894e-08
1.77895e-08
1.77902e-08
1.77902e-08
1.77912e-08
1.77912e-08
1.77928e-08
1.77928e-08
1.77949e-08
1.77949e-08
1.77977e-08
1.77976e-08
1.78015e-08
1.78011e-08
1.78072e-08
1.78066e-08
1.78152e-08
1.78111e-08
1.78075e-08
1.77755e-08
1.77115e-08
1.76261e-08
1.69604e-08
1.70427e-08
1.71032e-08
1.71336e-08
1.71372e-08
1.71411e-08
1.7133e-08
1.71334e-08
1.71277e-08
1.71279e-08
1.71242e-08
1.71242e-08
1.71215e-08
1.71213e-08
1.71193e-08
1.71192e-08
1.71178e-08
1.71178e-08
1.71167e-08
1.71167e-08
1.71161e-08
1.7116e-08
1.71156e-08
1.71157e-08
1.71155e-08
1.71156e-08
1.71157e-08
1.71157e-08
1.71161e-08
1.71162e-08
1.71169e-08
1.71169e-08
1.7118e-08
1.7118e-08
1.71195e-08
1.71196e-08
1.71216e-08
1.71217e-08
1.71244e-08
1.71244e-08
1.71281e-08
1.71278e-08
1.71335e-08
1.71331e-08
1.71411e-08
1.71371e-08
1.71335e-08
1.71031e-08
1.70425e-08
1.69603e-08
1.63485e-08
1.64278e-08
1.64852e-08
1.65139e-08
1.65176e-08
1.65214e-08
1.65138e-08
1.65141e-08
1.65087e-08
1.65088e-08
1.65053e-08
1.65052e-08
1.65026e-08
1.65024e-08
1.65004e-08
1.65003e-08
1.64988e-08
1.64988e-08
1.64978e-08
1.64978e-08
1.64971e-08
1.64971e-08
1.64967e-08
1.64967e-08
1.64966e-08
1.64966e-08
1.64967e-08
1.64968e-08
1.64972e-08
1.64973e-08
1.64979e-08
1.6498e-08
1.6499e-08
1.64991e-08
1.65005e-08
1.65007e-08
1.65026e-08
1.65028e-08
1.65054e-08
1.65054e-08
1.6509e-08
1.65089e-08
1.65142e-08
1.65139e-08
1.65214e-08
1.65176e-08
1.65139e-08
1.64851e-08
1.64277e-08
1.63484e-08
1.57859e-08
1.58623e-08
1.59167e-08
1.59438e-08
1.59475e-08
1.59511e-08
1.59441e-08
1.59443e-08
1.59393e-08
1.59392e-08
1.59358e-08
1.59356e-08
1.59331e-08
1.59329e-08
1.5931e-08
1.59308e-08
1.59294e-08
1.59293e-08
1.59284e-08
1.59283e-08
1.59277e-08
1.59276e-08
1.59272e-08
1.59272e-08
1.59271e-08
1.59272e-08
1.59273e-08
1.59273e-08
1.59277e-08
1.59278e-08
1.59285e-08
1.59286e-08
1.59295e-08
1.59296e-08
1.5931e-08
1.59312e-08
1.59331e-08
1.59334e-08
1.59358e-08
1.5936e-08
1.59394e-08
1.59394e-08
1.59444e-08
1.59442e-08
1.59511e-08
1.59475e-08
1.59438e-08
1.59166e-08
1.58621e-08
1.57858e-08
1.52682e-08
1.53417e-08
1.53933e-08
1.54189e-08
1.54226e-08
1.54261e-08
1.54196e-08
1.54197e-08
1.5415e-08
1.54148e-08
1.54116e-08
1.54113e-08
1.54089e-08
1.54086e-08
1.54068e-08
1.54065e-08
1.54052e-08
1.54051e-08
1.54041e-08
1.5404e-08
1.54034e-08
1.54034e-08
1.5403e-08
1.5403e-08
1.54029e-08
1.54029e-08
1.5403e-08
1.54031e-08
1.54035e-08
1.54036e-08
1.54042e-08
1.54043e-08
1.54053e-08
1.54054e-08
1.54068e-08
1.5407e-08
1.54088e-08
1.54092e-08
1.54115e-08
1.54118e-08
1.5415e-08
1.54151e-08
1.54198e-08
1.54197e-08
1.54262e-08
1.54226e-08
1.54189e-08
1.53932e-08
1.53416e-08
1.5268e-08
1.47915e-08
1.48623e-08
1.49112e-08
1.49355e-08
1.49392e-08
1.49426e-08
1.49365e-08
1.49366e-08
1.49321e-08
1.49319e-08
1.49288e-08
1.49285e-08
1.49261e-08
1.49258e-08
1.4924e-08
1.49237e-08
1.49224e-08
1.49222e-08
1.49213e-08
1.49212e-08
1.49206e-08
1.49205e-08
1.49202e-08
1.49202e-08
1.49201e-08
1.49201e-08
1.49202e-08
1.49203e-08
1.49206e-08
1.49208e-08
1.49214e-08
1.49215e-08
1.49225e-08
1.49226e-08
1.49239e-08
1.49243e-08
1.4926e-08
1.49264e-08
1.49287e-08
1.4929e-08
1.4932e-08
1.49322e-08
1.49367e-08
1.49366e-08
1.49426e-08
1.49392e-08
1.49354e-08
1.49112e-08
1.48622e-08
1.47914e-08
1.43526e-08
1.44208e-08
1.44672e-08
1.44901e-08
1.44938e-08
1.4497e-08
1.44915e-08
1.44915e-08
1.44873e-08
1.4487e-08
1.44841e-08
1.44836e-08
1.44814e-08
1.4481e-08
1.44793e-08
1.44789e-08
1.44777e-08
1.44775e-08
1.44766e-08
1.44764e-08
1.44758e-08
1.44757e-08
1.44754e-08
1.44754e-08
1.44753e-08
1.44753e-08
1.44754e-08
1.44755e-08
1.44759e-08
1.4476e-08
1.44766e-08
1.44768e-08
1.44777e-08
1.44779e-08
1.44792e-08
1.44795e-08
1.44812e-08
1.44817e-08
1.44839e-08
1.44843e-08
1.44871e-08
1.44874e-08
1.44916e-08
1.44916e-08
1.44971e-08
1.44938e-08
1.449e-08
1.44671e-08
1.44207e-08
1.43525e-08
1.39485e-08
1.40141e-08
1.40581e-08
1.40797e-08
1.40834e-08
1.40866e-08
1.40815e-08
1.40815e-08
1.40776e-08
1.40772e-08
1.40744e-08
1.40739e-08
1.40718e-08
1.40713e-08
1.40696e-08
1.40692e-08
1.4068e-08
1.40678e-08
1.40669e-08
1.40667e-08
1.40662e-08
1.40661e-08
1.40657e-08
1.40657e-08
1.40656e-08
1.40656e-08
1.40658e-08
1.40658e-08
1.40662e-08
1.40663e-08
1.40669e-08
1.40671e-08
1.4068e-08
1.40683e-08
1.40695e-08
1.40699e-08
1.40715e-08
1.4072e-08
1.40741e-08
1.40746e-08
1.40774e-08
1.40777e-08
1.40816e-08
1.40816e-08
1.40867e-08
1.40834e-08
1.40797e-08
1.4058e-08
1.4014e-08
1.39484e-08
1.35766e-08
1.36396e-08
1.36814e-08
1.37019e-08
1.37056e-08
1.37087e-08
1.37041e-08
1.3704e-08
1.37003e-08
1.36999e-08
1.36972e-08
1.36967e-08
1.36946e-08
1.36941e-08
1.36925e-08
1.3692e-08
1.36908e-08
1.36906e-08
1.36897e-08
1.36895e-08
1.3689e-08
1.36889e-08
1.36885e-08
1.36885e-08
1.36884e-08
1.36884e-08
1.36886e-08
1.36886e-08
1.3689e-08
1.36892e-08
1.36897e-08
1.369e-08
1.36908e-08
1.36911e-08
1.36923e-08
1.36927e-08
1.36943e-08
1.36949e-08
1.36969e-08
1.36975e-08
1.37001e-08
1.37005e-08
1.37041e-08
1.37041e-08
1.37088e-08
1.37056e-08
1.37019e-08
1.36813e-08
1.36395e-08
1.35764e-08
1.32345e-08
1.3295e-08
1.33347e-08
1.33542e-08
1.33579e-08
1.3361e-08
1.33567e-08
1.33567e-08
1.33532e-08
1.33527e-08
1.33502e-08
1.33496e-08
1.33476e-08
1.33471e-08
1.33455e-08
1.3345e-08
1.33439e-08
1.33436e-08
1.33427e-08
1.33425e-08
1.3342e-08
1.33419e-08
1.33415e-08
1.33415e-08
1.33414e-08
1.33414e-08
1.33415e-08
1.33416e-08
1.3342e-08
1.33422e-08
1.33427e-08
1.3343e-08
1.33438e-08
1.33441e-08
1.33453e-08
1.33458e-08
1.33473e-08
1.33479e-08
1.33499e-08
1.33505e-08
1.33529e-08
1.33534e-08
1.33568e-08
1.33568e-08
1.3361e-08
1.33579e-08
1.33541e-08
1.33347e-08
1.32949e-08
1.32344e-08
1.29203e-08
1.29783e-08
1.30161e-08
1.30346e-08
1.30383e-08
1.30414e-08
1.30376e-08
1.30375e-08
1.30343e-08
1.30338e-08
1.30314e-08
1.30308e-08
1.30288e-08
1.30282e-08
1.30267e-08
1.30262e-08
1.30251e-08
1.30247e-08
1.30239e-08
1.30237e-08
1.30231e-08
1.3023e-08
1.30227e-08
1.30226e-08
1.30226e-08
1.30226e-08
1.30227e-08
1.30228e-08
1.30231e-08
1.30233e-08
1.30239e-08
1.30241e-08
1.3025e-08
1.30253e-08
1.30265e-08
1.3027e-08
1.30285e-08
1.30291e-08
1.3031e-08
1.30317e-08
1.3034e-08
1.30345e-08
1.30376e-08
1.30377e-08
1.30414e-08
1.30383e-08
1.30345e-08
1.30161e-08
1.29782e-08
1.29202e-08
1.26322e-08
1.26877e-08
1.27238e-08
1.27413e-08
1.27451e-08
1.27482e-08
1.27448e-08
1.27448e-08
1.27418e-08
1.27413e-08
1.2739e-08
1.27383e-08
1.27365e-08
1.27358e-08
1.27343e-08
1.27338e-08
1.27327e-08
1.27323e-08
1.27315e-08
1.27312e-08
1.27307e-08
1.27306e-08
1.27303e-08
1.27302e-08
1.27301e-08
1.27301e-08
1.27303e-08
1.27304e-08
1.27307e-08
1.27309e-08
1.27315e-08
1.27317e-08
1.27326e-08
1.27329e-08
1.27341e-08
1.27346e-08
1.27361e-08
1.27367e-08
1.27386e-08
1.27392e-08
1.27415e-08
1.2742e-08
1.27449e-08
1.27449e-08
1.27483e-08
1.27451e-08
1.27413e-08
1.27237e-08
1.26876e-08
1.26321e-08
1.23688e-08
1.24216e-08
1.24562e-08
1.24729e-08
1.24768e-08
1.24799e-08
1.24769e-08
1.24769e-08
1.24742e-08
1.24736e-08
1.24715e-08
1.24707e-08
1.2469e-08
1.24682e-08
1.24668e-08
1.24662e-08
1.24651e-08
1.24647e-08
1.2464e-08
1.24637e-08
1.24632e-08
1.2463e-08
1.24627e-08
1.24626e-08
1.24626e-08
1.24626e-08
1.24627e-08
1.24628e-08
1.24631e-08
1.24634e-08
1.24639e-08
1.24642e-08
1.2465e-08
1.24654e-08
1.24665e-08
1.24671e-08
1.24685e-08
1.24692e-08
1.2471e-08
1.24717e-08
1.24738e-08
1.24744e-08
1.24771e-08
1.2477e-08
1.24799e-08
1.24768e-08
1.24729e-08
1.24561e-08
1.24215e-08
1.23686e-08
1.21285e-08
1.21788e-08
1.2212e-08
1.2228e-08
1.22319e-08
1.22351e-08
1.22325e-08
1.22326e-08
1.22301e-08
1.22295e-08
1.22275e-08
1.22268e-08
1.2225e-08
1.22243e-08
1.22229e-08
1.22223e-08
1.22212e-08
1.22208e-08
1.222e-08
1.22197e-08
1.22192e-08
1.2219e-08
1.22187e-08
1.22186e-08
1.22186e-08
1.22186e-08
1.22187e-08
1.22188e-08
1.22192e-08
1.22194e-08
1.22199e-08
1.22203e-08
1.2221e-08
1.22215e-08
1.22226e-08
1.22232e-08
1.22246e-08
1.22253e-08
1.2227e-08
1.22278e-08
1.22298e-08
1.22303e-08
1.22328e-08
1.22327e-08
1.22352e-08
1.22319e-08
1.22279e-08
1.22119e-08
1.21787e-08
1.21284e-08
1.19104e-08
1.19582e-08
1.199e-08
1.20054e-08
1.20095e-08
1.20128e-08
1.20106e-08
1.20108e-08
1.20085e-08
1.20079e-08
1.2006e-08
1.20052e-08
1.20035e-08
1.20028e-08
1.20014e-08
1.20008e-08
1.19997e-08
1.19992e-08
1.19985e-08
1.19982e-08
1.19977e-08
1.19975e-08
1.19972e-08
1.19971e-08
1.1997e-08
1.1997e-08
1.19972e-08
1.19973e-08
1.19976e-08
1.19979e-08
1.19984e-08
1.19987e-08
1.19995e-08
1.2e-08
1.20011e-08
1.20017e-08
1.20031e-08
1.20039e-08
1.20055e-08
1.20063e-08
1.20082e-08
1.20087e-08
1.20109e-08
1.20107e-08
1.20128e-08
1.20095e-08
1.20053e-08
1.199e-08
1.1958e-08
1.19102e-08
1.17134e-08
1.17587e-08
1.17894e-08
1.18042e-08
1.18085e-08
1.18119e-08
1.18102e-08
1.18104e-08
1.18084e-08
1.18078e-08
1.1806e-08
1.18052e-08
1.18036e-08
1.18028e-08
1.18014e-08
1.18008e-08
1.17997e-08
1.17992e-08
1.17985e-08
1.17982e-08
1.17977e-08
1.17974e-08
1.17972e-08
1.17971e-08
1.1797e-08
1.1797e-08
1.17971e-08
1.17973e-08
1.17976e-08
1.17979e-08
1.17984e-08
1.17988e-08
1.17995e-08
1.18e-08
1.18011e-08
1.18018e-08
1.18031e-08
1.18039e-08
1.18055e-08
1.18063e-08
1.18081e-08
1.18086e-08
1.18106e-08
1.18103e-08
1.1812e-08
1.18085e-08
1.18041e-08
1.17893e-08
1.17586e-08
1.17133e-08
1.15368e-08
1.15797e-08
1.16093e-08
1.16236e-08
1.16282e-08
1.16318e-08
1.16305e-08
1.16308e-08
1.1629e-08
1.16285e-08
1.16268e-08
1.16259e-08
1.16244e-08
1.16235e-08
1.16222e-08
1.16215e-08
1.16205e-08
1.162e-08
1.16192e-08
1.16189e-08
1.16184e-08
1.16182e-08
1.16179e-08
1.16178e-08
1.16177e-08
1.16177e-08
1.16179e-08
1.1618e-08
1.16183e-08
1.16186e-08
1.16191e-08
1.16195e-08
1.16203e-08
1.16208e-08
1.16219e-08
1.16226e-08
1.16239e-08
1.16247e-08
1.16263e-08
1.16271e-08
1.16287e-08
1.16292e-08
1.1631e-08
1.16306e-08
1.16318e-08
1.16282e-08
1.16235e-08
1.16092e-08
1.15795e-08
1.15366e-08
1.138e-08
1.14205e-08
1.14491e-08
1.1463e-08
1.1468e-08
1.14717e-08
1.14709e-08
1.14714e-08
1.14698e-08
1.14693e-08
1.14677e-08
1.14668e-08
1.14653e-08
1.14645e-08
1.14632e-08
1.14624e-08
1.14614e-08
1.14609e-08
1.14601e-08
1.14598e-08
1.14593e-08
1.1459e-08
1.14588e-08
1.14587e-08
1.14586e-08
1.14586e-08
1.14587e-08
1.14589e-08
1.14592e-08
1.14595e-08
1.146e-08
1.14604e-08
1.14612e-08
1.14618e-08
1.14628e-08
1.14635e-08
1.14648e-08
1.14657e-08
1.14672e-08
1.1468e-08
1.14695e-08
1.147e-08
1.14715e-08
1.1471e-08
1.14718e-08
1.1468e-08
1.1463e-08
1.1449e-08
1.14203e-08
1.13798e-08
1.12423e-08
1.12807e-08
1.13084e-08
1.1322e-08
1.13274e-08
1.13313e-08
1.1331e-08
1.13316e-08
1.13303e-08
1.13298e-08
1.13283e-08
1.13274e-08
1.1326e-08
1.13251e-08
1.13238e-08
1.1323e-08
1.1322e-08
1.13215e-08
1.13207e-08
1.13203e-08
1.13199e-08
1.13196e-08
1.13193e-08
1.13192e-08
1.13192e-08
1.13192e-08
1.13193e-08
1.13195e-08
1.13198e-08
1.13201e-08
1.13206e-08
1.1321e-08
1.13218e-08
1.13224e-08
1.13234e-08
1.13242e-08
1.13254e-08
1.13263e-08
1.13278e-08
1.13286e-08
1.133e-08
1.13305e-08
1.13318e-08
1.13311e-08
1.13314e-08
1.13274e-08
1.13219e-08
1.13084e-08
1.12805e-08
1.12421e-08
1.11236e-08
1.11598e-08
1.1187e-08
1.12001e-08
1.1206e-08
1.12103e-08
1.12104e-08
1.12112e-08
1.12101e-08
1.12097e-08
1.12083e-08
1.12074e-08
1.12061e-08
1.12051e-08
1.12039e-08
1.12031e-08
1.1202e-08
1.12015e-08
1.12007e-08
1.12003e-08
1.11998e-08
1.11996e-08
1.11993e-08
1.11992e-08
1.11991e-08
1.11991e-08
1.11993e-08
1.11994e-08
1.11998e-08
1.12001e-08
1.12006e-08
1.1201e-08
1.12018e-08
1.12024e-08
1.12034e-08
1.12042e-08
1.12055e-08
1.12064e-08
1.12078e-08
1.12086e-08
1.12099e-08
1.12103e-08
1.12114e-08
1.12105e-08
1.12104e-08
1.1206e-08
1.12001e-08
1.11869e-08
1.11596e-08
1.11234e-08
1.10236e-08
1.10578e-08
1.10845e-08
1.10973e-08
1.11039e-08
1.11084e-08
1.11091e-08
1.111e-08
1.11092e-08
1.11088e-08
1.11076e-08
1.11067e-08
1.11054e-08
1.11044e-08
1.11031e-08
1.11023e-08
1.11013e-08
1.11007e-08
1.11e-08
1.10995e-08
1.10991e-08
1.10988e-08
1.10985e-08
1.10984e-08
1.10983e-08
1.10983e-08
1.10985e-08
1.10986e-08
1.1099e-08
1.10993e-08
1.10998e-08
1.11003e-08
1.11011e-08
1.11017e-08
1.11027e-08
1.11035e-08
1.11047e-08
1.11057e-08
1.1107e-08
1.11079e-08
1.11091e-08
1.11094e-08
1.11102e-08
1.11092e-08
1.11085e-08
1.11039e-08
1.10973e-08
1.10844e-08
1.10576e-08
1.10234e-08
1.09423e-08
1.09747e-08
1.1001e-08
1.10166e-08
1.10238e-08
1.10287e-08
1.10298e-08
1.1031e-08
1.10304e-08
1.10301e-08
1.10289e-08
1.10281e-08
1.10268e-08
1.10257e-08
1.10245e-08
1.10237e-08
1.10227e-08
1.1022e-08
1.10213e-08
1.10209e-08
1.10204e-08
1.10201e-08
1.10198e-08
1.10197e-08
1.10196e-08
1.10196e-08
1.10198e-08
1.10199e-08
1.10203e-08
1.10206e-08
1.10212e-08
1.10217e-08
1.10224e-08
1.10231e-08
1.10241e-08
1.1025e-08
1.10261e-08
1.10272e-08
1.10284e-08
1.10293e-08
1.10304e-08
1.10306e-08
1.10311e-08
1.10299e-08
1.10287e-08
1.10237e-08
1.10165e-08
1.10009e-08
1.09744e-08
1.09421e-08
1.08819e-08
1.09127e-08
1.09388e-08
1.09544e-08
1.09621e-08
1.09674e-08
1.09689e-08
1.09702e-08
1.09699e-08
1.09696e-08
1.09686e-08
1.09677e-08
1.09665e-08
1.09654e-08
1.09642e-08
1.09634e-08
1.09624e-08
1.09617e-08
1.0961e-08
1.09605e-08
1.096e-08
1.09597e-08
1.09594e-08
1.09593e-08
1.09592e-08
1.09592e-08
1.09594e-08
1.09596e-08
1.09599e-08
1.09603e-08
1.09608e-08
1.09613e-08
1.09621e-08
1.09628e-08
1.09638e-08
1.09647e-08
1.09658e-08
1.09669e-08
1.09681e-08
1.09689e-08
1.09699e-08
1.09701e-08
1.09704e-08
1.0969e-08
1.09674e-08
1.09621e-08
1.09543e-08
1.09387e-08
1.09124e-08
1.08817e-08
1.08387e-08
1.08678e-08
1.0894e-08
1.09097e-08
1.09182e-08
1.09239e-08
1.0926e-08
1.09276e-08
1.09275e-08
1.09273e-08
1.09264e-08
1.09255e-08
1.09244e-08
1.09232e-08
1.09221e-08
1.09212e-08
1.09202e-08
1.09195e-08
1.09188e-08
1.09182e-08
1.09178e-08
1.09174e-08
1.09172e-08
1.0917e-08
1.0917e-08
1.0917e-08
1.09171e-08
1.09173e-08
1.09177e-08
1.0918e-08
1.09186e-08
1.09191e-08
1.09199e-08
1.09206e-08
1.09216e-08
1.09225e-08
1.09237e-08
1.09247e-08
1.09259e-08
1.09268e-08
1.09276e-08
1.09278e-08
1.09277e-08
1.09261e-08
1.09239e-08
1.09181e-08
1.09095e-08
1.08939e-08
1.08675e-08
1.08384e-08
1.08147e-08
1.08423e-08
1.08688e-08
1.08847e-08
1.08941e-08
1.09003e-08
1.09031e-08
1.09049e-08
1.09052e-08
1.09051e-08
1.09043e-08
1.09034e-08
1.09023e-08
1.09012e-08
1.09e-08
1.08991e-08
1.08981e-08
1.08973e-08
1.08966e-08
1.08961e-08
1.08956e-08
1.08953e-08
1.0895e-08
1.08948e-08
1.08948e-08
1.08948e-08
1.08949e-08
1.08951e-08
1.08955e-08
1.08959e-08
1.08964e-08
1.0897e-08
1.08977e-08
1.08985e-08
1.08995e-08
1.09005e-08
1.09016e-08
1.09027e-08
1.09038e-08
1.09047e-08
1.09054e-08
1.09054e-08
1.09051e-08
1.09032e-08
1.09004e-08
1.08941e-08
1.08845e-08
1.08686e-08
1.0842e-08
1.08144e-08
1.08107e-08
1.0837e-08
1.08639e-08
1.08801e-08
1.08906e-08
1.08974e-08
1.09008e-08
1.0903e-08
1.09035e-08
1.09036e-08
1.09029e-08
1.0902e-08
1.0901e-08
1.08998e-08
1.08987e-08
1.08977e-08
1.08967e-08
1.08959e-08
1.08952e-08
1.08946e-08
1.08941e-08
1.08938e-08
1.08935e-08
1.08933e-08
1.08933e-08
1.08933e-08
1.08934e-08
1.08936e-08
1.0894e-08
1.08944e-08
1.08949e-08
1.08955e-08
1.08963e-08
1.08971e-08
1.08981e-08
1.08991e-08
1.09002e-08
1.09014e-08
1.09024e-08
1.09033e-08
1.09039e-08
1.09038e-08
1.09031e-08
1.09009e-08
1.08974e-08
1.08905e-08
1.088e-08
1.08637e-08
1.08366e-08
1.08103e-08
1.08269e-08
1.0852e-08
1.08794e-08
1.08962e-08
1.09077e-08
1.09152e-08
1.09193e-08
1.09218e-08
1.09227e-08
1.09228e-08
1.09223e-08
1.09214e-08
1.09204e-08
1.09192e-08
1.09181e-08
1.09171e-08
1.09161e-08
1.09152e-08
1.09145e-08
1.09139e-08
1.09134e-08
1.0913e-08
1.09128e-08
1.09126e-08
1.09125e-08
1.09126e-08
1.09127e-08
1.09129e-08
1.09133e-08
1.09137e-08
1.09143e-08
1.09149e-08
1.09157e-08
1.09165e-08
1.09175e-08
1.09186e-08
1.09196e-08
1.09208e-08
1.09218e-08
1.09226e-08
1.09231e-08
1.09229e-08
1.09219e-08
1.09194e-08
1.09152e-08
1.09076e-08
1.0896e-08
1.08792e-08
1.08516e-08
1.08265e-08
1.08638e-08
1.08879e-08
1.09161e-08
1.09335e-08
1.09463e-08
1.09544e-08
1.09593e-08
1.09622e-08
1.09634e-08
1.09637e-08
1.09633e-08
1.09624e-08
1.09615e-08
1.09602e-08
1.09592e-08
1.09581e-08
1.09571e-08
1.09562e-08
1.09554e-08
1.09548e-08
1.09543e-08
1.09539e-08
1.09536e-08
1.09535e-08
1.09534e-08
1.09534e-08
1.09536e-08
1.09538e-08
1.09542e-08
1.09546e-08
1.09552e-08
1.09558e-08
1.09566e-08
1.09575e-08
1.09585e-08
1.09596e-08
1.09607e-08
1.09619e-08
1.09628e-08
1.09636e-08
1.0964e-08
1.09636e-08
1.09623e-08
1.09593e-08
1.09544e-08
1.09461e-08
1.09333e-08
1.09158e-08
1.08875e-08
1.08634e-08
1.09242e-08
1.09475e-08
1.09767e-08
1.09949e-08
1.10091e-08
1.10181e-08
1.10238e-08
1.10271e-08
1.10287e-08
1.10292e-08
1.10289e-08
1.10281e-08
1.10272e-08
1.10259e-08
1.10249e-08
1.10237e-08
1.10227e-08
1.10218e-08
1.1021e-08
1.10204e-08
1.10199e-08
1.10194e-08
1.10192e-08
1.1019e-08
1.10189e-08
1.10189e-08
1.10191e-08
1.10193e-08
1.10197e-08
1.10202e-08
1.10207e-08
1.10214e-08
1.10222e-08
1.10232e-08
1.10242e-08
1.10253e-08
1.10264e-08
1.10276e-08
1.10285e-08
1.10293e-08
1.10295e-08
1.10289e-08
1.10272e-08
1.10238e-08
1.1018e-08
1.10089e-08
1.09947e-08
1.09764e-08
1.0947e-08
1.09237e-08
1.10086e-08
1.10312e-08
1.10617e-08
1.10809e-08
1.10966e-08
1.11066e-08
1.11131e-08
1.11169e-08
1.11189e-08
1.11195e-08
1.11195e-08
1.11187e-08
1.11178e-08
1.11165e-08
1.11154e-08
1.11142e-08
1.11132e-08
1.11123e-08
1.11115e-08
1.11108e-08
1.11102e-08
1.11098e-08
1.11095e-08
1.11093e-08
1.11093e-08
1.11093e-08
1.11094e-08
1.11097e-08
1.11101e-08
1.11106e-08
1.11112e-08
1.11119e-08
1.11127e-08
1.11137e-08
1.11147e-08
1.11159e-08
1.11169e-08
1.11182e-08
1.11191e-08
1.11198e-08
1.11198e-08
1.11191e-08
1.1117e-08
1.11131e-08
1.11064e-08
1.10964e-08
1.10806e-08
1.10613e-08
1.10306e-08
1.10081e-08
1.11147e-08
1.11366e-08
1.11688e-08
1.11892e-08
1.12064e-08
1.12174e-08
1.12249e-08
1.12292e-08
1.12316e-08
1.12324e-08
1.12325e-08
1.12317e-08
1.12309e-08
1.12295e-08
1.12285e-08
1.12273e-08
1.12263e-08
1.12252e-08
1.12244e-08
1.12237e-08
1.12231e-08
1.12227e-08
1.12224e-08
1.12222e-08
1.12221e-08
1.12222e-08
1.12223e-08
1.12226e-08
1.12229e-08
1.12235e-08
1.12241e-08
1.12249e-08
1.12257e-08
1.12267e-08
1.12277e-08
1.1229e-08
1.123e-08
1.12313e-08
1.12321e-08
1.12328e-08
1.12326e-08
1.12317e-08
1.12292e-08
1.12248e-08
1.12172e-08
1.12061e-08
1.11888e-08
1.11683e-08
1.1136e-08
1.11141e-08
1.12474e-08
1.12683e-08
1.13025e-08
1.13243e-08
1.13436e-08
1.1356e-08
1.13647e-08
1.13696e-08
1.13726e-08
1.13737e-08
1.13739e-08
1.13732e-08
1.13725e-08
1.1371e-08
1.137e-08
1.13687e-08
1.13677e-08
1.13666e-08
1.13657e-08
1.13649e-08
1.13644e-08
1.13639e-08
1.13636e-08
1.13634e-08
1.13633e-08
1.13634e-08
1.13635e-08
1.13638e-08
1.13642e-08
1.13647e-08
1.13653e-08
1.13662e-08
1.1367e-08
1.13681e-08
1.13691e-08
1.13705e-08
1.13715e-08
1.13729e-08
1.13736e-08
1.13742e-08
1.13738e-08
1.13727e-08
1.13696e-08
1.13645e-08
1.13558e-08
1.13433e-08
1.13239e-08
1.1302e-08
1.12676e-08
1.12466e-08
1.14068e-08
1.14275e-08
1.1464e-08
1.14873e-08
1.15086e-08
1.15222e-08
1.1532e-08
1.15376e-08
1.15411e-08
1.15423e-08
1.15428e-08
1.15421e-08
1.15415e-08
1.154e-08
1.1539e-08
1.15376e-08
1.15365e-08
1.15354e-08
1.15345e-08
1.15336e-08
1.15331e-08
1.15326e-08
1.15323e-08
1.1532e-08
1.1532e-08
1.1532e-08
1.15322e-08
1.15325e-08
1.15328e-08
1.15334e-08
1.15341e-08
1.1535e-08
1.15358e-08
1.1537e-08
1.1538e-08
1.15394e-08
1.15404e-08
1.15418e-08
1.15424e-08
1.15431e-08
1.15425e-08
1.15411e-08
1.15375e-08
1.15318e-08
1.15219e-08
1.15082e-08
1.14868e-08
1.14634e-08
1.14267e-08
1.1406e-08
1.15958e-08
1.16163e-08
1.16556e-08
1.16806e-08
1.17041e-08
1.17191e-08
1.17301e-08
1.17364e-08
1.17404e-08
1.17419e-08
1.17426e-08
1.17419e-08
1.17413e-08
1.17398e-08
1.17388e-08
1.17373e-08
1.17363e-08
1.1735e-08
1.17341e-08
1.17332e-08
1.17327e-08
1.17321e-08
1.17318e-08
1.17316e-08
1.17315e-08
1.17315e-08
1.17317e-08
1.1732e-08
1.17324e-08
1.1733e-08
1.17336e-08
1.17346e-08
1.17354e-08
1.17367e-08
1.17377e-08
1.17392e-08
1.17402e-08
1.17417e-08
1.17422e-08
1.17428e-08
1.1742e-08
1.17403e-08
1.17362e-08
1.17298e-08
1.17187e-08
1.17036e-08
1.168e-08
1.16548e-08
1.16154e-08
1.15948e-08
1.1967e-08
1.1966e-08
1.19655e-08
1.19648e-08
1.19645e-08
1.19643e-08
1.19642e-08
1.19643e-08
1.19644e-08
1.19648e-08
1.19651e-08
1.19658e-08
1.19664e-08
1.19674e-08
1.19683e-08
1.19696e-08
1.19707e-08
1.19722e-08
1.19732e-08
1.19748e-08
1.19752e-08
1.19758e-08
1.19747e-08
1.19728e-08
1.19681e-08
1.19609e-08
1.19485e-08
1.19317e-08
1.19057e-08
1.18786e-08
1.1836e-08
1.18153e-08
1.22336e-08
1.22343e-08
1.2235e-08
1.22361e-08
1.2237e-08
1.22384e-08
1.22394e-08
1.22411e-08
1.2242e-08
1.22436e-08
1.2244e-08
1.22445e-08
1.22432e-08
1.22409e-08
1.22356e-08
1.22276e-08
1.22138e-08
1.21952e-08
1.21666e-08
1.21372e-08
1.2091e-08
1.207e-08
1.25503e-08
1.25477e-08
1.25417e-08
1.25328e-08
1.25174e-08
1.24969e-08
1.24653e-08
1.24334e-08
1.2383e-08
1.23615e-08
)
;

boundaryField
{
    fuel
    {
        type            fixedValue;
        value           nonuniform 0();
    }
    wall
    {
        type            zeroGradient;
    }
    outlet
    {
        type            zeroGradient;
    }
    frontAndBack
    {
        type            empty;
    }
    procBoundary0to1
    {
        type            processor;
        value           nonuniform List<scalar> 
50
(
2.31168e-08
2.32221e-08
2.33116e-08
2.33528e-08
2.33547e-08
2.33601e-08
2.3347e-08
2.33489e-08
2.33401e-08
2.33417e-08
2.33363e-08
2.33374e-08
2.33337e-08
2.33343e-08
2.33316e-08
2.3332e-08
2.333e-08
2.33304e-08
2.33291e-08
2.33293e-08
2.33285e-08
2.33286e-08
2.33281e-08
2.33282e-08
2.3328e-08
2.33281e-08
2.33282e-08
2.33282e-08
2.33287e-08
2.33286e-08
2.33295e-08
2.33293e-08
2.33306e-08
2.33302e-08
2.33322e-08
2.33318e-08
2.33345e-08
2.33338e-08
2.33376e-08
2.33365e-08
2.33419e-08
2.33402e-08
2.33489e-08
2.3347e-08
2.33601e-08
2.33546e-08
2.33527e-08
2.33115e-08
2.3222e-08
2.31166e-08
)
;
    }
    procBoundary0to2
    {
        type            processor;
        value           nonuniform List<scalar> 
53
(
1.18161e-08
1.18367e-08
1.18792e-08
1.19062e-08
1.19321e-08
1.19487e-08
1.1961e-08
1.19681e-08
1.19727e-08
1.19745e-08
1.19754e-08
1.19748e-08
1.19743e-08
1.19727e-08
1.19717e-08
1.19702e-08
1.19691e-08
1.19678e-08
1.19678e-08
1.22355e-08
1.22345e-08
1.22339e-08
1.22333e-08
1.22329e-08
1.22327e-08
1.22326e-08
1.22327e-08
1.22328e-08
1.22332e-08
1.22332e-08
1.25407e-08
1.25414e-08
1.25421e-08
1.25432e-08
1.25441e-08
1.25456e-08
1.25467e-08
1.25484e-08
1.25493e-08
1.2551e-08
1.25513e-08
1.25517e-08
1.25517e-08
1.2899e-08
1.2896e-08
1.28893e-08
1.28793e-08
1.28622e-08
1.28395e-08
1.28048e-08
1.277e-08
1.27149e-08
1.26925e-08
)
;
    }
}


// ************************************************************************* //
