/*--------------------------------*- C++ -*----------------------------------*\
| =========                 |                                                 |
| \\      /  F ield         | OpenFOAM: The Open Source CFD Toolbox           |
|  \\    /   O peration     | Version:  dev                                   |
|   \\  /    A nd           | Web:      www.OpenFOAM.org                      |
|    \\/     M anipulation  |                                                 |
\*---------------------------------------------------------------------------*/
FoamFile
{
    version     2.0;
    format      ascii;
    class       volScalarField;
    location    "0.035";
    object      A2R5;
}
// * * * * * * * * * * * * * * * * * * * * * * * * * * * * * * * * * * * * * //

dimensions      [0 0 0 0 0 0 0];

internalField   nonuniform List<scalar> 
250
(
5.92453e-08
5.92969e-08
5.92346e-08
5.94318e-08
5.94714e-08
6.1074e-08
6.53818e-08
9.16635e-08
1.62076e-07
3.63353e-07
5.71836e-08
5.72322e-08
5.71771e-08
5.73634e-08
5.74205e-08
5.89206e-08
6.3039e-08
8.7653e-08
1.51873e-07
3.40139e-07
2.94501e-07
1.45269e-07
8.35789e-08
6.11098e-08
5.69161e-08
5.56589e-08
5.55404e-08
5.53951e-08
5.54358e-08
5.54007e-08
5.5394e-08
5.54394e-08
5.53934e-08
5.55682e-08
5.56445e-08
5.70396e-08
6.09798e-08
8.38476e-08
1.42062e-07
3.14672e-07
2.71896e-07
1.35473e-07
8.00006e-08
5.93085e-08
5.53234e-08
5.41498e-08
5.40175e-08
5.38783e-08
5.39086e-08
5.38758e-08
5.38695e-08
5.39116e-08
5.38764e-08
5.404e-08
5.4137e-08
5.54272e-08
5.9193e-08
8.02795e-08
1.32732e-07
2.88409e-07
2.51195e-07
1.26238e-07
7.66938e-08
5.77664e-08
5.39923e-08
5.29008e-08
5.27531e-08
5.26192e-08
5.26374e-08
5.26067e-08
5.26008e-08
5.26397e-08
5.26172e-08
5.27706e-08
5.28893e-08
5.40773e-08
5.7666e-08
7.6975e-08
1.23971e-07
2.65532e-07
2.30028e-07
1.18151e-07
7.36791e-08
5.64739e-08
5.29128e-08
5.18999e-08
5.17355e-08
5.16055e-08
5.16096e-08
5.15803e-08
5.15748e-08
5.16112e-08
5.16032e-08
5.17479e-08
5.18895e-08
5.29798e-08
5.63857e-08
7.39538e-08
1.16187e-07
2.42418e-07
2.12107e-07
1.10405e-07
7.09648e-08
5.54013e-08
5.20695e-08
5.11308e-08
5.09478e-08
5.08199e-08
5.08079e-08
5.07792e-08
5.07741e-08
5.08088e-08
5.08172e-08
5.09554e-08
5.1121e-08
5.21198e-08
5.5334e-08
7.12251e-08
1.08793e-07
2.23378e-07
1.90818e-07
1.03591e-07
6.85518e-08
5.45608e-08
5.14407e-08
5.05569e-08
5.03588e-08
5.0229e-08
5.02057e-08
5.01754e-08
5.01705e-08
5.02059e-08
5.02259e-08
5.03629e-08
5.05474e-08
5.14759e-08
5.45016e-08
6.87901e-08
1.02238e-07
2.01615e-07
1.7372e-07
9.74262e-08
6.64264e-08
5.39123e-08
5.09979e-08
5.01698e-08
4.99514e-08
4.98175e-08
4.97768e-08
4.97438e-08
4.97392e-08
4.97761e-08
4.98136e-08
4.99514e-08
5.01599e-08
5.10197e-08
5.38597e-08
6.6637e-08
9.62947e-08
1.8424e-07
1.58018e-07
9.16587e-08
6.4539e-08
5.34188e-08
5.07056e-08
4.99214e-08
4.96819e-08
4.9537e-08
4.94791e-08
4.94385e-08
4.9434e-08
4.94773e-08
4.9532e-08
4.96782e-08
4.99105e-08
5.0716e-08
5.33713e-08
6.47429e-08
9.07364e-08
1.65335e-07
1.43735e-07
8.66347e-08
6.29007e-08
5.30411e-08
5.05228e-08
4.97705e-08
4.95093e-08
4.93511e-08
4.92762e-08
4.92272e-08
4.92228e-08
4.92734e-08
4.93449e-08
4.95025e-08
4.9758e-08
5.05237e-08
5.29962e-08
6.30776e-08
8.58686e-08
1.50473e-07
1.30873e-07
8.21071e-08
6.14538e-08
5.27378e-08
5.0406e-08
4.9674e-08
4.93907e-08
4.92146e-08
4.9123e-08
4.90626e-08
4.90583e-08
4.91191e-08
4.92071e-08
4.93811e-08
4.96595e-08
5.03992e-08
5.26928e-08
6.16032e-08
8.14733e-08
1.36603e-07
1.19399e-07
7.80263e-08
6.01555e-08
5.24688e-08
5.03131e-08
4.95909e-08
4.92848e-08
4.90865e-08
4.89785e-08
4.8904e-08
4.88996e-08
4.89734e-08
4.90775e-08
4.92727e-08
4.9574e-08
5.03003e-08
5.24216e-08
6.02786e-08
7.74998e-08
1.24154e-07
4.8712e-08
4.88013e-08
4.89217e-08
4.91421e-08
4.94665e-08
5.019e-08
5.21486e-08
5.90644e-08
7.39033e-08
1.13107e-07
)
;

boundaryField
{
    fuel
    {
        type            fixedValue;
        value           nonuniform 0();
    }
    wall
    {
        type            zeroGradient;
    }
    outlet
    {
        type            zeroGradient;
    }
    frontAndBack
    {
        type            empty;
    }
    procBoundary0to1
    {
        type            processor;
        value           nonuniform List<scalar> 
21
(
1.09239e-07
7.43441e-08
5.8966e-08
5.22e-08
5.02076e-08
4.94862e-08
4.91563e-08
4.89322e-08
4.88076e-08
4.87165e-08
4.87165e-08
4.84703e-08
4.85771e-08
4.87141e-08
4.89629e-08
4.93115e-08
5.00403e-08
5.18491e-08
5.79279e-08
7.06452e-08
1.03377e-07
)
;
    }
    procBoundary0to2
    {
        type            processor;
        value           nonuniform List<scalar> 
12
(
5.92515e-08
3.17064e-07
1.5555e-07
8.74016e-08
6.31726e-08
5.87767e-08
5.74362e-08
5.73301e-08
5.71784e-08
5.72276e-08
5.71902e-08
5.71902e-08
)
;
    }
    procBoundary0to3
    {
        type            processor;
        value           nonuniform List<scalar> 10(6.15851e-08 6.1639e-08 6.15716e-08 6.17784e-08 6.18027e-08 6.35026e-08 6.79688e-08 9.66589e-08 1.72586e-07 3.82153e-07);
    }
}


// ************************************************************************* //
