/*--------------------------------*- C++ -*----------------------------------*\
| =========                 |                                                 |
| \\      /  F ield         | OpenFOAM: The Open Source CFD Toolbox           |
|  \\    /   O peration     | Version:  dev                                   |
|   \\  /    A nd           | Web:      www.OpenFOAM.org                      |
|    \\/     M anipulation  |                                                 |
\*---------------------------------------------------------------------------*/
FoamFile
{
    version     2.0;
    format      ascii;
    class       volScalarField;
    location    "0.035";
    object      A2R5-;
}
// * * * * * * * * * * * * * * * * * * * * * * * * * * * * * * * * * * * * * //

dimensions      [0 0 0 0 0 0 0];

internalField   nonuniform List<scalar> 
250
(
3.33997e-09
3.34885e-09
3.33819e-09
3.36094e-09
3.35224e-09
3.47132e-09
3.6126e-09
4.83828e-09
6.06475e-09
6.44208e-09
3.05655e-09
3.06568e-09
3.05496e-09
3.07745e-09
3.0691e-09
3.18146e-09
3.30586e-09
4.43761e-09
5.52884e-09
6.05208e-09
5.17482e-09
5.07392e-09
3.98698e-09
3.02653e-09
2.88667e-09
2.80049e-09
2.80227e-09
2.78408e-09
2.79387e-09
2.78526e-09
2.78438e-09
2.79373e-09
2.78305e-09
2.80518e-09
2.79724e-09
2.90255e-09
3.01179e-09
4.04281e-09
4.99646e-09
5.65325e-09
4.85499e-09
4.5388e-09
3.6014e-09
2.74237e-09
2.6186e-09
2.53834e-09
2.54013e-09
2.52207e-09
2.53178e-09
2.52293e-09
2.52214e-09
2.53167e-09
2.52112e-09
2.5428e-09
2.53528e-09
2.63335e-09
2.72825e-09
3.6555e-09
4.46997e-09
5.24353e-09
4.53568e-09
4.01197e-09
3.22535e-09
2.46701e-09
2.35921e-09
2.28507e-09
2.28684e-09
2.26904e-09
2.27855e-09
2.26951e-09
2.26876e-09
2.27842e-09
2.26811e-09
2.28925e-09
2.28216e-09
2.37285e-09
2.45346e-09
3.27714e-09
3.95406e-09
4.87034e-09
4.16688e-09
3.52697e-09
2.86047e-09
2.19954e-09
2.10772e-09
2.03994e-09
2.04166e-09
2.02423e-09
2.03339e-09
2.02424e-09
2.02353e-09
2.03322e-09
2.02332e-09
2.04379e-09
2.03715e-09
2.12031e-09
2.1863e-09
2.90931e-09
3.47295e-09
4.45549e-09
3.81344e-09
3.0424e-09
2.5084e-09
1.93716e-09
1.8638e-09
1.8028e-09
1.80438e-09
1.78748e-09
1.79604e-09
1.78692e-09
1.78627e-09
1.79585e-09
1.7866e-09
1.80621e-09
1.80014e-09
1.87538e-09
1.92642e-09
2.55367e-09
2.99695e-09
4.07522e-09
3.33705e-09
2.59777e-09
2.17137e-09
1.68674e-09
1.62771e-09
1.56955e-09
1.57258e-09
1.55605e-09
1.56586e-09
1.55667e-09
1.556e-09
1.56568e-09
1.55525e-09
1.5745e-09
1.56709e-09
1.63829e-09
1.67634e-09
2.21242e-09
2.55762e-09
3.58608e-09
2.9091e-09
2.18161e-09
1.85159e-09
1.44701e-09
1.40057e-09
1.34899e-09
1.35188e-09
1.33627e-09
1.34535e-09
1.33653e-09
1.33592e-09
1.34516e-09
1.33552e-09
1.35353e-09
1.34668e-09
1.41015e-09
1.43715e-09
1.88793e-09
2.14658e-09
3.15355e-09
2.4748e-09
1.78614e-09
1.54857e-09
1.21956e-09
1.18423e-09
1.13893e-09
1.14168e-09
1.12567e-09
1.13416e-09
1.12456e-09
1.12399e-09
1.13388e-09
1.12488e-09
1.14308e-09
1.13677e-09
1.19278e-09
1.21053e-09
1.58309e-09
1.75754e-09
2.63567e-09
2.04917e-09
1.44054e-09
1.27173e-09
1.00729e-09
9.81377e-10
9.42213e-10
9.44832e-10
9.30135e-10
9.37874e-10
9.28929e-10
9.28423e-10
9.37605e-10
9.2942e-10
9.46008e-10
9.40243e-10
9.88858e-10
9.99205e-10
1.30138e-09
1.41655e-09
2.19634e-09
1.64801e-09
1.13565e-09
1.02165e-09
8.13518e-10
7.95194e-10
7.62073e-10
7.64527e-10
7.5141e-10
7.58326e-10
7.50202e-10
7.49761e-10
7.58078e-10
7.50779e-10
7.65503e-10
7.60327e-10
8.01585e-10
8.0645e-10
1.04635e-09
1.11616e-09
1.76825e-09
1.28536e-09
8.74085e-10
8.01235e-10
6.41379e-10
6.28849e-10
6.01603e-10
6.03825e-10
5.92475e-10
5.98485e-10
5.91332e-10
5.90957e-10
5.98262e-10
5.91934e-10
6.04616e-10
6.00105e-10
6.34155e-10
6.35371e-10
8.21225e-10
8.58654e-10
1.37962e-09
4.54169e-10
4.60369e-10
4.55068e-10
4.6563e-10
4.61856e-10
4.89059e-10
4.88204e-10
6.2822e-10
6.44514e-10
1.04216e-09
)
;

boundaryField
{
    fuel
    {
        type            fixedValue;
        value           nonuniform 0();
    }
    wall
    {
        type            zeroGradient;
    }
    outlet
    {
        type            zeroGradient;
    }
    frontAndBack
    {
        type            empty;
    }
    procBoundary0to1
    {
        type            processor;
        value           nonuniform List<scalar> 
21
(
9.71882e-10
6.562e-10
6.12857e-10
4.93057e-10
4.84889e-10
4.63068e-10
4.65022e-10
4.55504e-10
4.60557e-10
4.54469e-10
4.54469e-10
3.40189e-10
3.45274e-10
3.40984e-10
3.49505e-10
3.46444e-10
3.67546e-10
3.65634e-10
4.68265e-10
4.71813e-10
7.62451e-10
)
;
    }
    procBoundary0to2
    {
        type            processor;
        value           nonuniform List<scalar> 
12
(
3.34072e-09
5.4857e-09
5.61379e-09
4.38147e-09
3.31972e-09
3.16459e-09
3.07242e-09
3.07429e-09
3.05597e-09
3.06576e-09
3.05743e-09
3.05743e-09
)
;
    }
    procBoundary0to3
    {
        type            processor;
        value           nonuniform List<scalar> 10(3.63588e-09 3.64449e-09 3.63396e-09 3.65693e-09 3.64782e-09 3.77357e-09 3.92845e-09 5.32075e-09 6.60478e-09 6.81595e-09);
    }
}


// ************************************************************************* //
