/*--------------------------------*- C++ -*----------------------------------*\
| =========                 |                                                 |
| \\      /  F ield         | OpenFOAM: The Open Source CFD Toolbox           |
|  \\    /   O peration     | Version:  dev                                   |
|   \\  /    A nd           | Web:      www.OpenFOAM.org                      |
|    \\/     M anipulation  |                                                 |
\*---------------------------------------------------------------------------*/
FoamFile
{
    version     2.0;
    format      ascii;
    class       volScalarField;
    location    "0.035";
    object      A2R5-;
}
// * * * * * * * * * * * * * * * * * * * * * * * * * * * * * * * * * * * * * //

dimensions      [0 0 0 0 0 0 0];

internalField   nonuniform List<scalar> 
2014
(
1.07477e-08
1.0798e-08
1.08453e-08
1.087e-08
1.0879e-08
1.08835e-08
1.08811e-08
1.08812e-08
1.08786e-08
1.08784e-08
1.08767e-08
1.08766e-08
1.08754e-08
1.08754e-08
1.08747e-08
1.08747e-08
1.08742e-08
1.08742e-08
1.08739e-08
1.08739e-08
1.08737e-08
1.08737e-08
1.08736e-08
1.08736e-08
1.08736e-08
1.08736e-08
1.08736e-08
1.08736e-08
1.08737e-08
1.08737e-08
1.08739e-08
1.08739e-08
1.08742e-08
1.08742e-08
1.08747e-08
1.08746e-08
1.08754e-08
1.08754e-08
1.08765e-08
1.08766e-08
1.08783e-08
1.08786e-08
1.08812e-08
1.08811e-08
1.08835e-08
1.0879e-08
1.087e-08
1.08453e-08
1.0798e-08
1.07477e-08
1.04949e-08
1.05445e-08
1.05908e-08
1.0615e-08
1.06238e-08
1.06281e-08
1.06257e-08
1.06257e-08
1.06231e-08
1.06228e-08
1.06211e-08
1.06209e-08
1.06198e-08
1.06198e-08
1.0619e-08
1.0619e-08
1.06185e-08
1.06186e-08
1.06182e-08
1.06183e-08
1.0618e-08
1.0618e-08
1.06179e-08
1.06179e-08
1.06179e-08
1.06179e-08
1.06179e-08
1.06179e-08
1.0618e-08
1.0618e-08
1.06183e-08
1.06182e-08
1.06186e-08
1.06185e-08
1.0619e-08
1.0619e-08
1.06197e-08
1.06198e-08
1.06209e-08
1.06211e-08
1.06228e-08
1.0623e-08
1.06257e-08
1.06256e-08
1.0628e-08
1.06238e-08
1.06149e-08
1.05908e-08
1.05445e-08
1.04949e-08
1.02477e-08
1.02967e-08
1.03418e-08
1.03654e-08
1.0374e-08
1.03781e-08
1.03757e-08
1.03756e-08
1.0373e-08
1.03726e-08
1.03709e-08
1.03707e-08
1.03696e-08
1.03695e-08
1.03688e-08
1.03688e-08
1.03683e-08
1.03683e-08
1.0368e-08
1.0368e-08
1.03678e-08
1.03678e-08
1.03677e-08
1.03677e-08
1.03676e-08
1.03676e-08
1.03677e-08
1.03677e-08
1.03678e-08
1.03678e-08
1.0368e-08
1.0368e-08
1.03683e-08
1.03683e-08
1.03688e-08
1.03688e-08
1.03695e-08
1.03696e-08
1.03707e-08
1.03709e-08
1.03726e-08
1.03729e-08
1.03756e-08
1.03756e-08
1.03781e-08
1.03739e-08
1.03654e-08
1.03418e-08
1.02966e-08
1.02476e-08
1.00059e-08
1.00543e-08
1.00981e-08
1.01212e-08
1.01295e-08
1.01334e-08
1.01309e-08
1.01308e-08
1.01282e-08
1.01278e-08
1.01261e-08
1.01259e-08
1.01247e-08
1.01246e-08
1.01239e-08
1.01239e-08
1.01233e-08
1.01234e-08
1.0123e-08
1.01231e-08
1.01228e-08
1.01229e-08
1.01227e-08
1.01227e-08
1.01227e-08
1.01227e-08
1.01227e-08
1.01227e-08
1.01229e-08
1.01228e-08
1.01231e-08
1.0123e-08
1.01234e-08
1.01233e-08
1.01239e-08
1.01239e-08
1.01246e-08
1.01247e-08
1.01258e-08
1.0126e-08
1.01277e-08
1.01281e-08
1.01308e-08
1.01309e-08
1.01334e-08
1.01294e-08
1.01211e-08
1.00981e-08
1.00543e-08
1.00058e-08
9.76936e-09
9.81727e-09
9.8596e-09
9.8821e-09
9.89012e-09
9.89389e-09
9.89138e-09
9.89115e-09
9.88852e-09
9.88806e-09
9.88635e-09
9.88611e-09
9.88498e-09
9.88487e-09
9.88412e-09
9.88409e-09
9.88357e-09
9.8836e-09
9.88326e-09
9.88327e-09
9.88305e-09
9.88306e-09
9.88292e-09
9.88293e-09
9.88289e-09
9.88289e-09
9.88293e-09
9.88292e-09
9.88305e-09
9.88305e-09
9.88327e-09
9.88325e-09
9.88359e-09
9.88356e-09
9.88408e-09
9.88411e-09
9.88485e-09
9.88497e-09
9.88609e-09
9.88633e-09
9.88804e-09
9.88849e-09
9.89112e-09
9.89134e-09
9.89385e-09
9.89008e-09
9.88207e-09
9.85958e-09
9.81723e-09
9.76931e-09
9.53797e-09
9.58533e-09
9.6263e-09
9.64811e-09
9.6558e-09
9.65939e-09
9.65684e-09
9.65653e-09
9.65389e-09
9.65339e-09
9.65167e-09
9.6514e-09
9.65027e-09
9.65013e-09
9.64938e-09
9.64934e-09
9.64882e-09
9.64884e-09
9.6485e-09
9.64851e-09
9.64829e-09
9.64829e-09
9.64816e-09
9.64816e-09
9.64812e-09
9.64812e-09
9.64816e-09
9.64815e-09
9.64829e-09
9.64828e-09
9.64851e-09
9.64849e-09
9.64883e-09
9.64882e-09
9.64933e-09
9.64937e-09
9.65012e-09
9.65025e-09
9.65138e-09
9.65165e-09
9.65336e-09
9.65387e-09
9.6565e-09
9.6568e-09
9.65935e-09
9.65576e-09
9.64807e-09
9.62628e-09
9.58528e-09
9.53793e-09
9.31161e-09
9.35832e-09
9.39804e-09
9.41907e-09
9.4264e-09
9.4298e-09
9.42721e-09
9.42682e-09
9.42418e-09
9.42362e-09
9.4219e-09
9.4216e-09
9.42047e-09
9.42031e-09
9.41956e-09
9.41951e-09
9.41899e-09
9.419e-09
9.41865e-09
9.41866e-09
9.41843e-09
9.41843e-09
9.4183e-09
9.41831e-09
9.41827e-09
9.41827e-09
9.41831e-09
9.4183e-09
9.41843e-09
9.41843e-09
9.41865e-09
9.41865e-09
9.41899e-09
9.41898e-09
9.41949e-09
9.41955e-09
9.4203e-09
9.42045e-09
9.42158e-09
9.42188e-09
9.4236e-09
9.42415e-09
9.42679e-09
9.42717e-09
9.42976e-09
9.42636e-09
9.41903e-09
9.39803e-09
9.35827e-09
9.31156e-09
9.09015e-09
9.13619e-09
9.17466e-09
9.19486e-09
9.20181e-09
9.20501e-09
9.20238e-09
9.20191e-09
9.19927e-09
9.19866e-09
9.19694e-09
9.1966e-09
9.19547e-09
9.1953e-09
9.19454e-09
9.19447e-09
9.19396e-09
9.19396e-09
9.19361e-09
9.19361e-09
9.19338e-09
9.19338e-09
9.19325e-09
9.19325e-09
9.19321e-09
9.19321e-09
9.19325e-09
9.19325e-09
9.19338e-09
9.19338e-09
9.1936e-09
9.1936e-09
9.19394e-09
9.19395e-09
9.19446e-09
9.19453e-09
9.19528e-09
9.19545e-09
9.19657e-09
9.19691e-09
9.19863e-09
9.19924e-09
9.20187e-09
9.20234e-09
9.20497e-09
9.20176e-09
9.19482e-09
9.17464e-09
9.13614e-09
9.0901e-09
8.87349e-09
8.91883e-09
8.956e-09
8.97538e-09
8.98191e-09
8.98492e-09
8.98224e-09
8.98169e-09
8.97905e-09
8.97838e-09
8.97666e-09
8.97629e-09
8.97516e-09
8.97497e-09
8.97422e-09
8.97414e-09
8.97362e-09
8.97361e-09
8.97326e-09
8.97326e-09
8.97303e-09
8.97302e-09
8.97289e-09
8.97289e-09
8.97285e-09
8.97285e-09
8.97289e-09
8.97289e-09
8.97302e-09
8.97303e-09
8.97325e-09
8.97325e-09
8.9736e-09
8.97361e-09
8.97412e-09
8.9742e-09
8.97495e-09
8.97514e-09
8.97627e-09
8.97664e-09
8.97835e-09
8.97901e-09
8.98165e-09
8.9822e-09
8.98487e-09
8.98186e-09
8.97533e-09
8.95598e-09
8.91879e-09
8.87344e-09
8.66152e-09
8.70614e-09
8.74196e-09
8.76051e-09
8.76661e-09
8.76942e-09
8.7667e-09
8.76606e-09
8.76342e-09
8.7627e-09
8.76098e-09
8.76058e-09
8.75945e-09
8.75924e-09
8.75849e-09
8.75839e-09
8.75788e-09
8.75786e-09
8.75751e-09
8.7575e-09
8.75727e-09
8.75726e-09
8.75713e-09
8.75713e-09
8.75709e-09
8.75709e-09
8.75713e-09
8.75713e-09
8.75726e-09
8.75726e-09
8.75749e-09
8.7575e-09
8.75784e-09
8.75786e-09
8.75838e-09
8.75847e-09
8.75922e-09
8.75943e-09
8.76055e-09
8.76095e-09
8.76267e-09
8.76338e-09
8.76602e-09
8.76665e-09
8.76937e-09
8.76656e-09
8.76046e-09
8.74193e-09
8.70609e-09
8.66147e-09
8.45414e-09
8.49799e-09
8.53242e-09
8.55015e-09
8.5558e-09
8.55841e-09
8.55564e-09
8.55492e-09
8.55228e-09
8.55151e-09
8.54979e-09
8.54936e-09
8.54824e-09
8.54801e-09
8.54725e-09
8.54715e-09
8.54663e-09
8.5466e-09
8.54625e-09
8.54623e-09
8.54601e-09
8.54599e-09
8.54586e-09
8.54586e-09
8.54582e-09
8.54582e-09
8.54586e-09
8.54586e-09
8.54599e-09
8.546e-09
8.54622e-09
8.54624e-09
8.54658e-09
8.54661e-09
8.54713e-09
8.54723e-09
8.54798e-09
8.54821e-09
8.54933e-09
8.54976e-09
8.55147e-09
8.55224e-09
8.55488e-09
8.5556e-09
8.55836e-09
8.55575e-09
8.5501e-09
8.53239e-09
8.49794e-09
8.45408e-09
8.25123e-09
8.29429e-09
8.32729e-09
8.34421e-09
8.3494e-09
8.3518e-09
8.34898e-09
8.34818e-09
8.34554e-09
8.34472e-09
8.34301e-09
8.34254e-09
8.34142e-09
8.34117e-09
8.34042e-09
8.3403e-09
8.33978e-09
8.33974e-09
8.33939e-09
8.33937e-09
8.33914e-09
8.33912e-09
8.33899e-09
8.33899e-09
8.33894e-09
8.33894e-09
8.33899e-09
8.33899e-09
8.33912e-09
8.33913e-09
8.33936e-09
8.33938e-09
8.33972e-09
8.33976e-09
8.34027e-09
8.34039e-09
8.34114e-09
8.34139e-09
8.34251e-09
8.34297e-09
8.34468e-09
8.3455e-09
8.34814e-09
8.34893e-09
8.35174e-09
8.34934e-09
8.34415e-09
8.32726e-09
8.29424e-09
8.25117e-09
8.0527e-09
8.09491e-09
8.12647e-09
8.14257e-09
8.1473e-09
8.14948e-09
8.14662e-09
8.14574e-09
8.1431e-09
8.14223e-09
8.14052e-09
8.14003e-09
8.1389e-09
8.13864e-09
8.13788e-09
8.13775e-09
8.13724e-09
8.13719e-09
8.13684e-09
8.13681e-09
8.13658e-09
8.13656e-09
8.13643e-09
8.13642e-09
8.13638e-09
8.13638e-09
8.13642e-09
8.13642e-09
8.13655e-09
8.13657e-09
8.1368e-09
8.13682e-09
8.13717e-09
8.13721e-09
8.13773e-09
8.13786e-09
8.13861e-09
8.13887e-09
8.13999e-09
8.14048e-09
8.14218e-09
8.14305e-09
8.1457e-09
8.14657e-09
8.14942e-09
8.14724e-09
8.14251e-09
8.12643e-09
8.09486e-09
8.05263e-09
7.85845e-09
7.89976e-09
7.92986e-09
7.94515e-09
7.9494e-09
7.95138e-09
7.94847e-09
7.94751e-09
7.94487e-09
7.94395e-09
7.94224e-09
7.94172e-09
7.9406e-09
7.94032e-09
7.93957e-09
7.93942e-09
7.93891e-09
7.93885e-09
7.9385e-09
7.93846e-09
7.93823e-09
7.93821e-09
7.93808e-09
7.93807e-09
7.93803e-09
7.93803e-09
7.93807e-09
7.93807e-09
7.9382e-09
7.93822e-09
7.93845e-09
7.93848e-09
7.93883e-09
7.93888e-09
7.9394e-09
7.93954e-09
7.94029e-09
7.94057e-09
7.94169e-09
7.94221e-09
7.9439e-09
7.94482e-09
7.94747e-09
7.94842e-09
7.95132e-09
7.94934e-09
7.9451e-09
7.92981e-09
7.8997e-09
7.85838e-09
7.66838e-09
7.70873e-09
7.73735e-09
7.75186e-09
7.75563e-09
7.75739e-09
7.75444e-09
7.7534e-09
7.75076e-09
7.74978e-09
7.74809e-09
7.74754e-09
7.74642e-09
7.74612e-09
7.74537e-09
7.74521e-09
7.7447e-09
7.74463e-09
7.74428e-09
7.74424e-09
7.74401e-09
7.74398e-09
7.74385e-09
7.74384e-09
7.7438e-09
7.7438e-09
7.74384e-09
7.74384e-09
7.74397e-09
7.744e-09
7.74422e-09
7.74426e-09
7.74461e-09
7.74467e-09
7.74519e-09
7.74534e-09
7.74609e-09
7.74639e-09
7.7475e-09
7.74805e-09
7.74973e-09
7.75071e-09
7.75335e-09
7.75438e-09
7.75732e-09
7.75556e-09
7.7518e-09
7.7373e-09
7.70867e-09
7.66831e-09
7.4824e-09
7.52171e-09
7.54887e-09
7.56259e-09
7.56588e-09
7.56742e-09
7.56443e-09
7.56332e-09
7.56068e-09
7.55965e-09
7.55796e-09
7.55739e-09
7.55627e-09
7.55596e-09
7.5552e-09
7.55504e-09
7.55452e-09
7.55444e-09
7.55409e-09
7.55404e-09
7.55382e-09
7.55379e-09
7.55365e-09
7.55364e-09
7.5536e-09
7.5536e-09
7.55364e-09
7.55365e-09
7.55378e-09
7.5538e-09
7.55403e-09
7.55407e-09
7.55442e-09
7.55449e-09
7.55501e-09
7.55517e-09
7.55592e-09
7.55623e-09
7.55735e-09
7.55792e-09
7.5596e-09
7.56062e-09
7.56327e-09
7.56437e-09
7.56736e-09
7.56581e-09
7.56252e-09
7.54882e-09
7.52164e-09
7.48233e-09
7.30041e-09
7.3386e-09
7.36432e-09
7.37724e-09
7.38007e-09
7.3814e-09
7.37836e-09
7.37718e-09
7.37454e-09
7.37345e-09
7.37178e-09
7.37118e-09
7.37007e-09
7.36973e-09
7.36898e-09
7.3688e-09
7.36829e-09
7.3682e-09
7.36785e-09
7.3678e-09
7.36757e-09
7.36753e-09
7.3674e-09
7.36739e-09
7.36734e-09
7.36734e-09
7.36738e-09
7.36739e-09
7.36752e-09
7.36755e-09
7.36778e-09
7.36783e-09
7.36817e-09
7.36826e-09
7.36877e-09
7.36895e-09
7.36969e-09
7.37002e-09
7.37113e-09
7.37173e-09
7.3734e-09
7.37448e-09
7.37712e-09
7.3783e-09
7.38132e-09
7.37999e-09
7.37718e-09
7.36426e-09
7.33852e-09
7.30034e-09
7.12234e-09
7.15929e-09
7.1836e-09
7.19573e-09
7.1981e-09
7.19922e-09
7.19614e-09
7.19488e-09
7.19225e-09
7.19111e-09
7.18945e-09
7.18882e-09
7.18771e-09
7.18736e-09
7.18662e-09
7.18643e-09
7.18591e-09
7.18581e-09
7.18546e-09
7.1854e-09
7.18517e-09
7.18514e-09
7.185e-09
7.18499e-09
7.18494e-09
7.18494e-09
7.18498e-09
7.185e-09
7.18512e-09
7.18516e-09
7.18538e-09
7.18544e-09
7.18578e-09
7.18588e-09
7.18639e-09
7.18658e-09
7.18732e-09
7.18767e-09
7.18877e-09
7.1894e-09
7.19105e-09
7.19218e-09
7.19482e-09
7.19607e-09
7.19914e-09
7.19802e-09
7.19566e-09
7.18354e-09
7.15921e-09
7.12226e-09
6.94806e-09
6.98372e-09
7.00662e-09
7.01796e-09
7.0199e-09
7.02079e-09
7.01768e-09
7.01635e-09
7.01372e-09
7.01253e-09
7.01089e-09
7.01023e-09
7.00913e-09
7.00876e-09
7.00802e-09
7.00782e-09
7.0073e-09
7.00719e-09
7.00684e-09
7.00677e-09
7.00654e-09
7.0065e-09
7.00637e-09
7.00635e-09
7.00631e-09
7.00631e-09
7.00635e-09
7.00637e-09
7.00649e-09
7.00653e-09
7.00676e-09
7.00682e-09
7.00716e-09
7.00726e-09
7.00778e-09
7.00797e-09
7.00871e-09
7.00908e-09
7.01018e-09
7.01083e-09
7.01247e-09
7.01365e-09
7.01629e-09
7.01761e-09
7.02071e-09
7.01981e-09
7.01789e-09
7.00655e-09
6.98362e-09
6.94798e-09
6.77748e-09
6.81178e-09
6.83329e-09
6.84384e-09
6.84536e-09
6.84604e-09
6.84289e-09
6.84149e-09
6.83887e-09
6.83763e-09
6.836e-09
6.83532e-09
6.83422e-09
6.83384e-09
6.83309e-09
6.83288e-09
6.83237e-09
6.83225e-09
6.8319e-09
6.83183e-09
6.8316e-09
6.83155e-09
6.83142e-09
6.8314e-09
6.83136e-09
6.83136e-09
6.8314e-09
6.83141e-09
6.83154e-09
6.83158e-09
6.83181e-09
6.83187e-09
6.83222e-09
6.83233e-09
6.83284e-09
6.83305e-09
6.83379e-09
6.83417e-09
6.83526e-09
6.83594e-09
6.83756e-09
6.83879e-09
6.84143e-09
6.84281e-09
6.84596e-09
6.84527e-09
6.84376e-09
6.83322e-09
6.81168e-09
6.7774e-09
6.61049e-09
6.6434e-09
6.66351e-09
6.67327e-09
6.67439e-09
6.67487e-09
6.67169e-09
6.67022e-09
6.6676e-09
6.66631e-09
6.6647e-09
6.66399e-09
6.6629e-09
6.6625e-09
6.66176e-09
6.66154e-09
6.66103e-09
6.6609e-09
6.66055e-09
6.66047e-09
6.66024e-09
6.66019e-09
6.66006e-09
6.66004e-09
6.65999e-09
6.65999e-09
6.66003e-09
6.66005e-09
6.66018e-09
6.66022e-09
6.66045e-09
6.66052e-09
6.66087e-09
6.66098e-09
6.66149e-09
6.66171e-09
6.66245e-09
6.66285e-09
6.66393e-09
6.66463e-09
6.66624e-09
6.66752e-09
6.67015e-09
6.6716e-09
6.67478e-09
6.6743e-09
6.67318e-09
6.66344e-09
6.64329e-09
6.61041e-09
6.447e-09
6.4785e-09
6.4972e-09
6.50615e-09
6.50692e-09
6.50719e-09
6.50397e-09
6.50244e-09
6.49983e-09
6.4985e-09
6.4969e-09
6.49617e-09
6.49509e-09
6.49467e-09
6.49393e-09
6.4937e-09
6.49319e-09
6.49305e-09
6.4927e-09
6.49261e-09
6.49238e-09
6.49233e-09
6.4922e-09
6.49218e-09
6.49213e-09
6.49213e-09
6.49217e-09
6.49219e-09
6.49232e-09
6.49236e-09
6.49259e-09
6.49267e-09
6.49302e-09
6.49314e-09
6.49365e-09
6.49388e-09
6.49461e-09
6.49503e-09
6.49611e-09
6.49683e-09
6.49843e-09
6.49974e-09
6.50237e-09
6.50389e-09
6.50709e-09
6.50682e-09
6.50606e-09
6.49712e-09
6.47838e-09
6.44691e-09
6.2869e-09
6.31697e-09
6.33428e-09
6.34239e-09
6.34284e-09
6.34291e-09
6.33966e-09
6.33807e-09
6.33546e-09
6.3341e-09
6.33251e-09
6.33176e-09
6.33068e-09
6.33025e-09
6.32952e-09
6.32928e-09
6.32876e-09
6.32862e-09
6.32826e-09
6.32817e-09
6.32794e-09
6.32789e-09
6.32775e-09
6.32773e-09
6.32768e-09
6.32768e-09
6.32773e-09
6.32775e-09
6.32787e-09
6.32792e-09
6.32815e-09
6.32823e-09
6.32858e-09
6.32871e-09
6.32922e-09
6.32946e-09
6.33019e-09
6.33062e-09
6.3317e-09
6.33243e-09
6.33402e-09
6.33537e-09
6.33799e-09
6.33957e-09
6.34281e-09
6.34274e-09
6.3423e-09
6.3342e-09
6.31685e-09
6.2868e-09
6.13008e-09
6.15872e-09
6.1747e-09
6.18189e-09
6.18206e-09
6.18193e-09
6.17866e-09
6.17701e-09
6.17441e-09
6.17301e-09
6.17144e-09
6.17067e-09
6.16959e-09
6.16914e-09
6.16842e-09
6.16817e-09
6.16765e-09
6.1675e-09
6.16714e-09
6.16705e-09
6.16682e-09
6.16676e-09
6.16662e-09
6.1666e-09
6.16655e-09
6.16655e-09
6.16659e-09
6.16662e-09
6.16674e-09
6.16679e-09
6.16702e-09
6.16711e-09
6.16746e-09
6.1676e-09
6.16811e-09
6.16836e-09
6.16908e-09
6.16953e-09
6.1706e-09
6.17136e-09
6.17293e-09
6.17432e-09
6.17692e-09
6.17857e-09
6.18183e-09
6.18195e-09
6.18179e-09
6.17461e-09
6.15859e-09
6.12998e-09
5.97643e-09
6.00362e-09
6.01837e-09
6.02455e-09
6.02447e-09
6.02415e-09
6.02087e-09
6.01914e-09
6.01657e-09
6.01514e-09
6.01357e-09
6.01278e-09
6.01172e-09
6.01125e-09
6.01053e-09
6.01027e-09
6.00975e-09
6.00959e-09
6.00923e-09
6.00913e-09
6.0089e-09
6.00884e-09
6.0087e-09
6.00868e-09
6.00863e-09
6.00863e-09
6.00867e-09
6.0087e-09
6.00882e-09
6.00888e-09
6.0091e-09
6.0092e-09
6.00955e-09
6.0097e-09
6.01021e-09
6.01047e-09
6.01118e-09
6.01165e-09
6.01271e-09
6.01348e-09
6.01505e-09
6.01647e-09
6.01905e-09
6.02076e-09
6.02404e-09
6.02435e-09
6.02444e-09
6.01828e-09
6.00348e-09
5.97633e-09
5.82585e-09
5.85164e-09
5.86516e-09
5.87021e-09
5.86993e-09
5.86943e-09
5.86613e-09
5.86435e-09
5.8618e-09
5.86034e-09
5.85878e-09
5.85798e-09
5.85692e-09
5.85643e-09
5.85572e-09
5.85545e-09
5.85493e-09
5.85477e-09
5.85441e-09
5.8543e-09
5.85407e-09
5.854e-09
5.85387e-09
5.85384e-09
5.85379e-09
5.85379e-09
5.85383e-09
5.85386e-09
5.85398e-09
5.85404e-09
5.85427e-09
5.85437e-09
5.85471e-09
5.85487e-09
5.85538e-09
5.85565e-09
5.85636e-09
5.85684e-09
5.8579e-09
5.85869e-09
5.86024e-09
5.86169e-09
5.86425e-09
5.86602e-09
5.86932e-09
5.86981e-09
5.8701e-09
5.86506e-09
5.8515e-09
5.82573e-09
5.6782e-09
5.70263e-09
5.71496e-09
5.72402e-09
5.72356e-09
5.72291e-09
5.71958e-09
5.71774e-09
5.7152e-09
5.71372e-09
5.71217e-09
5.71135e-09
5.7103e-09
5.7098e-09
5.70908e-09
5.7088e-09
5.70829e-09
5.70811e-09
5.70775e-09
5.70764e-09
5.7074e-09
5.70734e-09
5.7072e-09
5.70717e-09
5.70712e-09
5.70712e-09
5.70717e-09
5.70719e-09
5.70732e-09
5.70738e-09
5.7076e-09
5.70771e-09
5.70806e-09
5.70823e-09
5.70873e-09
5.70901e-09
5.70972e-09
5.71022e-09
5.71127e-09
5.71207e-09
5.71362e-09
5.71508e-09
5.71764e-09
5.71947e-09
5.72278e-09
5.72344e-09
5.7239e-09
5.71486e-09
5.70248e-09
5.67808e-09
5.53823e-09
5.5615e-09
5.57268e-09
5.58086e-09
5.57976e-09
5.5787e-09
5.57509e-09
5.57309e-09
5.57045e-09
5.56892e-09
5.56733e-09
5.5665e-09
5.56544e-09
5.56494e-09
5.56423e-09
5.56396e-09
5.56345e-09
5.56328e-09
5.56292e-09
5.56281e-09
5.56258e-09
5.56251e-09
5.56238e-09
5.56235e-09
5.5623e-09
5.5623e-09
5.56234e-09
5.56237e-09
5.56249e-09
5.56254e-09
5.56277e-09
5.56287e-09
5.56321e-09
5.56337e-09
5.56388e-09
5.56415e-09
5.56486e-09
5.56535e-09
5.56641e-09
5.56723e-09
5.56882e-09
5.57032e-09
5.57298e-09
5.57497e-09
5.57857e-09
5.57963e-09
5.58074e-09
5.57257e-09
5.56135e-09
5.53811e-09
5.39679e-09
5.41886e-09
5.42881e-09
5.43609e-09
5.43468e-09
5.4334e-09
5.42978e-09
5.42772e-09
5.42509e-09
5.42356e-09
5.42197e-09
5.42112e-09
5.42007e-09
5.41956e-09
5.41885e-09
5.41857e-09
5.41806e-09
5.41788e-09
5.41752e-09
5.41741e-09
5.41717e-09
5.41711e-09
5.41697e-09
5.41694e-09
5.41689e-09
5.41689e-09
5.41693e-09
5.41696e-09
5.41708e-09
5.41714e-09
5.41736e-09
5.41747e-09
5.41781e-09
5.41798e-09
5.41848e-09
5.41876e-09
5.41947e-09
5.41997e-09
5.42102e-09
5.42186e-09
5.42344e-09
5.42496e-09
5.4276e-09
5.42965e-09
5.43326e-09
5.43454e-09
5.43596e-09
5.4287e-09
5.4187e-09
5.39665e-09
5.25785e-09
5.27861e-09
5.28749e-09
5.29396e-09
5.29238e-09
5.29093e-09
5.28729e-09
5.28518e-09
5.28256e-09
5.28101e-09
5.27943e-09
5.27857e-09
5.27753e-09
5.277e-09
5.2763e-09
5.27601e-09
5.2755e-09
5.27532e-09
5.27495e-09
5.27483e-09
5.2746e-09
5.27453e-09
5.27439e-09
5.27436e-09
5.27431e-09
5.27431e-09
5.27436e-09
5.27438e-09
5.2745e-09
5.27456e-09
5.27479e-09
5.2749e-09
5.27524e-09
5.27542e-09
5.27592e-09
5.27621e-09
5.2769e-09
5.27743e-09
5.27847e-09
5.27932e-09
5.28089e-09
5.28242e-09
5.28504e-09
5.28715e-09
5.29078e-09
5.29224e-09
5.29382e-09
5.28737e-09
5.27845e-09
5.25771e-09
5.1215e-09
5.14096e-09
5.14879e-09
5.15449e-09
5.15273e-09
5.15111e-09
5.14746e-09
5.14529e-09
5.14269e-09
5.14113e-09
5.13956e-09
5.13869e-09
5.13765e-09
5.13711e-09
5.13642e-09
5.13612e-09
5.13561e-09
5.13542e-09
5.13506e-09
5.13493e-09
5.1347e-09
5.13462e-09
5.13449e-09
5.13445e-09
5.13441e-09
5.1344e-09
5.13445e-09
5.13448e-09
5.13459e-09
5.13466e-09
5.13488e-09
5.135e-09
5.13534e-09
5.13553e-09
5.13602e-09
5.13632e-09
5.13701e-09
5.13755e-09
5.13858e-09
5.13944e-09
5.141e-09
5.14254e-09
5.14516e-09
5.14731e-09
5.15096e-09
5.15258e-09
5.15434e-09
5.14865e-09
5.1408e-09
5.12134e-09
4.99198e-09
5.01036e-09
5.01711e-09
5.02216e-09
5.0202e-09
5.01842e-09
5.01474e-09
5.01253e-09
5.00993e-09
5.00837e-09
5.0068e-09
5.00591e-09
5.00488e-09
5.00433e-09
5.00364e-09
5.00333e-09
5.00283e-09
5.00263e-09
5.00226e-09
5.00213e-09
5.0019e-09
5.00182e-09
5.00168e-09
5.00165e-09
5.0016e-09
5.0016e-09
5.00164e-09
5.00167e-09
5.00179e-09
5.00186e-09
5.00208e-09
5.0022e-09
5.00254e-09
5.00274e-09
5.00323e-09
5.00354e-09
5.00422e-09
5.00477e-09
5.00579e-09
5.00667e-09
5.00823e-09
5.00978e-09
5.01238e-09
5.01459e-09
5.01826e-09
5.02004e-09
5.02201e-09
5.01697e-09
5.01019e-09
4.99182e-09
4.86503e-09
4.88234e-09
4.88807e-09
4.89249e-09
4.89032e-09
4.88839e-09
4.88469e-09
4.88243e-09
4.87984e-09
4.87825e-09
4.87664e-09
4.87574e-09
4.8747e-09
4.87415e-09
4.87346e-09
4.87316e-09
4.87265e-09
4.87246e-09
4.8721e-09
4.87197e-09
4.87174e-09
4.87167e-09
4.87153e-09
4.87149e-09
4.87145e-09
4.87145e-09
4.87149e-09
4.87152e-09
4.87163e-09
4.87169e-09
4.87192e-09
4.87203e-09
4.87237e-09
4.87255e-09
4.87305e-09
4.87335e-09
4.87404e-09
4.87458e-09
4.87562e-09
4.87651e-09
4.87811e-09
4.87967e-09
4.88228e-09
4.88453e-09
4.88822e-09
4.89015e-09
4.89233e-09
4.88792e-09
4.88217e-09
4.86487e-09
4.73682e-09
4.7531e-09
4.75784e-09
4.76157e-09
4.75909e-09
4.75694e-09
4.75317e-09
4.75084e-09
4.74823e-09
4.74662e-09
4.74501e-09
4.7441e-09
4.74306e-09
4.74251e-09
4.74182e-09
4.74151e-09
4.74101e-09
4.74082e-09
4.74045e-09
4.74032e-09
4.7401e-09
4.74002e-09
4.73988e-09
4.73985e-09
4.7398e-09
4.7398e-09
4.73984e-09
4.73987e-09
4.73998e-09
4.74004e-09
4.74027e-09
4.74038e-09
4.74072e-09
4.74091e-09
4.7414e-09
4.7417e-09
4.74239e-09
4.74294e-09
4.74397e-09
4.74487e-09
4.74647e-09
4.74806e-09
4.75068e-09
4.75301e-09
4.75677e-09
4.75892e-09
4.7614e-09
4.75768e-09
4.75292e-09
4.73666e-09
4.61053e-09
4.6256e-09
4.62942e-09
4.63252e-09
4.62985e-09
4.62754e-09
4.62377e-09
4.6214e-09
4.61881e-09
4.61719e-09
4.61559e-09
4.61466e-09
4.61364e-09
4.61307e-09
4.61239e-09
4.61208e-09
4.61158e-09
4.61138e-09
4.61101e-09
4.61088e-09
4.61065e-09
4.61057e-09
4.61044e-09
4.6104e-09
4.61035e-09
4.61035e-09
4.61039e-09
4.61042e-09
4.61053e-09
4.6106e-09
4.61082e-09
4.61094e-09
4.61128e-09
4.61147e-09
4.61196e-09
4.61227e-09
4.61295e-09
4.61351e-09
4.61453e-09
4.61544e-09
4.61703e-09
4.61863e-09
4.62123e-09
4.6236e-09
4.62736e-09
4.62968e-09
4.63235e-09
4.62926e-09
4.62542e-09
4.61035e-09
4.49032e-09
4.50435e-09
4.50727e-09
4.5098e-09
4.50693e-09
4.50447e-09
4.50069e-09
4.49828e-09
4.4957e-09
4.49408e-09
4.49248e-09
4.49155e-09
4.49053e-09
4.48995e-09
4.48928e-09
4.48896e-09
4.48846e-09
4.48825e-09
4.48788e-09
4.48775e-09
4.48752e-09
4.48743e-09
4.4873e-09
4.48726e-09
4.48721e-09
4.48721e-09
4.48725e-09
4.48728e-09
4.48739e-09
4.48746e-09
4.48768e-09
4.48781e-09
4.48815e-09
4.48835e-09
4.48884e-09
4.48915e-09
4.48983e-09
4.4904e-09
4.49141e-09
4.49233e-09
4.49391e-09
4.49552e-09
4.4981e-09
4.50052e-09
4.50428e-09
4.50675e-09
4.50963e-09
4.5071e-09
4.50416e-09
4.49014e-09
4.37154e-09
4.38501e-09
4.38701e-09
4.3889e-09
4.38552e-09
4.38276e-09
4.37881e-09
4.37627e-09
4.37364e-09
4.37198e-09
4.37037e-09
4.36943e-09
4.36841e-09
4.36784e-09
4.36716e-09
4.36685e-09
4.36636e-09
4.36615e-09
4.36579e-09
4.36566e-09
4.36543e-09
4.36535e-09
4.36521e-09
4.36517e-09
4.36513e-09
4.36512e-09
4.36517e-09
4.3652e-09
4.3653e-09
4.36537e-09
4.36559e-09
4.36571e-09
4.36605e-09
4.36624e-09
4.36673e-09
4.36704e-09
4.36771e-09
4.36827e-09
4.36929e-09
4.37022e-09
4.37182e-09
4.37347e-09
4.3761e-09
4.37863e-09
4.38258e-09
4.38536e-09
4.38874e-09
4.38686e-09
4.38485e-09
4.37138e-09
4.25551e-09
4.268e-09
4.26917e-09
4.27053e-09
4.26694e-09
4.26402e-09
4.26006e-09
4.25748e-09
4.25487e-09
4.2532e-09
4.25159e-09
4.25064e-09
4.24963e-09
4.24905e-09
4.24838e-09
4.24806e-09
4.24757e-09
4.24736e-09
4.247e-09
4.24686e-09
4.24663e-09
4.24655e-09
4.24642e-09
4.24637e-09
4.24633e-09
4.24632e-09
4.24637e-09
4.2464e-09
4.2465e-09
4.24658e-09
4.24679e-09
4.24692e-09
4.24726e-09
4.24745e-09
4.24794e-09
4.24825e-09
4.24892e-09
4.24949e-09
4.2505e-09
4.25144e-09
4.25303e-09
4.25469e-09
4.25731e-09
4.25988e-09
4.26384e-09
4.26677e-09
4.27038e-09
4.26901e-09
4.26783e-09
4.25535e-09
4.14147e-09
4.15301e-09
4.15338e-09
4.15424e-09
4.15042e-09
4.14736e-09
4.14338e-09
4.14077e-09
4.13816e-09
4.13649e-09
4.13489e-09
4.13393e-09
4.13292e-09
4.13234e-09
4.13167e-09
4.13135e-09
4.13086e-09
4.13064e-09
4.13028e-09
4.13014e-09
4.12992e-09
4.12983e-09
4.1297e-09
4.12965e-09
4.1296e-09
4.1296e-09
4.12965e-09
4.12968e-09
4.12978e-09
4.12986e-09
4.13008e-09
4.13021e-09
4.13054e-09
4.13074e-09
4.13123e-09
4.13155e-09
4.13221e-09
4.13279e-09
4.13379e-09
4.13474e-09
4.13632e-09
4.13799e-09
4.14059e-09
4.14321e-09
4.14718e-09
4.15025e-09
4.15409e-09
4.15323e-09
4.15284e-09
4.14131e-09
4.01557e-09
4.01543e-09
4.0152e-09
4.01511e-09
4.01498e-09
4.01493e-09
4.01488e-09
4.01488e-09
4.01492e-09
4.01496e-09
4.01507e-09
4.01514e-09
4.01536e-09
4.0155e-09
4.01583e-09
4.01604e-09
4.01652e-09
4.01684e-09
4.0175e-09
4.01809e-09
4.01909e-09
4.02004e-09
4.02162e-09
4.02329e-09
4.02588e-09
4.02853e-09
4.03251e-09
4.03573e-09
4.03979e-09
4.03942e-09
4.03979e-09
4.02918e-09
3.90226e-09
3.90234e-09
3.90256e-09
3.9027e-09
3.90304e-09
3.90325e-09
3.90373e-09
3.90406e-09
3.90471e-09
3.9053e-09
3.90629e-09
3.90726e-09
3.90882e-09
3.9105e-09
3.91308e-09
3.91576e-09
3.91976e-09
3.92312e-09
3.92739e-09
3.92749e-09
3.9286e-09
3.91888e-09
3.79786e-09
3.79955e-09
3.80211e-09
3.80483e-09
3.80883e-09
3.81233e-09
3.81681e-09
3.81736e-09
3.81917e-09
3.81032e-09
)
;

boundaryField
{
    fuel
    {
        type            fixedValue;
        value           nonuniform 0();
    }
    wall
    {
        type            zeroGradient;
    }
    outlet
    {
        type            zeroGradient;
    }
    frontAndBack
    {
        type            empty;
    }
    procBoundary0to1
    {
        type            processor;
        value           nonuniform List<scalar> 
50
(
1.10063e-08
1.10573e-08
1.11055e-08
1.11307e-08
1.11399e-08
1.11445e-08
1.11422e-08
1.11423e-08
1.11397e-08
1.11395e-08
1.11378e-08
1.11378e-08
1.11366e-08
1.11366e-08
1.11359e-08
1.11359e-08
1.11354e-08
1.11355e-08
1.11351e-08
1.11352e-08
1.1135e-08
1.1135e-08
1.11349e-08
1.11349e-08
1.11348e-08
1.11348e-08
1.11349e-08
1.11349e-08
1.1135e-08
1.1135e-08
1.11352e-08
1.11351e-08
1.11355e-08
1.11354e-08
1.11359e-08
1.11359e-08
1.11366e-08
1.11366e-08
1.11377e-08
1.11378e-08
1.11395e-08
1.11397e-08
1.11423e-08
1.11421e-08
1.11445e-08
1.11399e-08
1.11306e-08
1.11055e-08
1.10572e-08
1.10063e-08
)
;
    }
    procBoundary0to2
    {
        type            processor;
        value           nonuniform List<scalar> 
53
(
4.02933e-09
4.03995e-09
4.03956e-09
4.03993e-09
4.03589e-09
4.03268e-09
4.02869e-09
4.02604e-09
4.02345e-09
4.02177e-09
4.02018e-09
4.01921e-09
4.01821e-09
4.01762e-09
4.01696e-09
4.01663e-09
4.01614e-09
4.01592e-09
4.01592e-09
3.90277e-09
3.90262e-09
3.90239e-09
3.9023e-09
3.90217e-09
3.90212e-09
3.90207e-09
3.90207e-09
3.90211e-09
3.90215e-09
3.90215e-09
3.79129e-09
3.79137e-09
3.79159e-09
3.79173e-09
3.79207e-09
3.79228e-09
3.79276e-09
3.79309e-09
3.79375e-09
3.79434e-09
3.79533e-09
3.79629e-09
3.79629e-09
3.68864e-09
3.69033e-09
3.69288e-09
3.69563e-09
3.69964e-09
3.70327e-09
3.70795e-09
3.70894e-09
3.71142e-09
3.70341e-09
)
;
    }
}


// ************************************************************************* //
