/*--------------------------------*- C++ -*----------------------------------*\
| =========                 |                                                 |
| \\      /  F ield         | OpenFOAM: The Open Source CFD Toolbox           |
|  \\    /   O peration     | Version:  dev                                   |
|   \\  /    A nd           | Web:      www.OpenFOAM.org                      |
|    \\/     M anipulation  |                                                 |
\*---------------------------------------------------------------------------*/
FoamFile
{
    version     2.0;
    format      ascii;
    class       volScalarField;
    location    "0.035";
    object      A4-;
}
// * * * * * * * * * * * * * * * * * * * * * * * * * * * * * * * * * * * * * //

dimensions      [0 0 0 0 0 0 0];

internalField   nonuniform List<scalar> 
250
(
6.6893e-10
6.70615e-10
6.68664e-10
6.7297e-10
6.72079e-10
6.96946e-10
7.39106e-10
1.02637e-09
1.26556e-09
8.40703e-10
6.1663e-10
6.18393e-10
6.16389e-10
6.20714e-10
6.19774e-10
6.43419e-10
6.80474e-10
9.45073e-10
1.15736e-09
8.25125e-10
7.82889e-10
1.0693e-09
8.52163e-10
6.25883e-10
5.87787e-10
5.6908e-10
5.68909e-10
5.65318e-10
5.6719e-10
5.65479e-10
5.6531e-10
5.67146e-10
5.65103e-10
5.69424e-10
5.6844e-10
5.90767e-10
6.23077e-10
8.63652e-10
1.04889e-09
8.05271e-10
7.57501e-10
9.58227e-10
7.71127e-10
5.69353e-10
5.36006e-10
5.18518e-10
5.18446e-10
5.14842e-10
5.16743e-10
5.14958e-10
5.14804e-10
5.16704e-10
5.14639e-10
5.18932e-10
5.17905e-10
5.38838e-10
5.66632e-10
7.82598e-10
9.40633e-10
7.78846e-10
7.27329e-10
8.48051e-10
6.91152e-10
5.13591e-10
4.84871e-10
4.68673e-10
4.68698e-10
4.65108e-10
4.67017e-10
4.65173e-10
4.65025e-10
4.66976e-10
4.64911e-10
4.69147e-10
4.68083e-10
4.8755e-10
5.10946e-10
7.02395e-10
8.33571e-10
7.4893e-10
6.86983e-10
7.46009e-10
6.12803e-10
4.58596e-10
4.34393e-10
4.19566e-10
4.19676e-10
4.16136e-10
4.18016e-10
4.16136e-10
4.15995e-10
4.17972e-10
4.15945e-10
4.20084e-10
4.18998e-10
4.36916e-10
4.55975e-10
6.23593e-10
7.32969e-10
7.08742e-10
6.43697e-10
6.43494e-10
5.3667e-10
4.04002e-10
3.84709e-10
3.71374e-10
3.71541e-10
3.68099e-10
3.69893e-10
3.68011e-10
3.67881e-10
3.69847e-10
3.67914e-10
3.71901e-10
3.70829e-10
3.87071e-10
4.01868e-10
5.46796e-10
6.32754e-10
6.66353e-10
5.79534e-10
5.49139e-10
4.63495e-10
3.51508e-10
3.36114e-10
3.23477e-10
3.24023e-10
3.20657e-10
3.22741e-10
3.20843e-10
3.20709e-10
3.22698e-10
3.2049e-10
3.24414e-10
3.22974e-10
3.38303e-10
3.49415e-10
4.72745e-10
5.39889e-10
6.05038e-10
5.17297e-10
4.60655e-10
3.94018e-10
3.01086e-10
2.89084e-10
2.77942e-10
2.7852e-10
2.75351e-10
2.77305e-10
2.75488e-10
2.75367e-10
2.77263e-10
2.75197e-10
2.7886e-10
2.77469e-10
2.91084e-10
2.99087e-10
4.0223e-10
4.52775e-10
5.45909e-10
4.49908e-10
3.76552e-10
3.2834e-10
2.53281e-10
2.44222e-10
2.34515e-10
2.3511e-10
2.31868e-10
2.33708e-10
2.31737e-10
2.31623e-10
2.33649e-10
2.31707e-10
2.35403e-10
2.34077e-10
2.46016e-10
2.51444e-10
3.36119e-10
3.70258e-10
4.69346e-10
3.80294e-10
3.03247e-10
2.6868e-10
2.08838e-10
2.02237e-10
1.93928e-10
1.94526e-10
1.9157e-10
1.93255e-10
1.91431e-10
1.91329e-10
1.932e-10
1.91426e-10
1.94775e-10
1.9353e-10
2.03811e-10
2.07193e-10
2.75331e-10
2.98072e-10
4.00212e-10
3.11775e-10
2.388e-10
2.15187e-10
1.68493e-10
1.63857e-10
1.56901e-10
1.57482e-10
1.54863e-10
1.56374e-10
1.54728e-10
1.5464e-10
1.56324e-10
1.54738e-10
1.57691e-10
1.5655e-10
1.65201e-10
1.67056e-10
2.20696e-10
2.34668e-10
3.29375e-10
2.47553e-10
1.8372e-10
1.68414e-10
1.32853e-10
1.29708e-10
1.24039e-10
1.24581e-10
1.22328e-10
1.23646e-10
1.22204e-10
1.22129e-10
1.23602e-10
1.22221e-10
1.24751e-10
1.23739e-10
1.30825e-10
1.3163e-10
1.72842e-10
1.80486e-10
2.62341e-10
9.41588e-11
9.54068e-11
9.42429e-11
9.63435e-11
9.54796e-11
1.01108e-10
1.01269e-10
1.32094e-10
1.35535e-10
2.02008e-10
)
;

boundaryField
{
    fuel
    {
        type            fixedValue;
        value           nonuniform 0();
    }
    wall
    {
        type            zeroGradient;
    }
    outlet
    {
        type            zeroGradient;
    }
    frontAndBack
    {
        type            empty;
    }
    procBoundary0to1
    {
        type            processor;
        value           nonuniform List<scalar> 
21
(
1.90323e-10
1.37964e-10
1.28706e-10
1.02259e-10
1.00228e-10
9.57222e-11
9.62112e-11
9.43288e-11
9.5444e-11
9.4219e-11
9.4219e-11
7.08078e-11
7.18329e-11
7.08817e-11
7.25754e-11
7.18596e-11
7.62095e-11
7.59983e-11
9.8464e-11
9.92987e-11
1.50418e-10
)
;
    }
    procBoundary0to2
    {
        type            processor;
        value           nonuniform List<scalar> 
12
(
6.69047e-10
8.03048e-10
1.18037e-09
9.33946e-10
6.83066e-10
6.40321e-10
6.20408e-10
6.20158e-10
6.1659e-10
6.18418e-10
6.16787e-10
6.16787e-10
)
;
    }
    procBoundary0to3
    {
        type            processor;
        value           nonuniform List<scalar> 10(7.22366e-10 7.23971e-10 7.22081e-10 7.26358e-10 7.255e-10 7.51555e-10 7.98184e-10 1.12245e-09 1.37352e-09 8.54806e-10);
    }
}


// ************************************************************************* //
