/*--------------------------------*- C++ -*----------------------------------*\
| =========                 |                                                 |
| \\      /  F ield         | OpenFOAM: The Open Source CFD Toolbox           |
|  \\    /   O peration     | Version:  dev                                   |
|   \\  /    A nd           | Web:      www.OpenFOAM.org                      |
|    \\/     M anipulation  |                                                 |
\*---------------------------------------------------------------------------*/
FoamFile
{
    version     2.0;
    format      ascii;
    class       volScalarField;
    location    "0.035";
    object      HO2;
}
// * * * * * * * * * * * * * * * * * * * * * * * * * * * * * * * * * * * * * //

dimensions      [0 0 0 0 0 0 0];

internalField   nonuniform List<scalar> 
250
(
3.1121e-11
3.12401e-11
3.10975e-11
3.13338e-11
3.1119e-11
3.17302e-11
3.01056e-11
3.68062e-11
5.9174e-10
3.25811e-08
2.7771e-11
2.78973e-11
2.77471e-11
2.79932e-11
2.77759e-11
2.8426e-11
2.6904e-11
3.27974e-11
4.69866e-10
2.53302e-08
1.86887e-08
3.83531e-10
2.87769e-11
2.38223e-11
2.48782e-11
2.44311e-11
2.45715e-11
2.43671e-11
2.4511e-11
2.43847e-11
2.43756e-11
2.45069e-11
2.43517e-11
2.46025e-11
2.43868e-11
2.50597e-11
2.36762e-11
2.88414e-11
3.63929e-10
1.86713e-08
1.30271e-08
2.86322e-10
2.47706e-11
2.05997e-11
2.15043e-11
2.10447e-11
2.11823e-11
2.09774e-11
2.11232e-11
2.0995e-11
2.09865e-11
2.11197e-11
2.09632e-11
2.12125e-11
2.10029e-11
2.16793e-11
2.04549e-11
2.4997e-11
2.76516e-10
1.32253e-08
9.20148e-09
2.1164e-10
2.09927e-11
1.74289e-11
1.81823e-11
1.77282e-11
1.78594e-11
1.76601e-11
1.78034e-11
1.76769e-11
1.76688e-11
1.78001e-11
1.7647e-11
1.78879e-11
1.76893e-11
1.83472e-11
1.72877e-11
2.13091e-11
2.07963e-10
9.50809e-09
6.31939e-09
1.57284e-10
1.74645e-11
1.4373e-11
1.49858e-11
1.45565e-11
1.46778e-11
1.44902e-11
1.46256e-11
1.4505e-11
1.44976e-11
1.46226e-11
1.44783e-11
1.47035e-11
1.45213e-11
1.51371e-11
1.4236e-11
1.78173e-11
1.56482e-10
6.633e-09
4.4878e-09
1.1475e-10
1.4204e-11
1.14772e-11
1.19942e-11
1.16101e-11
1.17174e-11
1.15476e-11
1.1669e-11
1.15587e-11
1.15523e-11
1.16663e-11
1.15372e-11
1.17393e-11
1.1579e-11
1.21287e-11
1.13721e-11
1.45564e-11
1.16173e-10
4.79571e-09
2.89032e-09
8.33587e-11
1.12541e-11
8.88672e-12
9.28462e-12
8.91265e-12
9.02164e-12
8.87068e-12
8.99684e-12
8.89765e-12
8.89146e-12
8.99474e-12
8.86238e-12
9.04374e-12
8.88697e-12
9.39982e-12
8.79157e-12
1.1578e-11
8.56798e-11
3.2179e-09
1.93055e-09
6.05052e-11
8.65637e-12
6.63242e-12
6.92338e-12
6.61735e-12
6.70728e-12
6.58227e-12
6.68749e-12
6.60516e-12
6.60018e-12
6.68582e-12
6.57566e-12
6.72474e-12
6.59627e-12
7.01787e-12
6.55117e-12
8.93356e-12
6.29204e-11
2.24353e-09
1.27932e-09
4.33941e-11
6.42116e-12
4.75099e-12
4.95403e-12
4.71316e-12
4.78417e-12
4.67281e-12
4.75802e-12
4.68223e-12
4.67817e-12
4.75599e-12
4.66695e-12
4.79737e-12
4.69657e-12
5.02782e-12
4.68645e-12
6.66608e-12
4.53807e-11
1.45022e-09
8.4324e-10
3.13603e-11
4.61466e-12
3.25786e-12
3.39166e-12
3.21206e-12
3.26561e-12
3.18139e-12
3.24655e-12
3.18896e-12
3.18593e-12
3.24502e-12
3.17711e-12
3.27513e-12
3.19968e-12
3.44619e-12
3.20964e-12
4.8047e-12
3.293e-11
9.81561e-10
5.53567e-10
2.26147e-11
3.20898e-12
2.13809e-12
2.21991e-12
2.09406e-12
2.13235e-12
2.07251e-12
2.11969e-12
2.07841e-12
2.07628e-12
2.11861e-12
2.06956e-12
2.13886e-12
2.08537e-12
2.25786e-12
2.10425e-12
3.3489e-12
2.3797e-11
6.52926e-10
3.62176e-10
1.62829e-11
2.17116e-12
1.34916e-12
1.39415e-12
1.31177e-12
1.33748e-12
1.29765e-12
1.32974e-12
1.30198e-12
1.30056e-12
1.32902e-12
1.29573e-12
1.34167e-12
1.30605e-12
1.41893e-12
1.32695e-12
2.26979e-12
1.71506e-11
4.306e-10
7.93386e-13
8.11267e-13
7.90134e-13
8.18644e-13
7.96557e-13
8.6544e-13
8.16062e-13
1.51402e-12
1.23492e-11
2.82275e-10
)
;

boundaryField
{
    fuel
    {
        type            fixedValue;
        value           nonuniform 0();
    }
    wall
    {
        type            zeroGradient;
    }
    outlet
    {
        type            zeroGradient;
    }
    frontAndBack
    {
        type            empty;
    }
    procBoundary0to1
    {
        type            processor;
        value           nonuniform List<scalar> 
21
(
2.3682e-10
1.1739e-11
1.44838e-12
8.29353e-13
8.50572e-13
7.99975e-13
8.16141e-13
7.9125e-13
8.11692e-13
7.94229e-13
7.94229e-13
4.84304e-13
4.94824e-13
4.82255e-13
4.9893e-13
4.86181e-13
5.25792e-13
5.03171e-13
1.01522e-12
8.92424e-12
1.8468e-10
)
;
    }
    procBoundary0to2
    {
        type            processor;
        value           nonuniform List<scalar> 
12
(
3.11297e-11
2.64896e-08
5.07261e-10
3.29983e-11
2.70326e-11
2.8246e-11
2.7821e-11
2.79632e-11
2.77632e-11
2.79018e-11
2.77803e-11
2.77803e-11
)
;
    }
    procBoundary0to3
    {
        type            processor;
        value           nonuniform List<scalar> 10(3.43865e-11 3.4497e-11 3.43637e-11 3.45878e-11 3.43765e-11 3.49442e-11 3.32025e-11 4.15278e-11 7.23127e-10 3.89047e-08);
    }
}


// ************************************************************************* //
