/*--------------------------------*- C++ -*----------------------------------*\
| =========                 |                                                 |
| \\      /  F ield         | OpenFOAM: The Open Source CFD Toolbox           |
|  \\    /   O peration     | Version:  dev                                   |
|   \\  /    A nd           | Web:      www.OpenFOAM.org                      |
|    \\/     M anipulation  |                                                 |
\*---------------------------------------------------------------------------*/
FoamFile
{
    version     2.0;
    format      ascii;
    class       volScalarField;
    location    "0.035";
    object      l-C6H6;
}
// * * * * * * * * * * * * * * * * * * * * * * * * * * * * * * * * * * * * * //

dimensions      [0 0 0 0 0 0 0];

internalField   nonuniform List<scalar> 
2014
(
4.22566e-09
4.24723e-09
4.26756e-09
4.27815e-09
4.28138e-09
4.28346e-09
4.28216e-09
4.28255e-09
4.28134e-09
4.28152e-09
4.28073e-09
4.28086e-09
4.28033e-09
4.28042e-09
4.28006e-09
4.28014e-09
4.27988e-09
4.27996e-09
4.27979e-09
4.27984e-09
4.27973e-09
4.27975e-09
4.27969e-09
4.2797e-09
4.27969e-09
4.27969e-09
4.27971e-09
4.27969e-09
4.27976e-09
4.27973e-09
4.27984e-09
4.2798e-09
4.27997e-09
4.27989e-09
4.28015e-09
4.28007e-09
4.28043e-09
4.28034e-09
4.28087e-09
4.28074e-09
4.28152e-09
4.28134e-09
4.28255e-09
4.28215e-09
4.28345e-09
4.28137e-09
4.27814e-09
4.26756e-09
4.24722e-09
4.22565e-09
4.07025e-09
4.09098e-09
4.11025e-09
4.12033e-09
4.12344e-09
4.12539e-09
4.12416e-09
4.12449e-09
4.12333e-09
4.12347e-09
4.12271e-09
4.12282e-09
4.12231e-09
4.12237e-09
4.12203e-09
4.12209e-09
4.12185e-09
4.12191e-09
4.12175e-09
4.12179e-09
4.12168e-09
4.12171e-09
4.12164e-09
4.12166e-09
4.12164e-09
4.12164e-09
4.12166e-09
4.12165e-09
4.12171e-09
4.12169e-09
4.1218e-09
4.12176e-09
4.12192e-09
4.12185e-09
4.1221e-09
4.12204e-09
4.12238e-09
4.12231e-09
4.12282e-09
4.12272e-09
4.12347e-09
4.12333e-09
4.12449e-09
4.12415e-09
4.12538e-09
4.12343e-09
4.12032e-09
4.11024e-09
4.09097e-09
4.07024e-09
3.92658e-09
3.94653e-09
3.96478e-09
3.97438e-09
3.97736e-09
3.9792e-09
3.97802e-09
3.9783e-09
3.97719e-09
3.97728e-09
3.97656e-09
3.97663e-09
3.97614e-09
3.9762e-09
3.97586e-09
3.97591e-09
3.97568e-09
3.97573e-09
3.97558e-09
3.97561e-09
3.97551e-09
3.97553e-09
3.97546e-09
3.97548e-09
3.97546e-09
3.97546e-09
3.97548e-09
3.97547e-09
3.97553e-09
3.97551e-09
3.97562e-09
3.97558e-09
3.97574e-09
3.97568e-09
3.97592e-09
3.97587e-09
3.9762e-09
3.97615e-09
3.97664e-09
3.97657e-09
3.97729e-09
3.97719e-09
3.9783e-09
3.97801e-09
3.97919e-09
3.97735e-09
3.97437e-09
3.96477e-09
3.94651e-09
3.92657e-09
3.79346e-09
3.81269e-09
3.82995e-09
3.8391e-09
3.84196e-09
3.84368e-09
3.84256e-09
3.84279e-09
3.84172e-09
3.84178e-09
3.84108e-09
3.84113e-09
3.84066e-09
3.84069e-09
3.84037e-09
3.84041e-09
3.84018e-09
3.84023e-09
3.84008e-09
3.8401e-09
3.84e-09
3.84002e-09
3.83996e-09
3.83997e-09
3.83995e-09
3.83995e-09
3.83997e-09
3.83996e-09
3.84002e-09
3.84001e-09
3.84011e-09
3.84008e-09
3.84023e-09
3.84019e-09
3.84042e-09
3.84038e-09
3.8407e-09
3.84066e-09
3.84113e-09
3.84109e-09
3.84178e-09
3.84172e-09
3.84279e-09
3.84255e-09
3.84368e-09
3.84195e-09
3.83909e-09
3.82994e-09
3.81268e-09
3.79345e-09
3.66984e-09
3.68842e-09
3.7047e-09
3.71343e-09
3.71617e-09
3.71778e-09
3.7167e-09
3.71689e-09
3.71586e-09
3.71588e-09
3.71521e-09
3.71523e-09
3.71478e-09
3.7148e-09
3.71448e-09
3.71451e-09
3.71429e-09
3.71433e-09
3.71418e-09
3.71421e-09
3.71411e-09
3.71412e-09
3.71406e-09
3.71407e-09
3.71406e-09
3.71406e-09
3.71408e-09
3.71407e-09
3.71413e-09
3.71412e-09
3.71421e-09
3.71419e-09
3.71434e-09
3.7143e-09
3.71452e-09
3.71449e-09
3.7148e-09
3.71478e-09
3.71524e-09
3.71522e-09
3.71588e-09
3.71586e-09
3.71688e-09
3.7167e-09
3.71777e-09
3.71616e-09
3.71342e-09
3.7047e-09
3.68841e-09
3.66982e-09
3.55477e-09
3.57273e-09
3.58813e-09
3.59642e-09
3.59903e-09
3.60055e-09
3.59951e-09
3.59965e-09
3.59866e-09
3.59865e-09
3.598e-09
3.598e-09
3.59756e-09
3.59757e-09
3.59726e-09
3.59728e-09
3.59707e-09
3.5971e-09
3.59695e-09
3.59697e-09
3.59688e-09
3.59689e-09
3.59683e-09
3.59684e-09
3.59682e-09
3.59682e-09
3.59684e-09
3.59683e-09
3.59689e-09
3.59688e-09
3.59698e-09
3.59696e-09
3.5971e-09
3.59707e-09
3.59729e-09
3.59727e-09
3.59757e-09
3.59757e-09
3.59801e-09
3.59801e-09
3.59865e-09
3.59866e-09
3.59964e-09
3.5995e-09
3.60054e-09
3.59902e-09
3.59641e-09
3.58813e-09
3.57271e-09
3.55475e-09
3.44742e-09
3.46477e-09
3.4794e-09
3.48723e-09
3.48972e-09
3.49114e-09
3.49013e-09
3.49023e-09
3.48928e-09
3.48924e-09
3.48861e-09
3.48859e-09
3.48816e-09
3.48815e-09
3.48786e-09
3.48787e-09
3.48766e-09
3.48768e-09
3.48754e-09
3.48756e-09
3.48746e-09
3.48747e-09
3.48742e-09
3.48742e-09
3.48741e-09
3.48741e-09
3.48742e-09
3.48742e-09
3.48747e-09
3.48747e-09
3.48756e-09
3.48755e-09
3.48769e-09
3.48767e-09
3.48787e-09
3.48787e-09
3.48816e-09
3.48817e-09
3.48859e-09
3.48861e-09
3.48924e-09
3.48928e-09
3.49023e-09
3.49013e-09
3.49113e-09
3.48971e-09
3.48722e-09
3.47939e-09
3.46475e-09
3.44741e-09
3.34706e-09
3.36381e-09
3.37772e-09
3.38511e-09
3.38747e-09
3.38879e-09
3.38783e-09
3.38788e-09
3.38696e-09
3.3869e-09
3.38629e-09
3.38625e-09
3.38583e-09
3.38581e-09
3.38552e-09
3.38552e-09
3.38532e-09
3.38534e-09
3.3852e-09
3.38521e-09
3.38512e-09
3.38512e-09
3.38507e-09
3.38507e-09
3.38506e-09
3.38506e-09
3.38508e-09
3.38507e-09
3.38513e-09
3.38512e-09
3.38521e-09
3.38521e-09
3.38534e-09
3.38533e-09
3.38553e-09
3.38553e-09
3.38582e-09
3.38584e-09
3.38625e-09
3.38629e-09
3.3869e-09
3.38696e-09
3.38788e-09
3.38782e-09
3.38878e-09
3.38745e-09
3.3851e-09
3.37771e-09
3.3638e-09
3.34704e-09
3.25302e-09
3.26921e-09
3.28242e-09
3.2894e-09
3.29162e-09
3.29286e-09
3.29192e-09
3.29194e-09
3.29105e-09
3.29095e-09
3.29036e-09
3.29031e-09
3.2899e-09
3.28987e-09
3.28959e-09
3.28958e-09
3.28938e-09
3.28939e-09
3.28926e-09
3.28926e-09
3.28917e-09
3.28918e-09
3.28912e-09
3.28913e-09
3.28911e-09
3.28911e-09
3.28913e-09
3.28913e-09
3.28918e-09
3.28918e-09
3.28927e-09
3.28926e-09
3.2894e-09
3.28939e-09
3.28959e-09
3.28959e-09
3.28987e-09
3.28991e-09
3.29031e-09
3.29036e-09
3.29095e-09
3.29104e-09
3.29193e-09
3.29191e-09
3.29285e-09
3.2916e-09
3.28939e-09
3.28241e-09
3.26919e-09
3.253e-09
3.16471e-09
3.18036e-09
3.19291e-09
3.19949e-09
3.20157e-09
3.20273e-09
3.20182e-09
3.2018e-09
3.20094e-09
3.20082e-09
3.20024e-09
3.20017e-09
3.19978e-09
3.19973e-09
3.19946e-09
3.19944e-09
3.19925e-09
3.19925e-09
3.19912e-09
3.19912e-09
3.19904e-09
3.19904e-09
3.19899e-09
3.19899e-09
3.19897e-09
3.19897e-09
3.19899e-09
3.19899e-09
3.19904e-09
3.19904e-09
3.19913e-09
3.19913e-09
3.19926e-09
3.19926e-09
3.19945e-09
3.19947e-09
3.19974e-09
3.19978e-09
3.20018e-09
3.20025e-09
3.20082e-09
3.20093e-09
3.2018e-09
3.20181e-09
3.20272e-09
3.20156e-09
3.19948e-09
3.1929e-09
3.18035e-09
3.16469e-09
3.08162e-09
3.09675e-09
3.10865e-09
3.11486e-09
3.1168e-09
3.11788e-09
3.117e-09
3.11695e-09
3.11611e-09
3.11597e-09
3.11541e-09
3.11532e-09
3.11493e-09
3.11488e-09
3.11461e-09
3.11459e-09
3.1144e-09
3.11439e-09
3.11427e-09
3.11426e-09
3.11418e-09
3.11418e-09
3.11413e-09
3.11413e-09
3.11411e-09
3.11411e-09
3.11413e-09
3.11413e-09
3.11418e-09
3.11419e-09
3.11427e-09
3.11427e-09
3.1144e-09
3.11441e-09
3.11459e-09
3.11462e-09
3.11489e-09
3.11494e-09
3.11532e-09
3.11541e-09
3.11597e-09
3.1161e-09
3.11694e-09
3.11699e-09
3.11787e-09
3.11679e-09
3.11485e-09
3.10865e-09
3.09674e-09
3.0816e-09
3.00328e-09
3.01791e-09
3.02919e-09
3.03504e-09
3.03685e-09
3.03785e-09
3.03698e-09
3.0369e-09
3.03608e-09
3.03593e-09
3.03538e-09
3.03528e-09
3.0349e-09
3.03484e-09
3.03457e-09
3.03454e-09
3.03436e-09
3.03435e-09
3.03422e-09
3.03422e-09
3.03413e-09
3.03413e-09
3.03408e-09
3.03408e-09
3.03406e-09
3.03406e-09
3.03408e-09
3.03408e-09
3.03413e-09
3.03414e-09
3.03422e-09
3.03423e-09
3.03435e-09
3.03436e-09
3.03455e-09
3.03458e-09
3.03484e-09
3.0349e-09
3.03528e-09
3.03538e-09
3.03593e-09
3.03608e-09
3.0369e-09
3.03697e-09
3.03783e-09
3.03683e-09
3.03503e-09
3.02918e-09
3.01789e-09
3.00326e-09
2.92927e-09
2.94341e-09
2.9541e-09
2.95961e-09
2.96128e-09
2.9622e-09
2.96136e-09
2.96125e-09
2.96045e-09
2.96028e-09
2.95974e-09
2.95963e-09
2.95926e-09
2.95919e-09
2.95893e-09
2.95889e-09
2.95871e-09
2.95869e-09
2.95857e-09
2.95856e-09
2.95848e-09
2.95847e-09
2.95842e-09
2.95842e-09
2.95841e-09
2.95841e-09
2.95842e-09
2.95842e-09
2.95847e-09
2.95848e-09
2.95856e-09
2.95857e-09
2.9587e-09
2.95871e-09
2.95889e-09
2.95893e-09
2.95919e-09
2.95926e-09
2.95963e-09
2.95974e-09
2.96028e-09
2.96045e-09
2.96125e-09
2.96135e-09
2.96219e-09
2.96127e-09
2.95959e-09
2.95408e-09
2.9434e-09
2.92925e-09
2.85924e-09
2.87289e-09
2.883e-09
2.88819e-09
2.88973e-09
2.89058e-09
2.88976e-09
2.88962e-09
2.88884e-09
2.88865e-09
2.88812e-09
2.888e-09
2.88763e-09
2.88755e-09
2.8873e-09
2.88725e-09
2.88707e-09
2.88705e-09
2.88693e-09
2.88692e-09
2.88684e-09
2.88683e-09
2.88678e-09
2.88678e-09
2.88677e-09
2.88677e-09
2.88678e-09
2.88679e-09
2.88683e-09
2.88684e-09
2.88692e-09
2.88694e-09
2.88706e-09
2.88708e-09
2.88726e-09
2.8873e-09
2.88756e-09
2.88763e-09
2.888e-09
2.88812e-09
2.88864e-09
2.88884e-09
2.88962e-09
2.88975e-09
2.89057e-09
2.88971e-09
2.88818e-09
2.88299e-09
2.87287e-09
2.85922e-09
2.79284e-09
2.80602e-09
2.81557e-09
2.82046e-09
2.82186e-09
2.82264e-09
2.82184e-09
2.82168e-09
2.82091e-09
2.8207e-09
2.82019e-09
2.82005e-09
2.81969e-09
2.81961e-09
2.81936e-09
2.81931e-09
2.81913e-09
2.8191e-09
2.81898e-09
2.81897e-09
2.81889e-09
2.81888e-09
2.81883e-09
2.81883e-09
2.81881e-09
2.81881e-09
2.81883e-09
2.81883e-09
2.81888e-09
2.81889e-09
2.81897e-09
2.81899e-09
2.81911e-09
2.81913e-09
2.81931e-09
2.81936e-09
2.81961e-09
2.8197e-09
2.82005e-09
2.82019e-09
2.8207e-09
2.82091e-09
2.82167e-09
2.82183e-09
2.82263e-09
2.82185e-09
2.82044e-09
2.81556e-09
2.806e-09
2.79282e-09
2.7298e-09
2.74249e-09
2.75152e-09
2.75611e-09
2.75738e-09
2.7581e-09
2.75731e-09
2.75712e-09
2.75638e-09
2.75615e-09
2.75564e-09
2.7555e-09
2.75514e-09
2.75505e-09
2.7548e-09
2.75475e-09
2.75457e-09
2.75454e-09
2.75442e-09
2.7544e-09
2.75433e-09
2.75431e-09
2.75427e-09
2.75426e-09
2.75425e-09
2.75425e-09
2.75427e-09
2.75427e-09
2.75432e-09
2.75433e-09
2.75441e-09
2.75443e-09
2.75455e-09
2.75458e-09
2.75475e-09
2.75481e-09
2.75505e-09
2.75515e-09
2.7555e-09
2.75564e-09
2.75614e-09
2.75637e-09
2.75712e-09
2.75729e-09
2.75809e-09
2.75737e-09
2.75609e-09
2.7515e-09
2.74247e-09
2.72978e-09
2.66984e-09
2.68204e-09
2.69057e-09
2.69488e-09
2.69603e-09
2.69668e-09
2.6959e-09
2.6957e-09
2.69496e-09
2.69472e-09
2.69422e-09
2.69407e-09
2.69372e-09
2.69362e-09
2.69338e-09
2.69331e-09
2.69314e-09
2.69311e-09
2.69299e-09
2.69297e-09
2.69289e-09
2.69288e-09
2.69283e-09
2.69282e-09
2.69281e-09
2.69281e-09
2.69283e-09
2.69283e-09
2.69288e-09
2.69289e-09
2.69297e-09
2.69299e-09
2.69311e-09
2.69315e-09
2.69332e-09
2.69338e-09
2.69362e-09
2.69372e-09
2.69407e-09
2.69422e-09
2.69471e-09
2.69496e-09
2.69569e-09
2.69589e-09
2.69666e-09
2.69601e-09
2.69486e-09
2.69055e-09
2.68202e-09
2.66982e-09
2.61274e-09
2.62444e-09
2.63248e-09
2.63652e-09
2.63756e-09
2.63815e-09
2.63738e-09
2.63715e-09
2.63644e-09
2.63617e-09
2.63569e-09
2.63552e-09
2.63518e-09
2.63508e-09
2.63483e-09
2.63477e-09
2.6346e-09
2.63456e-09
2.63444e-09
2.63442e-09
2.63434e-09
2.63432e-09
2.63428e-09
2.63427e-09
2.63426e-09
2.63426e-09
2.63428e-09
2.63428e-09
2.63433e-09
2.63434e-09
2.63442e-09
2.63445e-09
2.63457e-09
2.6346e-09
2.63477e-09
2.63484e-09
2.63508e-09
2.63519e-09
2.63552e-09
2.63569e-09
2.63617e-09
2.63643e-09
2.63715e-09
2.63737e-09
2.63813e-09
2.63754e-09
2.63651e-09
2.63247e-09
2.62441e-09
2.61272e-09
2.55829e-09
2.56947e-09
2.57706e-09
2.58084e-09
2.58176e-09
2.58229e-09
2.58153e-09
2.58129e-09
2.58058e-09
2.58031e-09
2.57983e-09
2.57966e-09
2.57932e-09
2.57921e-09
2.57897e-09
2.5789e-09
2.57873e-09
2.57869e-09
2.57857e-09
2.57854e-09
2.57846e-09
2.57845e-09
2.5784e-09
2.5784e-09
2.57838e-09
2.57838e-09
2.5784e-09
2.57841e-09
2.57845e-09
2.57847e-09
2.57855e-09
2.57857e-09
2.57869e-09
2.57873e-09
2.5789e-09
2.57897e-09
2.57921e-09
2.57932e-09
2.57966e-09
2.57983e-09
2.5803e-09
2.58058e-09
2.58128e-09
2.58152e-09
2.58227e-09
2.58174e-09
2.58082e-09
2.57704e-09
2.56944e-09
2.55826e-09
2.50628e-09
2.51695e-09
2.52409e-09
2.52762e-09
2.52844e-09
2.52891e-09
2.52817e-09
2.5279e-09
2.52721e-09
2.52692e-09
2.52646e-09
2.52627e-09
2.52594e-09
2.52582e-09
2.52559e-09
2.52551e-09
2.52534e-09
2.5253e-09
2.52518e-09
2.52515e-09
2.52507e-09
2.52505e-09
2.52501e-09
2.525e-09
2.52499e-09
2.52499e-09
2.525e-09
2.52501e-09
2.52506e-09
2.52508e-09
2.52515e-09
2.52518e-09
2.5253e-09
2.52535e-09
2.52551e-09
2.52559e-09
2.52582e-09
2.52594e-09
2.52627e-09
2.52646e-09
2.52691e-09
2.5272e-09
2.52789e-09
2.52815e-09
2.52889e-09
2.52842e-09
2.5276e-09
2.52407e-09
2.51692e-09
2.50625e-09
2.45654e-09
2.46672e-09
2.47342e-09
2.47671e-09
2.47743e-09
2.47785e-09
2.47711e-09
2.47683e-09
2.47615e-09
2.47585e-09
2.47539e-09
2.4752e-09
2.47487e-09
2.47475e-09
2.47451e-09
2.47443e-09
2.47427e-09
2.47422e-09
2.4741e-09
2.47407e-09
2.47399e-09
2.47397e-09
2.47393e-09
2.47392e-09
2.4739e-09
2.4739e-09
2.47392e-09
2.47393e-09
2.47397e-09
2.474e-09
2.47407e-09
2.4741e-09
2.47422e-09
2.47427e-09
2.47444e-09
2.47452e-09
2.47475e-09
2.47487e-09
2.4752e-09
2.47539e-09
2.47584e-09
2.47614e-09
2.47682e-09
2.47709e-09
2.47783e-09
2.47741e-09
2.47668e-09
2.4734e-09
2.46668e-09
2.45652e-09
2.40893e-09
2.41861e-09
2.42489e-09
2.42793e-09
2.42857e-09
2.42893e-09
2.4282e-09
2.42791e-09
2.42724e-09
2.42693e-09
2.42648e-09
2.42628e-09
2.42596e-09
2.42582e-09
2.42559e-09
2.42551e-09
2.42534e-09
2.42529e-09
2.42517e-09
2.42514e-09
2.42506e-09
2.42504e-09
2.425e-09
2.42499e-09
2.42497e-09
2.42497e-09
2.42499e-09
2.425e-09
2.42504e-09
2.42507e-09
2.42514e-09
2.42518e-09
2.42529e-09
2.42535e-09
2.42551e-09
2.4256e-09
2.42582e-09
2.42596e-09
2.42628e-09
2.42648e-09
2.42692e-09
2.42723e-09
2.4279e-09
2.42819e-09
2.42891e-09
2.42855e-09
2.42791e-09
2.42486e-09
2.41857e-09
2.4089e-09
2.3633e-09
2.37249e-09
2.37834e-09
2.38116e-09
2.38172e-09
2.38203e-09
2.38131e-09
2.381e-09
2.38034e-09
2.38002e-09
2.37958e-09
2.37937e-09
2.37905e-09
2.37891e-09
2.37868e-09
2.3786e-09
2.37843e-09
2.37837e-09
2.37826e-09
2.37822e-09
2.37814e-09
2.37812e-09
2.37808e-09
2.37807e-09
2.37805e-09
2.37805e-09
2.37807e-09
2.37808e-09
2.37812e-09
2.37815e-09
2.37822e-09
2.37826e-09
2.37838e-09
2.37843e-09
2.3786e-09
2.37869e-09
2.37891e-09
2.37905e-09
2.37937e-09
2.37957e-09
2.38001e-09
2.38033e-09
2.38099e-09
2.38129e-09
2.38201e-09
2.38169e-09
2.38113e-09
2.37832e-09
2.37245e-09
2.36326e-09
2.3195e-09
2.32822e-09
2.33368e-09
2.33624e-09
2.33674e-09
2.337e-09
2.33629e-09
2.33597e-09
2.33532e-09
2.33498e-09
2.33455e-09
2.33434e-09
2.33402e-09
2.33388e-09
2.33365e-09
2.33356e-09
2.33339e-09
2.33333e-09
2.33322e-09
2.33318e-09
2.3331e-09
2.33308e-09
2.33303e-09
2.33302e-09
2.33301e-09
2.33301e-09
2.33303e-09
2.33304e-09
2.33308e-09
2.33311e-09
2.33318e-09
2.33322e-09
2.33334e-09
2.3334e-09
2.33356e-09
2.33365e-09
2.33388e-09
2.33402e-09
2.33433e-09
2.33455e-09
2.33497e-09
2.3353e-09
2.33595e-09
2.33627e-09
2.33697e-09
2.33671e-09
2.33621e-09
2.33366e-09
2.32817e-09
2.31947e-09
2.27744e-09
2.28567e-09
2.29078e-09
2.29306e-09
2.2935e-09
2.29372e-09
2.29302e-09
2.29268e-09
2.29205e-09
2.2917e-09
2.29128e-09
2.29105e-09
2.29075e-09
2.29059e-09
2.29037e-09
2.29027e-09
2.29011e-09
2.29005e-09
2.28993e-09
2.28989e-09
2.28981e-09
2.28978e-09
2.28974e-09
2.28973e-09
2.28972e-09
2.28972e-09
2.28973e-09
2.28974e-09
2.28979e-09
2.28981e-09
2.28989e-09
2.28993e-09
2.29005e-09
2.29011e-09
2.29027e-09
2.29037e-09
2.29059e-09
2.29074e-09
2.29105e-09
2.29127e-09
2.29169e-09
2.29203e-09
2.29266e-09
2.293e-09
2.29369e-09
2.29347e-09
2.29303e-09
2.29076e-09
2.28563e-09
2.2774e-09
2.23697e-09
2.24476e-09
2.24952e-09
2.25149e-09
2.25188e-09
2.25206e-09
2.25137e-09
2.25101e-09
2.25039e-09
2.25004e-09
2.24962e-09
2.24939e-09
2.24909e-09
2.24893e-09
2.24871e-09
2.24861e-09
2.24844e-09
2.24838e-09
2.24826e-09
2.24822e-09
2.24814e-09
2.24811e-09
2.24807e-09
2.24806e-09
2.24804e-09
2.24804e-09
2.24806e-09
2.24807e-09
2.24811e-09
2.24814e-09
2.24822e-09
2.24826e-09
2.24838e-09
2.24844e-09
2.24861e-09
2.24871e-09
2.24892e-09
2.24908e-09
2.24939e-09
2.24961e-09
2.25003e-09
2.25037e-09
2.25099e-09
2.25134e-09
2.25203e-09
2.25185e-09
2.25145e-09
2.24949e-09
2.24472e-09
2.23693e-09
2.198e-09
2.20536e-09
2.20978e-09
2.21277e-09
2.21313e-09
2.21327e-09
2.21259e-09
2.21222e-09
2.21161e-09
2.21125e-09
2.21084e-09
2.21061e-09
2.2103e-09
2.21014e-09
2.20992e-09
2.20981e-09
2.20965e-09
2.20958e-09
2.20946e-09
2.20942e-09
2.20934e-09
2.20931e-09
2.20927e-09
2.20925e-09
2.20924e-09
2.20924e-09
2.20926e-09
2.20927e-09
2.20931e-09
2.20934e-09
2.20942e-09
2.20947e-09
2.20958e-09
2.20965e-09
2.20981e-09
2.20992e-09
2.21013e-09
2.2103e-09
2.2106e-09
2.21083e-09
2.21124e-09
2.21159e-09
2.2122e-09
2.21256e-09
2.21324e-09
2.2131e-09
2.21274e-09
2.20975e-09
2.20531e-09
2.19796e-09
2.16167e-09
2.16867e-09
2.17277e-09
2.17551e-09
2.17572e-09
2.17575e-09
2.17501e-09
2.17461e-09
2.17398e-09
2.17361e-09
2.17318e-09
2.17295e-09
2.17264e-09
2.17247e-09
2.17226e-09
2.17215e-09
2.17199e-09
2.17192e-09
2.1718e-09
2.17176e-09
2.17168e-09
2.17165e-09
2.17161e-09
2.17159e-09
2.17158e-09
2.17158e-09
2.1716e-09
2.17161e-09
2.17165e-09
2.17168e-09
2.17176e-09
2.1718e-09
2.17192e-09
2.17199e-09
2.17215e-09
2.17225e-09
2.17247e-09
2.17263e-09
2.17293e-09
2.17317e-09
2.17359e-09
2.17395e-09
2.17458e-09
2.17498e-09
2.17572e-09
2.17568e-09
2.17547e-09
2.17273e-09
2.16861e-09
2.16162e-09
2.12558e-09
2.1322e-09
2.13597e-09
2.13847e-09
2.13862e-09
2.1386e-09
2.13787e-09
2.13745e-09
2.13683e-09
2.13645e-09
2.13603e-09
2.13579e-09
2.13549e-09
2.13532e-09
2.1351e-09
2.13499e-09
2.13483e-09
2.13476e-09
2.13464e-09
2.13459e-09
2.13452e-09
2.13449e-09
2.13444e-09
2.13443e-09
2.13441e-09
2.13441e-09
2.13443e-09
2.13444e-09
2.13449e-09
2.13452e-09
2.13459e-09
2.13464e-09
2.13475e-09
2.13483e-09
2.13499e-09
2.13509e-09
2.13531e-09
2.13548e-09
2.13578e-09
2.13602e-09
2.13643e-09
2.1368e-09
2.13742e-09
2.13783e-09
2.13857e-09
2.13858e-09
2.13843e-09
2.13593e-09
2.13215e-09
2.12553e-09
2.09069e-09
2.09693e-09
2.1004e-09
2.1027e-09
2.10281e-09
2.10275e-09
2.10202e-09
2.1016e-09
2.10098e-09
2.1006e-09
2.10018e-09
2.09994e-09
2.09964e-09
2.09946e-09
2.09925e-09
2.09913e-09
2.09897e-09
2.09889e-09
2.09878e-09
2.09873e-09
2.09865e-09
2.09862e-09
2.09857e-09
2.09856e-09
2.09855e-09
2.09855e-09
2.09856e-09
2.09858e-09
2.09862e-09
2.09865e-09
2.09872e-09
2.09878e-09
2.09889e-09
2.09896e-09
2.09913e-09
2.09924e-09
2.09945e-09
2.09962e-09
2.09992e-09
2.10016e-09
2.10058e-09
2.10095e-09
2.10156e-09
2.10199e-09
2.10271e-09
2.10276e-09
2.10265e-09
2.10036e-09
2.09687e-09
2.09064e-09
2.05696e-09
2.06282e-09
2.06601e-09
2.06811e-09
2.06818e-09
2.06809e-09
2.06736e-09
2.06692e-09
2.06631e-09
2.06593e-09
2.06552e-09
2.06526e-09
2.06497e-09
2.06479e-09
2.06457e-09
2.06446e-09
2.0643e-09
2.06421e-09
2.0641e-09
2.06404e-09
2.06397e-09
2.06393e-09
2.06389e-09
2.06387e-09
2.06386e-09
2.06386e-09
2.06388e-09
2.06389e-09
2.06393e-09
2.06396e-09
2.06404e-09
2.06409e-09
2.06421e-09
2.06429e-09
2.06445e-09
2.06456e-09
2.06477e-09
2.06495e-09
2.06524e-09
2.06549e-09
2.0659e-09
2.06628e-09
2.06689e-09
2.06732e-09
2.06804e-09
2.06813e-09
2.06806e-09
2.06596e-09
2.06275e-09
2.0569e-09
2.02533e-09
2.03087e-09
2.03378e-09
2.03571e-09
2.03574e-09
2.03561e-09
2.03488e-09
2.03443e-09
2.03383e-09
2.03344e-09
2.03303e-09
2.03277e-09
2.03248e-09
2.03229e-09
2.03208e-09
2.03196e-09
2.0318e-09
2.03171e-09
2.0316e-09
2.03154e-09
2.03146e-09
2.03143e-09
2.03138e-09
2.03137e-09
2.03135e-09
2.03135e-09
2.03137e-09
2.03139e-09
2.03143e-09
2.03146e-09
2.03154e-09
2.03159e-09
2.0317e-09
2.03179e-09
2.03195e-09
2.03206e-09
2.03227e-09
2.03246e-09
2.03275e-09
2.033e-09
2.03341e-09
2.03379e-09
2.03439e-09
2.03484e-09
2.03556e-09
2.03569e-09
2.03566e-09
2.03373e-09
2.03081e-09
2.02527e-09
1.99474e-09
1.99997e-09
2.0026e-09
2.00438e-09
2.00436e-09
2.00419e-09
2.00347e-09
2.00301e-09
2.0024e-09
2.00201e-09
2.00159e-09
2.00133e-09
2.00103e-09
2.00084e-09
2.00063e-09
2.00051e-09
2.00035e-09
2.00026e-09
2.00015e-09
2.00009e-09
2.00001e-09
1.99998e-09
1.99993e-09
1.99992e-09
1.9999e-09
1.9999e-09
1.99992e-09
1.99994e-09
1.99998e-09
2.00001e-09
2.00008e-09
2.00014e-09
2.00025e-09
2.00033e-09
2.00049e-09
2.00061e-09
2.00082e-09
2.00101e-09
2.0013e-09
2.00156e-09
2.00198e-09
2.00236e-09
2.00296e-09
2.00342e-09
2.00414e-09
2.00431e-09
2.00432e-09
2.00254e-09
1.9999e-09
1.99467e-09
1.96426e-09
1.96919e-09
1.97155e-09
1.97316e-09
1.97307e-09
1.97285e-09
1.97211e-09
1.97163e-09
1.97103e-09
1.97063e-09
1.97021e-09
1.96994e-09
1.96964e-09
1.96945e-09
1.96924e-09
1.96912e-09
1.96896e-09
1.96887e-09
1.96875e-09
1.96869e-09
1.96862e-09
1.96858e-09
1.96854e-09
1.96852e-09
1.9685e-09
1.96851e-09
1.96852e-09
1.96854e-09
1.96858e-09
1.96861e-09
1.96868e-09
1.96874e-09
1.96885e-09
1.96894e-09
1.9691e-09
1.96922e-09
1.96943e-09
1.96962e-09
1.96991e-09
1.97018e-09
1.97059e-09
1.97098e-09
1.97158e-09
1.97206e-09
1.97279e-09
1.97301e-09
1.97309e-09
1.97149e-09
1.96911e-09
1.96418e-09
1.93456e-09
1.93916e-09
1.94128e-09
1.94272e-09
1.9426e-09
1.94234e-09
1.9416e-09
1.94111e-09
1.94051e-09
1.9401e-09
1.93968e-09
1.93941e-09
1.93912e-09
1.93892e-09
1.93871e-09
1.93858e-09
1.93842e-09
1.93833e-09
1.93821e-09
1.93815e-09
1.93807e-09
1.93804e-09
1.93799e-09
1.93798e-09
1.93796e-09
1.93796e-09
1.93798e-09
1.93799e-09
1.93803e-09
1.93807e-09
1.93814e-09
1.9382e-09
1.93831e-09
1.9384e-09
1.93856e-09
1.93868e-09
1.93889e-09
1.93909e-09
1.93938e-09
1.93965e-09
1.94006e-09
1.94045e-09
1.94105e-09
1.94154e-09
1.94227e-09
1.94253e-09
1.94266e-09
1.94121e-09
1.93908e-09
1.93448e-09
1.90653e-09
1.91084e-09
1.91272e-09
1.91402e-09
1.91384e-09
1.91355e-09
1.91281e-09
1.9123e-09
1.91171e-09
1.9113e-09
1.91088e-09
1.9106e-09
1.91031e-09
1.91011e-09
1.9099e-09
1.90977e-09
1.90961e-09
1.90951e-09
1.90939e-09
1.90933e-09
1.90925e-09
1.90921e-09
1.90917e-09
1.90915e-09
1.90913e-09
1.90914e-09
1.90915e-09
1.90917e-09
1.9092e-09
1.90924e-09
1.90932e-09
1.90938e-09
1.90949e-09
1.90958e-09
1.90974e-09
1.90987e-09
1.91008e-09
1.91028e-09
1.91057e-09
1.91084e-09
1.91125e-09
1.91165e-09
1.91224e-09
1.91275e-09
1.91348e-09
1.91377e-09
1.91395e-09
1.91264e-09
1.91075e-09
1.90645e-09
1.87905e-09
1.88318e-09
1.88481e-09
1.88595e-09
1.88566e-09
1.88528e-09
1.88451e-09
1.88397e-09
1.88336e-09
1.88294e-09
1.88252e-09
1.88223e-09
1.88194e-09
1.88174e-09
1.88152e-09
1.8814e-09
1.88123e-09
1.88114e-09
1.88102e-09
1.88095e-09
1.88088e-09
1.88084e-09
1.88079e-09
1.88078e-09
1.88076e-09
1.88076e-09
1.88078e-09
1.88079e-09
1.88083e-09
1.88087e-09
1.88094e-09
1.881e-09
1.88112e-09
1.88121e-09
1.88137e-09
1.88149e-09
1.8817e-09
1.8819e-09
1.88219e-09
1.88247e-09
1.88289e-09
1.8833e-09
1.88391e-09
1.88444e-09
1.88521e-09
1.88558e-09
1.88588e-09
1.88474e-09
1.88309e-09
1.87897e-09
1.85237e-09
1.85622e-09
1.85763e-09
1.85862e-09
1.85827e-09
1.85786e-09
1.85708e-09
1.85652e-09
1.85591e-09
1.85549e-09
1.85507e-09
1.85478e-09
1.85448e-09
1.85428e-09
1.85407e-09
1.85393e-09
1.85377e-09
1.85368e-09
1.85355e-09
1.85349e-09
1.85341e-09
1.85337e-09
1.85332e-09
1.85331e-09
1.85329e-09
1.85329e-09
1.85331e-09
1.85332e-09
1.85336e-09
1.8534e-09
1.85347e-09
1.85354e-09
1.85365e-09
1.85374e-09
1.8539e-09
1.85403e-09
1.85424e-09
1.85445e-09
1.85474e-09
1.85502e-09
1.85543e-09
1.85585e-09
1.85646e-09
1.857e-09
1.85778e-09
1.8582e-09
1.85855e-09
1.85755e-09
1.85613e-09
1.85227e-09
1.82624e-09
1.82983e-09
1.83102e-09
1.83188e-09
1.83147e-09
1.83101e-09
1.83022e-09
1.82965e-09
1.82904e-09
1.82861e-09
1.82818e-09
1.82789e-09
1.8276e-09
1.82739e-09
1.82717e-09
1.82704e-09
1.82688e-09
1.82678e-09
1.82665e-09
1.82659e-09
1.82651e-09
1.82647e-09
1.82642e-09
1.8264e-09
1.82639e-09
1.82639e-09
1.82641e-09
1.82642e-09
1.82646e-09
1.8265e-09
1.82658e-09
1.82664e-09
1.82675e-09
1.82685e-09
1.82701e-09
1.82714e-09
1.82735e-09
1.82756e-09
1.82785e-09
1.82814e-09
1.82855e-09
1.82898e-09
1.82958e-09
1.83015e-09
1.83093e-09
1.83139e-09
1.8318e-09
1.83094e-09
1.82974e-09
1.82615e-09
1.80025e-09
1.80018e-09
1.8001e-09
1.80006e-09
1.80001e-09
1.79999e-09
1.79998e-09
1.79998e-09
1.79999e-09
1.80001e-09
1.80005e-09
1.80009e-09
1.80017e-09
1.80023e-09
1.80035e-09
1.80045e-09
1.80061e-09
1.80074e-09
1.80095e-09
1.80117e-09
1.80146e-09
1.80175e-09
1.80216e-09
1.8026e-09
1.80321e-09
1.80378e-09
1.80458e-09
1.80509e-09
1.80557e-09
1.80484e-09
1.80386e-09
1.80052e-09
1.77405e-09
1.77409e-09
1.77417e-09
1.77423e-09
1.77435e-09
1.77445e-09
1.77461e-09
1.77475e-09
1.77496e-09
1.77518e-09
1.77547e-09
1.77577e-09
1.77619e-09
1.77662e-09
1.77724e-09
1.77783e-09
1.77865e-09
1.7792e-09
1.77975e-09
1.77916e-09
1.77839e-09
1.7753e-09
1.75052e-09
1.75097e-09
1.75159e-09
1.7522e-09
1.75303e-09
1.75364e-09
1.75426e-09
1.75381e-09
1.75325e-09
1.75039e-09
)
;

boundaryField
{
    fuel
    {
        type            fixedValue;
        value           nonuniform 0();
    }
    wall
    {
        type            zeroGradient;
    }
    outlet
    {
        type            zeroGradient;
    }
    frontAndBack
    {
        type            empty;
    }
    procBoundary0to1
    {
        type            processor;
        value           nonuniform List<scalar> 
50
(
4.39414e-09
4.41662e-09
4.43805e-09
4.44918e-09
4.45252e-09
4.45472e-09
4.45336e-09
4.45382e-09
4.45254e-09
4.45277e-09
4.45195e-09
4.45211e-09
4.45156e-09
4.45167e-09
4.45129e-09
4.45139e-09
4.45112e-09
4.45121e-09
4.45103e-09
4.45109e-09
4.45097e-09
4.451e-09
4.45093e-09
4.45095e-09
4.45093e-09
4.45093e-09
4.45095e-09
4.45094e-09
4.45101e-09
4.45098e-09
4.45109e-09
4.45104e-09
4.45122e-09
4.45113e-09
4.45139e-09
4.4513e-09
4.45168e-09
4.45157e-09
4.45211e-09
4.45196e-09
4.45277e-09
4.45254e-09
4.45382e-09
4.45335e-09
4.45472e-09
4.45251e-09
4.44917e-09
4.43804e-09
4.41661e-09
4.39413e-09
)
;
    }
    procBoundary0to2
    {
        type            processor;
        value           nonuniform List<scalar> 
53
(
1.8006e-09
1.80394e-09
1.80492e-09
1.80564e-09
1.80516e-09
1.80465e-09
1.80385e-09
1.80326e-09
1.80265e-09
1.80221e-09
1.80179e-09
1.80149e-09
1.8012e-09
1.80098e-09
1.80077e-09
1.80063e-09
1.80047e-09
1.80037e-09
1.80037e-09
1.77424e-09
1.77417e-09
1.7741e-09
1.77405e-09
1.77401e-09
1.77398e-09
1.77397e-09
1.77397e-09
1.77399e-09
1.77401e-09
1.77401e-09
1.74836e-09
1.7484e-09
1.74848e-09
1.74855e-09
1.74866e-09
1.74876e-09
1.74893e-09
1.74907e-09
1.74928e-09
1.7495e-09
1.74979e-09
1.75009e-09
1.75009e-09
1.72507e-09
1.72553e-09
1.72615e-09
1.72679e-09
1.72764e-09
1.7283e-09
1.729e-09
1.72869e-09
1.72833e-09
1.72571e-09
)
;
    }
}


// ************************************************************************* //
