/*--------------------------------*- C++ -*----------------------------------*\
| =========                 |                                                 |
| \\      /  F ield         | OpenFOAM: The Open Source CFD Toolbox           |
|  \\    /   O peration     | Version:  dev                                   |
|   \\  /    A nd           | Web:      www.OpenFOAM.org                      |
|    \\/     M anipulation  |                                                 |
\*---------------------------------------------------------------------------*/
FoamFile
{
    version     2.0;
    format      ascii;
    class       volScalarField;
    location    "0.035";
    object      N2;
}
// * * * * * * * * * * * * * * * * * * * * * * * * * * * * * * * * * * * * * //

dimensions      [0 0 0 0 0 0 0];

internalField   nonuniform List<scalar> 
2014
(
0.000431469
0.000423745
0.000417273
0.000413984
0.000412845
0.00041232
0.000412673
0.000412655
0.000412903
0.000412792
0.000412814
0.000412602
0.000412507
0.000412275
0.000412147
0.000411939
0.000411821
0.000411651
0.000411556
0.000411437
0.000411376
0.000411306
0.000411277
0.000411247
0.000411242
0.000411248
0.000411265
0.000411305
0.000411344
0.000411421
0.000411485
0.000411603
0.000411693
0.000411857
0.000411968
0.00041217
0.000412291
0.000412514
0.000412601
0.000412802
0.000412771
0.00041287
0.000412608
0.000412611
0.000412245
0.000412754
0.000413879
0.00041715
0.000423604
0.000431311
0.000464694
0.000456622
0.000449986
0.000446617
0.000445512
0.00044501
0.00044542
0.000445422
0.000445698
0.000445588
0.000445616
0.000445395
0.000445297
0.000445053
0.00044492
0.000444699
0.000444575
0.000444394
0.000444295
0.000444169
0.000444105
0.000444031
0.000444
0.000443969
0.000443964
0.00044397
0.000443988
0.000444031
0.000444071
0.000444153
0.00044422
0.000444346
0.00044444
0.000444614
0.000444731
0.000444944
0.00044507
0.000445305
0.000445394
0.000445605
0.000445566
0.000445662
0.000445371
0.000445355
0.00044493
0.000445415
0.000446505
0.000449855
0.000456471
0.000464526
0.000500268
0.000491819
0.00048505
0.000481606
0.000480548
0.000480073
0.000480548
0.00048057
0.000480877
0.00048077
0.000480806
0.000480575
0.000480475
0.000480218
0.000480078
0.000479845
0.000479715
0.000479524
0.00047942
0.000479285
0.000479219
0.00047914
0.000479108
0.000479075
0.00047907
0.000479077
0.000479096
0.000479141
0.000479184
0.000479271
0.000479341
0.000479474
0.000479573
0.000479757
0.00047988
0.000480105
0.000480236
0.000480484
0.000480575
0.000480795
0.000480747
0.00048084
0.000480517
0.000480479
0.000479988
0.000480444
0.000481486
0.00048491
0.000491659
0.000500089
0.000538347
0.000529491
0.000522624
0.00051911
0.000518113
0.000517672
0.000518217
0.000518264
0.000518605
0.0005185
0.000518545
0.000518304
0.000518202
0.000517932
0.000517786
0.00051754
0.000517403
0.000517201
0.000517092
0.00051695
0.00051688
0.000516797
0.000516764
0.000516729
0.000516724
0.000516732
0.000516751
0.000516799
0.000516844
0.000516936
0.00051701
0.000517151
0.000517255
0.000517449
0.000517577
0.000517815
0.000517952
0.000518212
0.000518305
0.000518534
0.000518476
0.000518566
0.000518208
0.000518145
0.000517582
0.000518004
0.000518983
0.000522475
0.000529322
0.000538157
0.000579098
0.000569804
0.000562878
0.000559299
0.000558379
0.000557979
0.000558601
0.000558676
0.000559053
0.000558953
0.000559008
0.000558756
0.000558652
0.000558368
0.000558216
0.000557956
0.000557814
0.0005576
0.000557485
0.000557335
0.000557262
0.000557174
0.00055714
0.000557104
0.000557099
0.000557107
0.000557127
0.000557178
0.000557225
0.000557322
0.0005574
0.000557549
0.000557658
0.000557863
0.000557997
0.000558248
0.00055839
0.000558664
0.000558758
0.000558996
0.000558928
0.000559012
0.000558617
0.000558525
0.000557884
0.000558264
0.000559164
0.00056272
0.000569625
0.000578898
0.000622699
0.000612954
0.000605969
0.000602354
0.000601528
0.000601176
0.000601883
0.000601989
0.000602405
0.00060231
0.000602376
0.000602115
0.000602009
0.00060171
0.000601553
0.000601279
0.000601129
0.000600904
0.000600783
0.000600624
0.000600548
0.000600456
0.00060042
0.000600382
0.000600378
0.000600386
0.000600407
0.000600462
0.000600511
0.000600614
0.000600695
0.000600853
0.000600966
0.000601183
0.000601323
0.000601587
0.000601735
0.000602022
0.000602118
0.000602365
0.000602285
0.000602363
0.000601927
0.000601802
0.000601075
0.000601407
0.000602212
0.000605801
0.000612765
0.000622487
0.000669333
0.000659131
0.000652091
0.000648465
0.000647754
0.000647456
0.000648256
0.000648397
0.000648856
0.000648768
0.000648846
0.000648575
0.000648467
0.000648154
0.00064799
0.000647702
0.000647546
0.000647308
0.000647181
0.000647013
0.000646934
0.000646836
0.0006468
0.00064676
0.000646756
0.000646765
0.000646787
0.000646844
0.000646896
0.000647005
0.00064709
0.000647256
0.000647375
0.000647604
0.000647749
0.000648028
0.000648181
0.000648483
0.000648578
0.000648835
0.000648743
0.000648813
0.000648332
0.000648171
0.000647351
0.000647626
0.000648314
0.000651914
0.00065893
0.000669109
0.000719197
0.000708524
0.000701456
0.000697834
0.00069726
0.000697027
0.000697927
0.000698107
0.000698613
0.000698533
0.000698624
0.000698342
0.000698234
0.000697905
0.000697736
0.000697432
0.000697269
0.000697018
0.000696886
0.000696708
0.000696625
0.000696523
0.000696485
0.000696443
0.000696439
0.000696449
0.000696472
0.000696533
0.000696587
0.000696702
0.000696791
0.000696966
0.000697091
0.000697331
0.000697484
0.000697776
0.000697935
0.000698251
0.000698347
0.000698614
0.000698507
0.000698568
0.000698039
0.000697837
0.000696915
0.000697125
0.000697675
0.000701269
0.000708311
0.00071896
0.000772498
0.000761342
0.000754282
0.000750678
0.000750264
0.000750104
0.000751113
0.000751338
0.000751894
0.000751824
0.000751929
0.000751637
0.000751528
0.000751184
0.000751008
0.000750688
0.000750518
0.000750254
0.000750115
0.000749928
0.000749842
0.000749734
0.000749695
0.000749651
0.000749648
0.000749658
0.000749683
0.000749747
0.000749803
0.000749924
0.000750017
0.000750202
0.000750332
0.000750586
0.000750744
0.000751052
0.000751216
0.000751547
0.000751644
0.00075192
0.000751798
0.000751848
0.000751267
0.00075102
0.000749987
0.000750121
0.00075051
0.000754085
0.000761116
0.000772246
0.000829455
0.000817807
0.000810797
0.000807224
0.000806994
0.000806919
0.000808047
0.00080832
0.000808932
0.000808873
0.000808993
0.00080869
0.000808581
0.000808221
0.000808039
0.000807703
0.000807526
0.000807247
0.000807103
0.000806906
0.000806816
0.000806702
0.000806662
0.000806616
0.000806613
0.000806625
0.00080665
0.000806718
0.000806777
0.000806904
0.000807001
0.000807197
0.000807332
0.000807599
0.000807764
0.000808087
0.000808256
0.000808603
0.000808699
0.000808985
0.000808846
0.000808884
0.000808246
0.000807949
0.000806796
0.000806845
0.000807047
0.00081059
0.000817569
0.00082919
0.000890303
0.000878157
0.000871242
0.000867715
0.000867696
0.000867717
0.000868973
0.0008693
0.00086997
0.000869925
0.000870062
0.000869748
0.000869639
0.000869262
0.000869075
0.000868722
0.000868538
0.000868244
0.000868093
0.000867885
0.000867792
0.000867673
0.000867631
0.000867584
0.000867581
0.000867593
0.00086762
0.000867691
0.000867753
0.000867888
0.000867989
0.000868194
0.000868335
0.000868616
0.000868787
0.000869127
0.000869302
0.000869665
0.000869759
0.000870055
0.000869898
0.000869922
0.000869223
0.000868871
0.000867588
0.000867539
0.000867528
0.000871024
0.000877905
0.000890022
0.000955288
0.000942643
0.000935872
0.000932408
0.000932625
0.000932755
0.000934151
0.000934537
0.000935271
0.00093524
0.000935396
0.000935071
0.000934963
0.000934569
0.000934375
0.000934005
0.000933813
0.000933504
0.000933347
0.000933128
0.000933031
0.000932906
0.000932863
0.000932813
0.000932811
0.000932825
0.000932853
0.000932928
0.000932992
0.000933134
0.000933239
0.000933456
0.000933602
0.000933897
0.000934075
0.000934432
0.000934612
0.000934991
0.000935084
0.000935389
0.000935214
0.000935221
0.000934456
0.000934043
0.00093262
0.00093246
0.000932211
0.000935643
0.000942377
0.000954991
0.00102467
0.00101153
0.00100495
0.00100157
0.00100205
0.00100231
0.00100385
0.0010043
0.00100511
0.00100509
0.00100527
0.00100493
0.00100483
0.00100441
0.00100421
0.00100383
0.00100363
0.0010033
0.00100314
0.00100291
0.00100281
0.00100268
0.00100263
0.00100258
0.00100258
0.00100259
0.00100262
0.0010027
0.00100277
0.00100292
0.00100303
0.00100326
0.00100341
0.00100372
0.0010039
0.00100428
0.00100446
0.00100486
0.00100495
0.00100526
0.00100507
0.00100506
0.00100422
0.00100374
0.00100217
0.00100188
0.00100137
0.00100471
0.00101125
0.00102436
0.00109873
0.00108511
0.00107877
0.0010755
0.00107627
0.00107666
0.00107837
0.00107889
0.00107977
0.00107978
0.00107997
0.00107963
0.00107952
0.00107909
0.00107888
0.00107848
0.00107827
0.00107793
0.00107776
0.00107752
0.00107741
0.00107727
0.00107723
0.00107717
0.00107717
0.00107719
0.00107722
0.0010773
0.00107737
0.00107753
0.00107764
0.00107788
0.00107804
0.00107837
0.00107856
0.00107895
0.00107914
0.00107956
0.00107964
0.00107997
0.00107975
0.00107972
0.00107881
0.00107825
0.00107651
0.00107609
0.00107528
0.00107852
0.00108481
0.0010984
0.00117775
0.00116367
0.00115763
0.00115449
0.00115558
0.00115613
0.00115801
0.00115861
0.00115957
0.00115959
0.00115981
0.00115946
0.00115935
0.0011589
0.00115869
0.00115826
0.00115805
0.00115769
0.00115751
0.00115726
0.00115715
0.00115701
0.00115696
0.0011569
0.0011569
0.00115692
0.00115695
0.00115704
0.00115711
0.00115728
0.0011574
0.00115765
0.00115781
0.00115815
0.00115835
0.00115876
0.00115896
0.00115939
0.00115948
0.00115981
0.00115957
0.00115951
0.00115852
0.00115789
0.00115597
0.00115539
0.00115426
0.00115736
0.00116336
0.0011774
0.00126204
0.00124753
0.00124184
0.00123886
0.00124031
0.00124102
0.00124309
0.00124378
0.00124482
0.00124487
0.00124511
0.00124475
0.00124465
0.00124418
0.00124396
0.00124351
0.00124329
0.00124291
0.00124273
0.00124246
0.00124235
0.0012422
0.00124215
0.00124209
0.00124209
0.00124211
0.00124214
0.00124224
0.00124231
0.00124248
0.00124261
0.00124287
0.00124304
0.0012434
0.00124361
0.00124404
0.00124424
0.00124469
0.00124477
0.00124511
0.00124485
0.00124477
0.00124368
0.00124296
0.00124086
0.00124011
0.00123863
0.00124156
0.0012472
0.00126167
0.00135192
0.00133702
0.00133173
0.00132897
0.00133079
0.00133169
0.00133396
0.00133474
0.00133587
0.00133595
0.00133622
0.00133584
0.00133574
0.00133525
0.00133503
0.00133456
0.00133433
0.00133393
0.00133374
0.00133346
0.00133334
0.00133319
0.00133314
0.00133308
0.00133308
0.0013331
0.00133313
0.00133323
0.00133331
0.00133349
0.00133362
0.0013339
0.00133407
0.00133445
0.00133466
0.00133511
0.00133532
0.00133579
0.00133587
0.00133622
0.00133593
0.00133582
0.00133464
0.00133382
0.00133152
0.00133058
0.00132872
0.00133144
0.00133668
0.00135153
0.00144774
0.00143251
0.00142766
0.00142515
0.00142738
0.00142849
0.00143097
0.00143185
0.00143308
0.00143319
0.00143348
0.00143309
0.001433
0.00143249
0.00143226
0.00143177
0.00143153
0.00143112
0.00143092
0.00143062
0.0014305
0.00143034
0.00143029
0.00143023
0.00143023
0.00143025
0.00143029
0.00143039
0.00143047
0.00143066
0.00143079
0.00143108
0.00143127
0.00143166
0.00143188
0.00143235
0.00143256
0.00143306
0.00143313
0.00143349
0.00143317
0.00143303
0.00143175
0.00143083
0.00142831
0.00142716
0.00142489
0.00142736
0.00143215
0.00144733
0.00154985
0.00153434
0.00153001
0.00152781
0.00153046
0.00153179
0.0015345
0.00153549
0.00153683
0.00153697
0.00153729
0.00153689
0.00153681
0.00153627
0.00153604
0.00153552
0.00153528
0.00153484
0.00153463
0.00153432
0.0015342
0.00153403
0.00153398
0.00153391
0.00153392
0.00153394
0.00153398
0.00153408
0.00153417
0.00153437
0.00153451
0.00153481
0.001535
0.00153542
0.00153564
0.00153614
0.00153635
0.00153687
0.00153693
0.0015373
0.00153695
0.00153677
0.00153539
0.00153436
0.00153161
0.00153023
0.00152753
0.00152969
0.00153397
0.00154942
0.00165865
0.00164292
0.00163915
0.00163733
0.00164043
0.001642
0.00164495
0.00164606
0.00164751
0.00164769
0.00164804
0.00164763
0.00164756
0.00164699
0.00164675
0.00164622
0.00164596
0.00164551
0.00164529
0.00164496
0.00164484
0.00164465
0.00164461
0.00164454
0.00164454
0.00164457
0.00164461
0.00164472
0.00164481
0.00164502
0.00164516
0.00164548
0.00164568
0.00164611
0.00164635
0.00164686
0.00164708
0.00164762
0.00164768
0.00164806
0.00164768
0.00164746
0.00164596
0.00164481
0.00164181
0.00164019
0.00163704
0.00163881
0.00164253
0.00165819
0.00177453
0.00175864
0.0017555
0.00175414
0.00175771
0.00175954
0.00176275
0.00176399
0.00176555
0.00176577
0.00176616
0.00176574
0.00176567
0.00176508
0.00176483
0.00176427
0.00176401
0.00176353
0.0017633
0.00176296
0.00176283
0.00176264
0.00176259
0.00176252
0.00176253
0.00176256
0.0017626
0.00176271
0.0017628
0.00176302
0.00176317
0.00176351
0.00176371
0.00176417
0.00176441
0.00176495
0.00176517
0.00176574
0.00176579
0.00176617
0.00176576
0.0017655
0.00176388
0.0017626
0.00175934
0.00175746
0.00175383
0.00175515
0.00175822
0.00177405
0.00189793
0.00188192
0.00187949
0.00187868
0.00188273
0.00188485
0.00188833
0.0018897
0.00189139
0.00189166
0.00189207
0.00189165
0.00189159
0.00189097
0.00189072
0.00189013
0.00188986
0.00188936
0.00188912
0.00188876
0.00188863
0.00188843
0.00188838
0.00188831
0.00188832
0.00188835
0.00188839
0.00188851
0.0018886
0.00188884
0.00188899
0.00188934
0.00188955
0.00189003
0.00189028
0.00189084
0.00189107
0.00189167
0.0018917
0.0018921
0.00189165
0.00189134
0.00188959
0.00188817
0.00188464
0.00188247
0.00187836
0.00187913
0.00188149
0.00189743
0.0020293
0.00201323
0.00201157
0.00201142
0.00201596
0.00201838
0.00202215
0.00202368
0.0020255
0.00202581
0.00202626
0.00202583
0.00202578
0.00202513
0.00202487
0.00202426
0.00202398
0.00202346
0.00202321
0.00202283
0.00202269
0.00202249
0.00202244
0.00202236
0.00202237
0.0020224
0.00202245
0.00202258
0.00202267
0.00202291
0.00202307
0.00202344
0.00202366
0.00202416
0.00202442
0.00202501
0.00202524
0.00202586
0.00202589
0.00202629
0.00202581
0.00202544
0.00202357
0.00202199
0.00201817
0.00201569
0.00201109
0.00201119
0.00201278
0.00202877
0.0021691
0.00215303
0.0021522
0.00215284
0.00215788
0.00216063
0.00216471
0.00216641
0.00216835
0.00216872
0.00216921
0.00216877
0.00216873
0.00216805
0.00216779
0.00216715
0.00216685
0.00216631
0.00216605
0.00216566
0.00216551
0.0021653
0.00216525
0.00216517
0.00216518
0.00216521
0.00216526
0.0021654
0.00216549
0.00216575
0.00216591
0.0021663
0.00216653
0.00216705
0.00216732
0.00216793
0.00216817
0.00216882
0.00216884
0.00216924
0.00216872
0.0021683
0.00216629
0.00216454
0.00216041
0.0021576
0.0021525
0.0021518
0.00215255
0.00216855
0.00231783
0.00230182
0.00230189
0.00230346
0.002309
0.00231212
0.00231652
0.00231839
0.00232047
0.0023209
0.00232143
0.00232098
0.00232095
0.00232024
0.00231997
0.0023193
0.002319
0.00231843
0.00231816
0.00231774
0.0023176
0.00231737
0.00231732
0.00231724
0.00231726
0.00231729
0.00231734
0.00231748
0.00231758
0.00231785
0.00231802
0.00231842
0.00231866
0.00231921
0.00231949
0.00232013
0.00232037
0.00232106
0.00232106
0.00232146
0.0023209
0.00232042
0.00231827
0.00231634
0.00231189
0.00230871
0.0023031
0.00230147
0.00230132
0.00231726
0.00247602
0.00246011
0.00246114
0.00246381
0.00246987
0.00247336
0.00247811
0.00248017
0.00248239
0.00248288
0.00248345
0.002483
0.00248298
0.00248224
0.00248196
0.00248127
0.00248095
0.00248035
0.00248007
0.00247964
0.00247948
0.00247925
0.0024792
0.00247912
0.00247914
0.00247917
0.00247922
0.00247937
0.00247947
0.00247975
0.00247993
0.00248035
0.0024806
0.00248117
0.00248146
0.00248213
0.00248238
0.0024831
0.00248309
0.00248349
0.00248289
0.00248234
0.00248005
0.00247793
0.00247313
0.00246956
0.00246344
0.00246071
0.00245959
0.00247542
0.00264421
0.00262846
0.0026305
0.00262844
0.00263503
0.00263891
0.00264402
0.00264628
0.00264865
0.00264922
0.00264983
0.00264938
0.00264938
0.00264859
0.00264831
0.00264759
0.00264726
0.00264664
0.00264634
0.00264589
0.00264574
0.00264549
0.00264544
0.00264536
0.00264538
0.00264541
0.00264547
0.00264562
0.00264573
0.00264602
0.0026462
0.00264665
0.0026469
0.0026475
0.0026478
0.0026485
0.00264875
0.0026495
0.00264948
0.00264988
0.00264922
0.00264861
0.00264616
0.00264384
0.00263867
0.00263471
0.00262805
0.00263005
0.00262791
0.00264358
0.00281688
0.00280116
0.00280436
0.00280321
0.00281099
0.00281561
0.00282145
0.00282406
0.00282673
0.0028274
0.00282812
0.00282766
0.00282769
0.00282685
0.00282657
0.00282579
0.00282545
0.00282478
0.00282447
0.00282398
0.00282382
0.00282356
0.0028235
0.00282341
0.00282344
0.00282347
0.00282353
0.0028237
0.00282381
0.00282413
0.00282432
0.0028248
0.00282507
0.00282571
0.00282603
0.00282677
0.00282702
0.00282783
0.00282778
0.00282818
0.00282742
0.00282669
0.00282394
0.00282126
0.00281537
0.00281067
0.00280281
0.00280389
0.00280059
0.00281623
0.00300604
0.00299042
0.00299505
0.00299497
0.00300361
0.00300879
0.00301505
0.0030179
0.00302075
0.00302149
0.00302226
0.00302181
0.00302185
0.00302097
0.00302068
0.00301987
0.00301952
0.00301882
0.00301849
0.00301798
0.00301781
0.00301754
0.00301748
0.00301739
0.00301742
0.00301746
0.00301752
0.0030177
0.00301781
0.00301814
0.00301834
0.00301884
0.00301912
0.0030198
0.00302012
0.0030209
0.00302116
0.003022
0.00302193
0.00302234
0.00302152
0.00302071
0.00301779
0.00301486
0.00300854
0.00300327
0.00299455
0.00299456
0.00298982
0.00300535
0.00320724
0.00319198
0.00319803
0.00319898
0.00320836
0.00321409
0.0032208
0.00322391
0.00322693
0.00322776
0.00322859
0.00322814
0.00322819
0.00322727
0.00322698
0.00322613
0.00322576
0.00322503
0.00322469
0.00322415
0.00322398
0.00322369
0.00322364
0.00322354
0.00322357
0.00322362
0.00322368
0.00322386
0.00322398
0.00322432
0.00322454
0.00322506
0.00322535
0.00322606
0.0032264
0.00322721
0.00322748
0.00322835
0.00322828
0.00322868
0.0032278
0.0032269
0.0032238
0.0032206
0.00321384
0.00320801
0.00319854
0.00319751
0.00319135
0.00320653
0.00342084
0.00340605
0.00341362
0.00341566
0.00342587
0.0034322
0.00343937
0.00344276
0.00344597
0.00344689
0.00344777
0.00344733
0.00344738
0.00344643
0.00344612
0.00344524
0.00344485
0.00344409
0.00344373
0.00344317
0.00344299
0.00344269
0.00344264
0.00344254
0.00344257
0.00344262
0.00344268
0.00344288
0.003443
0.00344335
0.00344358
0.00344413
0.00344443
0.00344517
0.00344552
0.00344637
0.00344665
0.00344756
0.00344748
0.00344788
0.00344693
0.00344594
0.00344264
0.00343917
0.00343193
0.00342551
0.00341521
0.00341308
0.00340539
0.00342011
0.00363994
0.00362548
0.0036347
0.00363782
0.00364895
0.00365588
0.00366356
0.00366723
0.00367065
0.00367166
0.00367261
0.00367217
0.00367224
0.00367124
0.00367093
0.00367001
0.00366961
0.00366882
0.00366844
0.00366786
0.00366767
0.00366736
0.0036673
0.0036672
0.00366724
0.00366729
0.00366735
0.00366756
0.00366768
0.00366805
0.00366829
0.00366886
0.00366918
0.00366994
0.00367031
0.0036712
0.00367148
0.00367243
0.00367233
0.00367273
0.00367172
0.00367063
0.00366712
0.00366335
0.00365561
0.00364859
0.00363735
0.00363414
0.0036248
0.00363918
0.00387189
0.00385784
0.00386885
0.0038731
0.00388525
0.00389283
0.00390102
0.003905
0.00390865
0.00390978
0.00391089
0.00391045
0.00391057
0.00390951
0.0039092
0.00390821
0.0039078
0.00390694
0.00390654
0.0039059
0.00390571
0.00390537
0.00390532
0.0039052
0.00390524
0.0039053
0.00390537
0.00390559
0.00390572
0.00390612
0.00390637
0.00390699
0.00390732
0.00390816
0.00390854
0.00390949
0.00390977
0.00391078
0.00391063
0.00391102
0.00390984
0.00390863
0.00390489
0.00390082
0.00389255
0.00388487
0.00387261
0.00386827
0.00385713
0.0038711
0.00412503
0.0041114
0.00412435
0.00412996
0.00414342
0.00415186
0.00416072
0.0041651
0.00416903
0.00417029
0.00417149
0.00417107
0.0041712
0.00417009
0.00416977
0.00416873
0.0041683
0.0041674
0.00416697
0.0041663
0.0041661
0.00416574
0.00416569
0.00416557
0.00416561
0.00416567
0.00416574
0.00416598
0.00416611
0.00416654
0.0041668
0.00416746
0.0041678
0.00416868
0.00416908
0.00417008
0.00417037
0.00417143
0.00417126
0.00417164
0.00417036
0.00416902
0.00416499
0.00416052
0.00415157
0.00414302
0.00412945
0.00412373
0.00411066
0.00412419
0.00439408
0.00438136
0.00439633
0.00440333
0.00441796
0.0044272
0.00443662
0.00444137
0.00444551
0.0044469
0.00444816
0.00444775
0.00444789
0.00444673
0.0044464
0.00444532
0.00444487
0.00444393
0.00444347
0.00444277
0.00444256
0.00444219
0.00444214
0.00444202
0.00444206
0.00444213
0.0044422
0.00444246
0.00444258
0.00444303
0.0044433
0.00444399
0.00444435
0.00444527
0.00444569
0.00444674
0.00444704
0.00444814
0.00444796
0.00444833
0.00444698
0.00444551
0.00444125
0.00443642
0.00442691
0.00441755
0.0044028
0.00439569
0.00438059
0.00439321
0.00466979
0.00465782
0.00467501
0.00468336
0.00469928
0.00470934
0.00471936
0.00472448
0.00472886
0.00473037
0.00473172
0.00473131
0.00473147
0.00473026
0.00472992
0.00472879
0.00472832
0.00472735
0.00472687
0.00472614
0.00472592
0.00472553
0.00472548
0.00472535
0.00472541
0.00472547
0.00472555
0.00472582
0.00472594
0.00472641
0.00472669
0.00472741
0.00472779
0.00472875
0.00472919
0.00473028
0.00473059
0.00473173
0.00473154
0.0047319
0.00473046
0.00472886
0.00472437
0.00471915
0.00470904
0.00469886
0.00468281
0.00467434
0.00465701
0.00466889
0.00496303
0.00495073
0.00497047
0.00498052
0.00499854
0.00500991
0.005021
0.00502672
0.00503153
0.00503324
0.00503474
0.00503433
0.00503453
0.00503324
0.00503289
0.00503168
0.00503119
0.00503014
0.00502963
0.00502884
0.00502861
0.00502819
0.00502813
0.005028
0.00502806
0.00502812
0.00502821
0.0050285
0.00502862
0.00502912
0.00502942
0.0050302
0.0050306
0.00503164
0.00503209
0.00503327
0.00503358
0.0050348
0.00503457
0.00503493
0.00503333
0.00503152
0.00502659
0.00502076
0.00500957
0.00499807
0.0049799
0.00496972
0.00494983
0.00496205
0.00527111
0.00525971
0.00528201
0.00529359
0.00531312
0.00532546
0.00533723
0.00534338
0.00534846
0.00535031
0.00535189
0.00535149
0.00535171
0.00535037
0.00535002
0.00534875
0.00534824
0.00534715
0.00534661
0.00534579
0.00534555
0.00534511
0.00534506
0.00534492
0.00534498
0.00534505
0.00534514
0.00534545
0.00534556
0.00534609
0.0053464
0.00534722
0.00534763
0.00534872
0.00534919
0.00535042
0.00535074
0.00535201
0.00535175
0.00535211
0.00535041
0.00534845
0.00534325
0.00533699
0.00532511
0.00531264
0.00529295
0.00528123
0.00525878
0.00527009
0.00559653
0.00558613
0.00561117
0.00562437
0.0056455
0.00565887
0.00567135
0.00567795
0.00568332
0.00568531
0.00568699
0.0056866
0.00568684
0.00568544
0.00568507
0.00568375
0.00568323
0.0056821
0.00568152
0.00568067
0.00568043
0.00567997
0.00567992
0.00567977
0.00567984
0.00567992
0.00568001
0.00568033
0.00568044
0.005681
0.00568132
0.00568218
0.00568261
0.00568374
0.00568423
0.00568551
0.00568584
0.00568716
0.00568689
0.00568724
0.00568543
0.00568333
0.00567784
0.00567113
0.00565852
0.00564502
0.00562373
0.00561038
0.00558517
0.00559547
0.00603523
0.00603435
0.0060341
0.00603362
0.00603357
0.00603342
0.0060335
0.00603358
0.00603367
0.00603401
0.00603411
0.0060347
0.00603504
0.00603593
0.00603638
0.00603756
0.00603807
0.00603941
0.00603975
0.00604112
0.00604082
0.00604117
0.00603925
0.006037
0.00603123
0.00602403
0.00601067
0.00599607
0.00597308
0.00595801
0.00592987
0.00593904
0.00640747
0.00640809
0.00640844
0.00640938
0.00640984
0.00641107
0.0064116
0.006413
0.00641335
0.00641477
0.00641446
0.0064148
0.00641277
0.00641036
0.00640429
0.00639658
0.00638245
0.00636668
0.0063419
0.00632501
0.00629374
0.00630166
0.00680689
0.00680432
0.00679795
0.00678971
0.00677477
0.00675777
0.00673111
0.00671228
0.0066777
0.00668422
)
;

boundaryField
{
    fuel
    {
        type            fixedValue;
        value           nonuniform 0();
    }
    wall
    {
        type            zeroGradient;
    }
    outlet
    {
        type            zeroGradient;
    }
    frontAndBack
    {
        type            empty;
    }
    procBoundary0to1
    {
        type            processor;
        value           nonuniform List<scalar> 
50
(
0.000400416
0.000393015
0.000386732
0.000383527
0.000382367
0.000381824
0.000382124
0.000382091
0.000382313
0.000382201
0.000382217
0.000382014
0.000381922
0.000381703
0.000381581
0.000381384
0.000381272
0.000381111
0.000381022
0.000380909
0.000380852
0.000380785
0.000380758
0.000380729
0.000380724
0.00038073
0.000380745
0.000380784
0.00038082
0.000380893
0.000380954
0.000381066
0.000381151
0.000381306
0.000381412
0.000381603
0.000381718
0.00038193
0.000382014
0.000382207
0.000382182
0.000382283
0.000382048
0.000382068
0.000381755
0.000382283
0.00038343
0.00038662
0.000392884
0.000400271
)
;
    }
    procBoundary0to2
    {
        type            processor;
        value           nonuniform List<scalar> 
53
(
0.0059402
0.0059309
0.00595887
0.00597378
0.00599662
0.00601107
0.0060243
0.00603138
0.00603703
0.00603918
0.00604094
0.00604056
0.00604082
0.00603937
0.00603899
0.00603761
0.00603707
0.00603588
0.00603588
0.0064087
0.00640777
0.00640751
0.00640702
0.00640697
0.00640681
0.00640689
0.00640698
0.00640707
0.00640742
0.00640742
0.00680151
0.00680215
0.0068025
0.00680348
0.00680395
0.00680524
0.00680578
0.00680725
0.0068076
0.00680908
0.00680874
0.00680906
0.00680906
0.00722265
0.00721989
0.00721319
0.0072044
0.00718861
0.00717031
0.00714167
0.00712081
0.00708269
0.00708766
)
;
    }
}


// ************************************************************************* //
