/*--------------------------------*- C++ -*----------------------------------*\
| =========                 |                                                 |
| \\      /  F ield         | OpenFOAM: The Open Source CFD Toolbox           |
|  \\    /   O peration     | Version:  dev                                   |
|   \\  /    A nd           | Web:      www.OpenFOAM.org                      |
|    \\/     M anipulation  |                                                 |
\*---------------------------------------------------------------------------*/
FoamFile
{
    version     2.0;
    format      ascii;
    class       volScalarField;
    location    "0.035";
    object      naphthyne;
}
// * * * * * * * * * * * * * * * * * * * * * * * * * * * * * * * * * * * * * //

dimensions      [0 0 0 0 0 0 0];

internalField   nonuniform List<scalar> 
250
(
9.20247e-10
9.20703e-10
9.20255e-10
9.23633e-10
9.25363e-10
9.55403e-10
1.03312e-09
1.58646e-09
4.79391e-09
4.11753e-08
8.92714e-10
8.92897e-10
8.92902e-10
8.95594e-10
8.9811e-10
9.2419e-10
9.99443e-10
1.4938e-09
4.22836e-09
3.41678e-08
2.25102e-08
3.78266e-09
1.41111e-09
9.80418e-10
9.04126e-10
8.8316e-10
8.79441e-10
8.77732e-10
8.77139e-10
8.77489e-10
8.77426e-10
8.77322e-10
8.77842e-10
8.79867e-10
8.83224e-10
9.05608e-10
9.79034e-10
1.41895e-09
3.74592e-09
2.78982e-08
1.87632e-08
3.37119e-09
1.35601e-09
9.72242e-10
8.98582e-10
8.8017e-10
8.75816e-10
8.74544e-10
8.73409e-10
8.74005e-10
8.73957e-10
8.73565e-10
8.74659e-10
8.76056e-10
8.80309e-10
8.99286e-10
9.7133e-10
1.36144e-09
3.34026e-09
2.25568e-08
1.57674e-08
3.02786e-09
1.31743e-09
9.76125e-10
9.04844e-10
8.88681e-10
8.8363e-10
8.82728e-10
8.81003e-10
8.81826e-10
8.81794e-10
8.81138e-10
8.82848e-10
8.83699e-10
8.88889e-10
9.0482e-10
9.75721e-10
1.32061e-09
3.00443e-09
1.86024e-08
1.30668e-08
2.76013e-09
1.29433e-09
9.91268e-10
9.22167e-10
9.07848e-10
9.02057e-10
9.01405e-10
8.99076e-10
9.00063e-10
9.00047e-10
8.99191e-10
9.01526e-10
9.01976e-10
9.08109e-10
9.21489e-10
9.91355e-10
1.29546e-09
2.73948e-09
1.51716e-08
1.1027e-08
2.53135e-09
1.28486e-09
1.01642e-09
9.49083e-10
9.36049e-10
9.29513e-10
9.28914e-10
9.26019e-10
9.27049e-10
9.27044e-10
9.26113e-10
9.29025e-10
9.2931e-10
9.36335e-10
9.47861e-10
1.01663e-09
1.28428e-09
2.51568e-09
1.26923e-08
8.87551e-09
2.34832e-09
1.28618e-09
1.04785e-09
9.82941e-10
9.71269e-10
9.63717e-10
9.62952e-10
9.59218e-10
9.60153e-10
9.60164e-10
9.59282e-10
9.63033e-10
9.63351e-10
9.71526e-10
9.81337e-10
1.04827e-09
1.28432e-09
2.33503e-09
1.02177e-08
7.3309e-09
2.19479e-09
1.29398e-09
1.08146e-09
1.01953e-09
1.00777e-09
9.99626e-10
9.98293e-10
9.94216e-10
9.94774e-10
9.94779e-10
9.94248e-10
9.98332e-10
9.99206e-10
1.00796e-09
1.01776e-09
1.08184e-09
1.2914e-09
2.18287e-09
8.46029e-09
6.06509e-09
2.05558e-09
1.3026e-09
1.1115e-09
1.05321e-09
1.04054e-09
1.03202e-09
1.03002e-09
1.02581e-09
1.02596e-09
1.02595e-09
1.02583e-09
1.03002e-09
1.03159e-09
1.04061e-09
1.05151e-09
1.11157e-09
1.29981e-09
2.04431e-09
6.77737e-09
5.03352e-09
1.93051e-09
1.30505e-09
1.13153e-09
1.07758e-09
1.0633e-09
1.05466e-09
1.05137e-09
1.04731e-09
1.04654e-09
1.04651e-09
1.04728e-09
1.05129e-09
1.05427e-09
1.06321e-09
1.07619e-09
1.13109e-09
1.30282e-09
1.91924e-09
5.603e-09
4.19525e-09
1.80797e-09
1.29515e-09
1.13613e-09
1.08707e-09
1.0708e-09
1.06228e-09
1.05744e-09
1.05375e-09
1.05189e-09
1.05183e-09
1.05367e-09
1.05728e-09
1.06193e-09
1.0705e-09
1.08615e-09
1.13503e-09
1.294e-09
1.79655e-09
4.6231e-09
3.51471e-09
1.68446e-09
1.26895e-09
1.1226e-09
1.07868e-09
1.06049e-09
1.05226e-09
1.04589e-09
1.04267e-09
1.0397e-09
1.0396e-09
1.04254e-09
1.04564e-09
1.05197e-09
1.05998e-09
1.07828e-09
1.12085e-09
1.26907e-09
1.67298e-09
3.82929e-09
1.0112e-09
1.01509e-09
1.01776e-09
1.02547e-09
1.03294e-09
1.05323e-09
1.08987e-09
1.22749e-09
1.5491e-09
3.1897e-09
)
;

boundaryField
{
    fuel
    {
        type            fixedValue;
        value           nonuniform 0();
    }
    wall
    {
        type            zeroGradient;
    }
    outlet
    {
        type            zeroGradient;
    }
    frontAndBack
    {
        type            empty;
    }
    procBoundary0to1
    {
        type            processor;
        value           nonuniform List<scalar> 
21
(
2.96195e-09
1.56036e-09
1.22629e-09
1.09215e-09
1.05322e-09
1.03362e-09
1.02572e-09
1.01808e-09
1.01526e-09
1.01134e-09
1.01134e-09
9.71299e-10
9.75857e-10
9.78308e-10
9.86956e-10
9.94075e-10
1.01536e-09
1.04699e-09
1.17285e-09
1.42866e-09
2.67585e-09
)
;
    }
    procBoundary0to2
    {
        type            processor;
        value           nonuniform List<scalar> 
12
(
9.20317e-10
2.68883e-08
4.27028e-09
1.48348e-09
1.00113e-09
9.21896e-10
8.98115e-10
8.94969e-10
8.92789e-10
8.92678e-10
8.92782e-10
8.92782e-10
)
;
    }
    procBoundary0to3
    {
        type            processor;
        value           nonuniform List<scalar> 10(9.60564e-10 9.61274e-10 9.60431e-10 9.64502e-10 9.65495e-10 9.99771e-10 1.0801e-09 1.71903e-09 5.44879e-09 4.81179e-08);
    }
}


// ************************************************************************* //
