/*--------------------------------*- C++ -*----------------------------------*\
| =========                 |                                                 |
| \\      /  F ield         | OpenFOAM: The Open Source CFD Toolbox           |
|  \\    /   O peration     | Version:  dev                                   |
|   \\  /    A nd           | Web:      www.OpenFOAM.org                      |
|    \\/     M anipulation  |                                                 |
\*---------------------------------------------------------------------------*/
FoamFile
{
    version     2.0;
    format      ascii;
    class       volVectorField;
    location    "0.035";
    object      U;
}
// * * * * * * * * * * * * * * * * * * * * * * * * * * * * * * * * * * * * * //

dimensions      [0 1 -1 0 0 0 0];

internalField   nonuniform List<vector> 
2014
(
(0 0.673654 0.567113)
(0 0.638249 0.582572)
(0 0.63347 0.590036)
(0 0.592709 0.597411)
(0 0.579557 0.59778)
(0 0.541311 0.600061)
(0 0.523321 0.598262)
(0 0.487916 0.599395)
(0 0.466602 0.598135)
(0 0.433517 0.598796)
(0 0.409872 0.59801)
(0 0.378373 0.598453)
(0 0.35319 0.597938)
(0 0.322757 0.598242)
(0 0.296587 0.597898)
(0 0.266859 0.598124)
(0 0.240043 0.597881)
(0 0.210794 0.598052)
(0 0.183551 0.597893)
(0 0.154606 0.598001)
(0 0.127102 0.597901)
(0 0.0983453 0.597965)
(0 0.07069 0.597907)
(0 0.042039 0.59794)
(0 0.0143107 0.597922)
(0 -0.014309 0.597922)
(0 -0.0420373 0.597939)
(0 -0.0706883 0.597907)
(0 -0.098344 0.597964)
(0 -0.127101 0.597901)
(0 -0.154606 0.598)
(0 -0.18355 0.597892)
(0 -0.210794 0.59805)
(0 -0.240045 0.597881)
(0 -0.266859 0.598123)
(0 -0.296589 0.597898)
(0 -0.322759 0.598241)
(0 -0.353193 0.597937)
(0 -0.378375 0.59845)
(0 -0.409875 0.598012)
(0 -0.433522 0.598793)
(0 -0.466605 0.598134)
(0 -0.487921 0.599393)
(0 -0.523327 0.598258)
(0 -0.541316 0.600058)
(0 -0.579563 0.597779)
(0 -0.592715 0.59741)
(0 -0.633477 0.590036)
(0 -0.638257 0.582573)
(0 -0.673661 0.567114)
(0 0.688303 0.565665)
(0 0.652296 0.58127)
(0 0.647221 0.588244)
(0 0.605919 0.595574)
(0 0.592326 0.595825)
(0 0.553386 0.598098)
(0 0.534867 0.596268)
(0 0.4988 0.597392)
(0 0.476903 0.596124)
(0 0.44317 0.596777)
(0 0.418924 0.595986)
(0 0.386787 0.596424)
(0 0.360993 0.595904)
(0 0.329927 0.596208)
(0 0.303142 0.595861)
(0 0.272783 0.596085)
(0 0.245349 0.595842)
(0 0.215472 0.596012)
(0 0.187608 0.595852)
(0 0.158036 0.59596)
(0 0.129911 0.595859)
(0 0.100528 0.595924)
(0 0.072251 0.595865)
(0 0.042974 0.595898)
(0 0.0146236 0.59588)
(0 -0.0146218 0.595881)
(0 -0.0429723 0.595897)
(0 -0.0722494 0.595866)
(0 -0.100527 0.595923)
(0 -0.129911 0.595859)
(0 -0.158036 0.595958)
(0 -0.187608 0.595851)
(0 -0.215471 0.59601)
(0 -0.245351 0.595842)
(0 -0.272784 0.596084)
(0 -0.303144 0.595861)
(0 -0.329929 0.596206)
(0 -0.360996 0.595904)
(0 -0.386788 0.596421)
(0 -0.418927 0.595987)
(0 -0.443176 0.596773)
(0 -0.476906 0.596124)
(0 -0.498805 0.597389)
(0 -0.534873 0.596265)
(0 -0.553392 0.598095)
(0 -0.592332 0.595822)
(0 -0.605927 0.595572)
(0 -0.647228 0.588245)
(0 -0.652304 0.581272)
(0 -0.68831 0.565666)
(0 0.702938 0.564177)
(0 0.666303 0.579953)
(0 0.66093 0.586421)
(0 0.619073 0.593685)
(0 0.60504 0.593829)
(0 0.565408 0.596085)
(0 0.546361 0.594224)
(0 0.509634 0.595338)
(0 0.487157 0.594065)
(0 0.45278 0.594705)
(0 0.427934 0.593912)
(0 0.395161 0.594342)
(0 0.36876 0.593823)
(0 0.337064 0.594122)
(0 0.309665 0.593774)
(0 0.27868 0.593998)
(0 0.250631 0.593753)
(0 0.220128 0.593923)
(0 0.191647 0.593762)
(0 0.161451 0.59387)
(0 0.132707 0.593769)
(0 0.102701 0.593833)
(0 0.0738048 0.593775)
(0 0.0439047 0.593807)
(0 0.0149351 0.59379)
(0 -0.0149333 0.593789)
(0 -0.043903 0.593807)
(0 -0.0738031 0.593774)
(0 -0.1027 0.593832)
(0 -0.132707 0.593768)
(0 -0.161451 0.593869)
(0 -0.191647 0.59376)
(0 -0.220127 0.593921)
(0 -0.250632 0.593752)
(0 -0.278681 0.593998)
(0 -0.309667 0.593774)
(0 -0.337065 0.594121)
(0 -0.368762 0.593822)
(0 -0.395163 0.59434)
(0 -0.427937 0.593914)
(0 -0.452785 0.594703)
(0 -0.48716 0.594062)
(0 -0.50964 0.595337)
(0 -0.546367 0.59422)
(0 -0.565414 0.596082)
(0 -0.605046 0.593828)
(0 -0.619081 0.593684)
(0 -0.660937 0.586419)
(0 -0.666311 0.579952)
(0 -0.702946 0.564178)
(0 0.717558 0.562669)
(0 0.680271 0.57857)
(0 0.67459 0.584554)
(0 0.632169 0.591767)
(0 0.617697 0.59178)
(0 0.577374 0.594023)
(0 0.557802 0.592132)
(0 0.520419 0.593231)
(0 0.497363 0.591951)
(0 0.462345 0.592581)
(0 0.436901 0.591784)
(0 0.403497 0.59221)
(0 0.376489 0.591687)
(0 0.344166 0.591985)
(0 0.316158 0.591635)
(0 0.284549 0.591858)
(0 0.255887 0.591612)
(0 0.224761 0.591781)
(0 0.195667 0.591619)
(0 0.164849 0.591727)
(0 0.13549 0.591626)
(0 0.104863 0.59169)
(0 0.075351 0.591631)
(0 0.044831 0.591664)
(0 0.015245 0.591646)
(0 -0.0152432 0.591646)
(0 -0.0448293 0.591664)
(0 -0.0753494 0.591631)
(0 -0.104862 0.591689)
(0 -0.13549 0.591625)
(0 -0.164849 0.591727)
(0 -0.195666 0.591618)
(0 -0.224761 0.59178)
(0 -0.255888 0.591611)
(0 -0.28455 0.591857)
(0 -0.31616 0.591634)
(0 -0.344168 0.591984)
(0 -0.376492 0.591686)
(0 -0.403499 0.592207)
(0 -0.436905 0.591785)
(0 -0.46235 0.592578)
(0 -0.497367 0.591949)
(0 -0.520426 0.593229)
(0 -0.557808 0.592129)
(0 -0.57738 0.59402)
(0 -0.617704 0.591778)
(0 -0.632177 0.591765)
(0 -0.674598 0.584554)
(0 -0.680279 0.578571)
(0 -0.717566 0.56267)
(0 0.732159 0.561123)
(0 0.694196 0.577157)
(0 0.688204 0.582651)
(0 0.645207 0.589799)
(0 0.630298 0.589684)
(0 0.589284 0.591909)
(0 0.569188 0.589989)
(0 0.531154 0.591075)
(0 0.50752 0.589788)
(0 0.471864 0.590407)
(0 0.445826 0.589607)
(0 0.411791 0.590026)
(0 0.384181 0.589501)
(0 0.351234 0.589797)
(0 0.322618 0.589444)
(0 0.290389 0.589667)
(0 0.261117 0.589419)
(0 0.229372 0.589588)
(0 0.199666 0.589425)
(0 0.16823 0.589534)
(0 0.138259 0.589431)
(0 0.107015 0.589496)
(0 0.0768897 0.589437)
(0 0.0457527 0.589469)
(0 0.0155535 0.589451)
(0 -0.0155516 0.589451)
(0 -0.045751 0.589469)
(0 -0.0768881 0.589437)
(0 -0.107014 0.589495)
(0 -0.138259 0.58943)
(0 -0.16823 0.589533)
(0 -0.199666 0.589424)
(0 -0.229372 0.589587)
(0 -0.261118 0.589418)
(0 -0.29039 0.589666)
(0 -0.322621 0.589444)
(0 -0.351236 0.589795)
(0 -0.384184 0.5895)
(0 -0.411794 0.590023)
(0 -0.445829 0.589608)
(0 -0.47187 0.590404)
(0 -0.507524 0.589786)
(0 -0.53116 0.591073)
(0 -0.569195 0.589986)
(0 -0.58929 0.591906)
(0 -0.630305 0.589683)
(0 -0.645215 0.589798)
(0 -0.688212 0.58265)
(0 -0.694205 0.577158)
(0 -0.732167 0.561125)
(0 0.746739 0.559546)
(0 0.708079 0.575699)
(0 0.70177 0.580705)
(0 0.658185 0.587789)
(0 0.64284 0.58754)
(0 0.601137 0.589745)
(0 0.58052 0.587797)
(0 0.541836 0.588866)
(0 0.517627 0.587574)
(0 0.481336 0.588181)
(0 0.454705 0.587378)
(0 0.420045 0.58779)
(0 0.391835 0.587264)
(0 0.358267 0.587557)
(0 0.329047 0.587202)
(0 0.2962 0.587424)
(0 0.266321 0.587175)
(0 0.23396 0.587343)
(0 0.203646 0.587179)
(0 0.171595 0.587288)
(0 0.141014 0.587185)
(0 0.109156 0.58725)
(0 0.0784207 0.587191)
(0 0.0466698 0.587223)
(0 0.0158603 0.587205)
(0 -0.0158584 0.587205)
(0 -0.0466681 0.587223)
(0 -0.078419 0.58719)
(0 -0.109155 0.587249)
(0 -0.141014 0.587184)
(0 -0.171595 0.587287)
(0 -0.203646 0.587178)
(0 -0.23396 0.587342)
(0 -0.266322 0.587174)
(0 -0.296201 0.587423)
(0 -0.329049 0.587202)
(0 -0.35827 0.587555)
(0 -0.391838 0.587262)
(0 -0.420048 0.587788)
(0 -0.454709 0.587378)
(0 -0.481342 0.588178)
(0 -0.517632 0.587572)
(0 -0.541842 0.588864)
(0 -0.580527 0.587794)
(0 -0.601144 0.589742)
(0 -0.642848 0.587538)
(0 -0.658193 0.587788)
(0 -0.701778 0.580705)
(0 -0.708088 0.5757)
(0 -0.746748 0.559548)
(0 0.761296 0.557934)
(0 0.721917 0.574199)
(0 0.715286 0.57872)
(0 0.671102 0.585734)
(0 0.655323 0.585348)
(0 0.612933 0.58753)
(0 0.591796 0.585555)
(0 0.552465 0.586606)
(0 0.527684 0.585308)
(0 0.490761 0.585903)
(0 0.46354 0.585097)
(0 0.428258 0.585503)
(0 0.39945 0.584974)
(0 0.365264 0.585265)
(0 0.335442 0.584909)
(0 0.301981 0.585129)
(0 0.271498 0.58488)
(0 0.238524 0.585047)
(0 0.207605 0.584882)
(0 0.174942 0.584991)
(0 0.143755 0.584887)
(0 0.111286 0.584952)
(0 0.0799438 0.584893)
(0 0.0475823 0.584925)
(0 0.0161656 0.584907)
(0 -0.0161637 0.584907)
(0 -0.0475805 0.584925)
(0 -0.0799421 0.584893)
(0 -0.111285 0.584951)
(0 -0.143755 0.584886)
(0 -0.174942 0.58499)
(0 -0.207605 0.584881)
(0 -0.238524 0.585046)
(0 -0.271499 0.584879)
(0 -0.301982 0.585128)
(0 -0.335445 0.584908)
(0 -0.365267 0.585264)
(0 -0.399453 0.584973)
(0 -0.428261 0.585501)
(0 -0.463544 0.585098)
(0 -0.490767 0.5859)
(0 -0.527689 0.585306)
(0 -0.552472 0.586604)
(0 -0.591803 0.585552)
(0 -0.61294 0.587527)
(0 -0.65533 0.585346)
(0 -0.671111 0.585733)
(0 -0.715295 0.57872)
(0 -0.721927 0.5742)
(0 -0.761305 0.557936)
(0 0.775826 0.556287)
(0 0.735709 0.572654)
(0 0.728752 0.576693)
(0 0.683958 0.583635)
(0 0.667744 0.583107)
(0 0.624672 0.585263)
(0 0.603015 0.583263)
(0 0.563041 0.584295)
(0 0.537689 0.582992)
(0 0.500138 0.583574)
(0 0.47233 0.582765)
(0 0.436428 0.583165)
(0 0.407025 0.582634)
(0 0.372225 0.582922)
(0 0.341804 0.582564)
(0 0.307732 0.582783)
(0 0.276648 0.582532)
(0 0.243065 0.582699)
(0 0.211543 0.582533)
(0 0.178272 0.582643)
(0 0.146482 0.582538)
(0 0.113405 0.582603)
(0 0.0814589 0.582543)
(0 0.0484899 0.582576)
(0 0.0164693 0.582558)
(0 -0.0164673 0.582557)
(0 -0.0484881 0.582575)
(0 -0.0814572 0.582543)
(0 -0.113404 0.582602)
(0 -0.146482 0.582537)
(0 -0.178272 0.582642)
(0 -0.211543 0.582532)
(0 -0.243065 0.582698)
(0 -0.276649 0.582531)
(0 -0.307733 0.582782)
(0 -0.341807 0.582563)
(0 -0.372228 0.58292)
(0 -0.407029 0.582632)
(0 -0.436431 0.583162)
(0 -0.472334 0.582766)
(0 -0.500144 0.583571)
(0 -0.537695 0.58299)
(0 -0.563048 0.584293)
(0 -0.603023 0.58326)
(0 -0.624679 0.58526)
(0 -0.667752 0.583106)
(0 -0.683967 0.583633)
(0 -0.728761 0.576693)
(0 -0.735719 0.572655)
(0 -0.775835 0.556289)
(0 0.790327 0.554604)
(0 0.749453 0.571063)
(0 0.742166 0.574623)
(0 0.696752 0.581489)
(0 0.680102 0.580818)
(0 0.636352 0.582946)
(0 0.614177 0.580921)
(0 0.573562 0.581932)
(0 0.547642 0.580624)
(0 0.509465 0.581193)
(0 0.481072 0.580381)
(0 0.444554 0.580774)
(0 0.41456 0.580241)
(0 0.379149 0.580527)
(0 0.348132 0.580167)
(0 0.313452 0.580385)
(0 0.28177 0.580133)
(0 0.247581 0.5803)
(0 0.21546 0.580133)
(0 0.181584 0.580242)
(0 0.149194 0.580136)
(0 0.115513 0.580202)
(0 0.0829658 0.580142)
(0 0.0493926 0.580174)
(0 0.0167713 0.580156)
(0 -0.0167693 0.580156)
(0 -0.0493909 0.580174)
(0 -0.0829641 0.580142)
(0 -0.115511 0.580201)
(0 -0.149194 0.580135)
(0 -0.181584 0.580241)
(0 -0.215461 0.580131)
(0 -0.247581 0.580298)
(0 -0.281772 0.580132)
(0 -0.313454 0.580384)
(0 -0.348135 0.580166)
(0 -0.379152 0.580525)
(0 -0.414563 0.580239)
(0 -0.444557 0.580771)
(0 -0.481077 0.580382)
(0 -0.509472 0.58119)
(0 -0.547648 0.580621)
(0 -0.573569 0.581929)
(0 -0.614185 0.580918)
(0 -0.63636 0.582943)
(0 -0.68011 0.580816)
(0 -0.696761 0.581488)
(0 -0.742175 0.574623)
(0 -0.749463 0.571064)
(0 -0.790336 0.554606)
(0 0.804796 0.552884)
(0 0.763147 0.569425)
(0 0.755527 0.57251)
(0 0.709481 0.579298)
(0 0.692396 0.57848)
(0 0.647974 0.580577)
(0 0.625279 0.578528)
(0 0.584027 0.579516)
(0 0.557542 0.578204)
(0 0.518743 0.57876)
(0 0.489768 0.577946)
(0 0.452636 0.578332)
(0 0.422053 0.577797)
(0 0.386035 0.57808)
(0 0.354426 0.577718)
(0 0.319141 0.577935)
(0 0.286864 0.577682)
(0 0.252072 0.577848)
(0 0.219356 0.57768)
(0 0.184878 0.57779)
(0 0.151891 0.577683)
(0 0.117608 0.577749)
(0 0.0844645 0.577689)
(0 0.0502904 0.577721)
(0 0.0170716 0.577703)
(0 -0.0170697 0.577702)
(0 -0.0502887 0.577721)
(0 -0.0844628 0.577688)
(0 -0.117607 0.577748)
(0 -0.151891 0.577682)
(0 -0.184878 0.577789)
(0 -0.219356 0.577679)
(0 -0.252072 0.577847)
(0 -0.286866 0.577681)
(0 -0.319143 0.577934)
(0 -0.354429 0.577717)
(0 -0.386038 0.578078)
(0 -0.422057 0.577795)
(0 -0.45264 0.578329)
(0 -0.489772 0.577946)
(0 -0.518749 0.578756)
(0 -0.557548 0.578202)
(0 -0.584035 0.579514)
(0 -0.625288 0.578525)
(0 -0.647982 0.580574)
(0 -0.692405 0.578478)
(0 -0.709491 0.579296)
(0 -0.755537 0.572509)
(0 -0.763158 0.569426)
(0 -0.804806 0.552885)
(0 0.819232 0.551125)
(0 0.77679 0.56774)
(0 0.768834 0.570352)
(0 0.722146 0.577059)
(0 0.704626 0.576093)
(0 0.659535 0.578157)
(0 0.636322 0.576085)
(0 0.594436 0.577049)
(0 0.567387 0.575733)
(0 0.527969 0.576274)
(0 0.498415 0.575458)
(0 0.460674 0.575837)
(0 0.429505 0.5753)
(0 0.392882 0.575581)
(0 0.360684 0.575217)
(0 0.324798 0.575433)
(0 0.29193 0.575179)
(0 0.256538 0.575345)
(0 0.22323 0.575176)
(0 0.188153 0.575285)
(0 0.154573 0.575178)
(0 0.119693 0.575244)
(0 0.0859547 0.575184)
(0 0.0511831 0.575216)
(0 0.0173703 0.575198)
(0 -0.0173683 0.575197)
(0 -0.0511815 0.575216)
(0 -0.085953 0.575183)
(0 -0.119691 0.575243)
(0 -0.154573 0.575177)
(0 -0.188153 0.575284)
(0 -0.22323 0.575174)
(0 -0.256538 0.575343)
(0 -0.291932 0.575178)
(0 -0.3248 0.575432)
(0 -0.360687 0.575216)
(0 -0.392885 0.575579)
(0 -0.429509 0.575299)
(0 -0.460678 0.575834)
(0 -0.498419 0.575458)
(0 -0.527976 0.576271)
(0 -0.567394 0.57573)
(0 -0.594444 0.577047)
(0 -0.636331 0.576082)
(0 -0.659544 0.578154)
(0 -0.704635 0.576091)
(0 -0.722156 0.577057)
(0 -0.768844 0.570351)
(0 -0.776801 0.567741)
(0 -0.819242 0.551127)
(0 0.83363 0.549327)
(0 0.79038 0.566005)
(0 0.782085 0.568149)
(0 0.734745 0.574773)
(0 0.71679 0.573657)
(0 0.671035 0.575685)
(0 0.647305 0.573591)
(0 0.604786 0.57453)
(0 0.577177 0.573209)
(0 0.537143 0.573737)
(0 0.507013 0.572919)
(0 0.468666 0.57329)
(0 0.436914 0.572752)
(0 0.399691 0.57303)
(0 0.366906 0.572664)
(0 0.330423 0.572879)
(0 0.296967 0.572624)
(0 0.260978 0.572789)
(0 0.227081 0.572619)
(0 0.191409 0.572729)
(0 0.157239 0.572621)
(0 0.121765 0.572687)
(0 0.0874363 0.572626)
(0 0.0520707 0.572659)
(0 0.0176672 0.57264)
(0 -0.0176653 0.57264)
(0 -0.0520691 0.572658)
(0 -0.0874346 0.572626)
(0 -0.121763 0.572686)
(0 -0.157239 0.57262)
(0 -0.191409 0.572728)
(0 -0.227082 0.572618)
(0 -0.260978 0.572788)
(0 -0.296969 0.572623)
(0 -0.330424 0.572878)
(0 -0.366909 0.572663)
(0 -0.399694 0.573028)
(0 -0.436919 0.57275)
(0 -0.46867 0.573287)
(0 -0.507018 0.572919)
(0 -0.53715 0.573733)
(0 -0.577184 0.573207)
(0 -0.604795 0.574528)
(0 -0.647313 0.573588)
(0 -0.671044 0.575682)
(0 -0.716799 0.573655)
(0 -0.734756 0.574771)
(0 -0.782096 0.568149)
(0 -0.790391 0.566006)
(0 -0.833641 0.549329)
(0 0.84799 0.54749)
(0 0.803914 0.564221)
(0 0.795279 0.5659)
(0 0.747277 0.572438)
(0 0.728887 0.571172)
(0 0.682472 0.573161)
(0 0.658225 0.571046)
(0 0.615078 0.571958)
(0 0.586911 0.570634)
(0 0.546265 0.571147)
(0 0.515561 0.570327)
(0 0.476611 0.570692)
(0 0.44428 0.570152)
(0 0.406459 0.570426)
(0 0.373092 0.570059)
(0 0.336014 0.570273)
(0 0.301974 0.570017)
(0 0.265392 0.570182)
(0 0.23091 0.57001)
(0 0.194646 0.57012)
(0 0.15989 0.570012)
(0 0.123824 0.570078)
(0 0.0889092 0.570017)
(0 0.052953 0.570049)
(0 0.0179624 0.570031)
(0 -0.0179605 0.57003)
(0 -0.0529515 0.570049)
(0 -0.0889076 0.570017)
(0 -0.123823 0.570077)
(0 -0.15989 0.570011)
(0 -0.194646 0.570119)
(0 -0.23091 0.570009)
(0 -0.265393 0.57018)
(0 -0.301976 0.570016)
(0 -0.336016 0.570272)
(0 -0.373095 0.570058)
(0 -0.406463 0.570425)
(0 -0.444285 0.57015)
(0 -0.476616 0.570688)
(0 -0.515566 0.570327)
(0 -0.546272 0.571143)
(0 -0.586918 0.570632)
(0 -0.615087 0.571956)
(0 -0.658234 0.571043)
(0 -0.682481 0.573158)
(0 -0.728897 0.57117)
(0 -0.747288 0.572436)
(0 -0.79529 0.5659)
(0 -0.803926 0.564221)
(0 -0.848001 0.547491)
(0 0.862309 0.545611)
(0 0.817392 0.562386)
(0 0.808414 0.563605)
(0 0.759741 0.570053)
(0 0.740917 0.568637)
(0 0.693844 0.570585)
(0 0.669082 0.56845)
(0 0.62531 0.569334)
(0 0.596588 0.568007)
(0 0.555332 0.568504)
(0 0.524058 0.567684)
(0 0.48451 0.56804)
(0 0.451602 0.567499)
(0 0.413187 0.567771)
(0 0.37924 0.567402)
(0 0.341572 0.567615)
(0 0.30695 0.567358)
(0 0.26978 0.567522)
(0 0.234715 0.567349)
(0 0.197863 0.56746)
(0 0.162525 0.567351)
(0 0.125872 0.567417)
(0 0.0903732 0.567355)
(0 0.0538301 0.567388)
(0 0.0182558 0.567369)
(0 -0.0182539 0.567369)
(0 -0.0538285 0.567387)
(0 -0.0903716 0.567355)
(0 -0.125871 0.567416)
(0 -0.162525 0.567349)
(0 -0.197864 0.567458)
(0 -0.234716 0.567348)
(0 -0.26978 0.56752)
(0 -0.306953 0.567356)
(0 -0.341574 0.567614)
(0 -0.379244 0.567401)
(0 -0.413191 0.567769)
(0 -0.451607 0.567497)
(0 -0.484514 0.568037)
(0 -0.524064 0.567683)
(0 -0.55534 0.568501)
(0 -0.596595 0.568005)
(0 -0.625319 0.569332)
(0 -0.669092 0.568447)
(0 -0.693854 0.570582)
(0 -0.740927 0.568635)
(0 -0.759752 0.570052)
(0 -0.808425 0.563604)
(0 -0.817404 0.562386)
(0 -0.86232 0.545612)
(0 0.876583 0.54369)
(0 0.83081 0.560498)
(0 0.821489 0.561261)
(0 0.772136 0.567619)
(0 0.752879 0.566052)
(0 0.705152 0.567957)
(0 0.679876 0.565802)
(0 0.635481 0.566658)
(0 0.606206 0.565328)
(0 0.564345 0.565809)
(0 0.532504 0.564987)
(0 0.49236 0.565336)
(0 0.458879 0.564793)
(0 0.419874 0.565063)
(0 0.385351 0.564692)
(0 0.347096 0.564904)
(0 0.311896 0.564646)
(0 0.27414 0.564809)
(0 0.238498 0.564636)
(0 0.201061 0.564746)
(0 0.165143 0.564637)
(0 0.127907 0.564703)
(0 0.0918281 0.564641)
(0 0.0547016 0.564674)
(0 0.0185474 0.564655)
(0 -0.0185455 0.564654)
(0 -0.0547002 0.564673)
(0 -0.0918266 0.564641)
(0 -0.127906 0.564702)
(0 -0.165143 0.564635)
(0 -0.201062 0.564745)
(0 -0.238498 0.564635)
(0 -0.274141 0.564808)
(0 -0.311899 0.564644)
(0 -0.347098 0.564903)
(0 -0.385355 0.564691)
(0 -0.419878 0.565061)
(0 -0.458884 0.564792)
(0 -0.492365 0.565333)
(0 -0.53251 0.564987)
(0 -0.564353 0.565806)
(0 -0.606214 0.565325)
(0 -0.63549 0.566655)
(0 -0.679886 0.565799)
(0 -0.705162 0.567954)
(0 -0.752889 0.56605)
(0 -0.772147 0.567617)
(0 -0.821501 0.561261)
(0 -0.830823 0.560499)
(0 -0.876595 0.543691)
(0 0.890811 0.541726)
(0 0.844169 0.558558)
(0 0.834502 0.55887)
(0 0.78446 0.565135)
(0 0.764771 0.563417)
(0 0.716392 0.565276)
(0 0.690604 0.563102)
(0 0.64559 0.563928)
(0 0.615765 0.562596)
(0 0.573303 0.563062)
(0 0.540897 0.562238)
(0 0.500161 0.56258)
(0 0.466111 0.562036)
(0 0.426519 0.562302)
(0 0.391424 0.56193)
(0 0.352585 0.562141)
(0 0.316811 0.561881)
(0 0.278473 0.562045)
(0 0.242256 0.56187)
(0 0.204239 0.56198)
(0 0.167745 0.56187)
(0 0.129929 0.561937)
(0 0.0932739 0.561875)
(0 0.0555677 0.561907)
(0 0.0188371 0.561888)
(0 -0.0188353 0.561888)
(0 -0.0555664 0.561907)
(0 -0.0932724 0.561874)
(0 -0.129927 0.561935)
(0 -0.167745 0.561869)
(0 -0.204239 0.561979)
(0 -0.242257 0.561869)
(0 -0.278474 0.562043)
(0 -0.316814 0.56188)
(0 -0.352587 0.56214)
(0 -0.391428 0.561928)
(0 -0.426523 0.5623)
(0 -0.466116 0.562034)
(0 -0.500166 0.562577)
(0 -0.540903 0.562238)
(0 -0.573311 0.563058)
(0 -0.615774 0.562593)
(0 -0.645599 0.563925)
(0 -0.690615 0.563099)
(0 -0.716403 0.565273)
(0 -0.764782 0.563415)
(0 -0.784472 0.565133)
(0 -0.834514 0.558869)
(0 -0.844181 0.558559)
(0 -0.890823 0.541727)
(0 0.90499 0.539718)
(0 0.857464 0.556565)
(0 0.847452 0.556429)
(0 0.796712 0.562599)
(0 0.776592 0.560732)
(0 0.727565 0.562543)
(0 0.701267 0.560351)
(0 0.655636 0.561145)
(0 0.625264 0.559811)
(0 0.582203 0.560261)
(0 0.549237 0.559437)
(0 0.507912 0.55977)
(0 0.473296 0.559225)
(0 0.433121 0.559488)
(0 0.397457 0.559115)
(0 0.358038 0.559325)
(0 0.321695 0.559064)
(0 0.282778 0.559227)
(0 0.24599 0.559051)
(0 0.207396 0.559162)
(0 0.17033 0.559051)
(0 0.131937 0.559118)
(0 0.0947103 0.559055)
(0 0.0564282 0.559088)
(0 0.019125 0.559068)
(0 -0.0191233 0.559068)
(0 -0.0564269 0.559087)
(0 -0.0947089 0.559055)
(0 -0.131936 0.559116)
(0 -0.170331 0.55905)
(0 -0.207396 0.55916)
(0 -0.245991 0.55905)
(0 -0.28278 0.559225)
(0 -0.321698 0.559063)
(0 -0.358041 0.559323)
(0 -0.397461 0.559113)
(0 -0.433125 0.559486)
(0 -0.473301 0.559223)
(0 -0.507918 0.559767)
(0 -0.549243 0.559436)
(0 -0.582211 0.560257)
(0 -0.625273 0.559809)
(0 -0.655646 0.561143)
(0 -0.701277 0.560347)
(0 -0.727576 0.56254)
(0 -0.776604 0.56073)
(0 -0.796724 0.562597)
(0 -0.847464 0.556429)
(0 -0.857477 0.556565)
(0 -0.905003 0.53972)
(0 0.919118 0.537666)
(0 0.870695 0.554516)
(0 0.860336 0.553939)
(0 0.808891 0.560011)
(0 0.788342 0.557996)
(0 0.738668 0.559756)
(0 0.711861 0.557547)
(0 0.665617 0.558309)
(0 0.634702 0.556974)
(0 0.591046 0.557407)
(0 0.557522 0.556582)
(0 0.515613 0.556908)
(0 0.480434 0.556361)
(0 0.43968 0.556622)
(0 0.40345 0.556247)
(0 0.363456 0.556456)
(0 0.326545 0.556194)
(0 0.287055 0.556356)
(0 0.249699 0.55618)
(0 0.210532 0.55629)
(0 0.172898 0.556179)
(0 0.133933 0.556246)
(0 0.0961372 0.556183)
(0 0.0572829 0.556216)
(0 0.0194109 0.556196)
(0 -0.0194093 0.556196)
(0 -0.0572818 0.556215)
(0 -0.0961358 0.556183)
(0 -0.133932 0.556244)
(0 -0.172899 0.556178)
(0 -0.210533 0.556289)
(0 -0.2497 0.556179)
(0 -0.287056 0.556354)
(0 -0.326549 0.556193)
(0 -0.363459 0.556454)
(0 -0.403455 0.556245)
(0 -0.439684 0.556619)
(0 -0.480439 0.556359)
(0 -0.515619 0.556904)
(0 -0.557528 0.556581)
(0 -0.591054 0.557403)
(0 -0.634711 0.556971)
(0 -0.665627 0.558306)
(0 -0.711872 0.557544)
(0 -0.738679 0.559753)
(0 -0.788354 0.557994)
(0 -0.808904 0.560009)
(0 -0.860349 0.553938)
(0 -0.870708 0.554517)
(0 -0.919131 0.537667)
(0 0.933192 0.535568)
(0 0.883859 0.552412)
(0 0.873154 0.551398)
(0 0.820995 0.557371)
(0 0.800019 0.55521)
(0 0.7497 0.556917)
(0 0.722388 0.554691)
(0 0.675533 0.55542)
(0 0.644077 0.554083)
(0 0.59983 0.554499)
(0 0.565752 0.553674)
(0 0.523262 0.553992)
(0 0.487523 0.553445)
(0 0.446194 0.553702)
(0 0.409403 0.553326)
(0 0.368837 0.553534)
(0 0.331364 0.553271)
(0 0.291303 0.553433)
(0 0.253383 0.553255)
(0 0.213646 0.553366)
(0 0.175449 0.553254)
(0 0.135915 0.553321)
(0 0.0975544 0.553258)
(0 0.0581319 0.55329)
(0 0.019695 0.553271)
(0 -0.0196934 0.55327)
(0 -0.0581308 0.55329)
(0 -0.0975531 0.553258)
(0 -0.135914 0.553319)
(0 -0.175449 0.553252)
(0 -0.213647 0.553364)
(0 -0.253385 0.553254)
(0 -0.291304 0.55343)
(0 -0.331367 0.553269)
(0 -0.36884 0.553532)
(0 -0.409408 0.553324)
(0 -0.446199 0.5537)
(0 -0.487529 0.553443)
(0 -0.523268 0.553989)
(0 -0.565758 0.553673)
(0 -0.599839 0.554495)
(0 -0.644087 0.554081)
(0 -0.675544 0.555417)
(0 -0.722399 0.554687)
(0 -0.749712 0.556913)
(0 -0.800031 0.555208)
(0 -0.821009 0.557369)
(0 -0.873167 0.551397)
(0 -0.883873 0.552413)
(0 -0.933206 0.535569)
(0 0.94721 0.533423)
(0 0.896954 0.550252)
(0 0.885903 0.548806)
(0 0.833024 0.554677)
(0 0.811622 0.552372)
(0 0.76066 0.554023)
(0 0.732844 0.551781)
(0 0.685383 0.552477)
(0 0.653389 0.551139)
(0 0.608554 0.551538)
(0 0.573925 0.550713)
(0 0.530858 0.551023)
(0 0.494565 0.550474)
(0 0.452664 0.550729)
(0 0.415315 0.550351)
(0 0.37418 0.550558)
(0 0.336148 0.550294)
(0 0.295521 0.550456)
(0 0.257042 0.550277)
(0 0.216739 0.550388)
(0 0.177982 0.550275)
(0 0.137883 0.550342)
(0 0.0989618 0.550279)
(0 0.0589749 0.550312)
(0 0.019977 0.550292)
(0 -0.0199755 0.550292)
(0 -0.058974 0.550311)
(0 -0.0989606 0.550279)
(0 -0.137882 0.550341)
(0 -0.177982 0.550274)
(0 -0.216741 0.550386)
(0 -0.257043 0.550276)
(0 -0.295522 0.550453)
(0 -0.336152 0.550293)
(0 -0.374184 0.550556)
(0 -0.415321 0.55035)
(0 -0.452669 0.550726)
(0 -0.494571 0.550473)
(0 -0.530865 0.551019)
(0 -0.573932 0.550712)
(0 -0.608563 0.551534)
(0 -0.653399 0.551137)
(0 -0.685394 0.552473)
(0 -0.732856 0.551778)
(0 -0.760673 0.55402)
(0 -0.811635 0.552369)
(0 -0.833038 0.554675)
(0 -0.885917 0.548805)
(0 -0.896969 0.550252)
(0 -0.947224 0.533424)
(0 0.961168 0.531231)
(0 0.909979 0.548034)
(0 0.898581 0.546162)
(0 0.844975 0.55193)
(0 0.823149 0.549482)
(0 0.771547 0.551076)
(0 0.743229 0.548819)
(0 0.695164 0.549479)
(0 0.662636 0.548142)
(0 0.617217 0.548523)
(0 0.582041 0.547698)
(0 0.538401 0.548)
(0 0.501556 0.547451)
(0 0.459088 0.547702)
(0 0.421186 0.547323)
(0 0.379486 0.547529)
(0 0.340899 0.547264)
(0 0.299709 0.547425)
(0 0.260675 0.547246)
(0 0.219811 0.547357)
(0 0.180497 0.547243)
(0 0.139837 0.547311)
(0 0.100359 0.547247)
(0 0.0598119 0.54728)
(0 0.020257 0.54726)
(0 -0.0202557 0.547259)
(0 -0.0598112 0.547279)
(0 -0.100358 0.547247)
(0 -0.139837 0.547309)
(0 -0.180498 0.547242)
(0 -0.219812 0.547355)
(0 -0.260676 0.547245)
(0 -0.299711 0.547423)
(0 -0.340903 0.547263)
(0 -0.37949 0.547527)
(0 -0.421191 0.547322)
(0 -0.459094 0.5477)
(0 -0.501563 0.547449)
(0 -0.538409 0.547996)
(0 -0.582049 0.547697)
(0 -0.617227 0.548518)
(0 -0.662647 0.548139)
(0 -0.695176 0.549476)
(0 -0.743242 0.548816)
(0 -0.77156 0.551072)
(0 -0.823162 0.54948)
(0 -0.84499 0.551928)
(0 -0.898596 0.546161)
(0 -0.909994 0.548035)
(0 -0.961183 0.531232)
(0 0.975066 0.52899)
(0 0.922931 0.545758)
(0 0.911187 0.543465)
(0 0.856848 0.549128)
(0 0.8346 0.54654)
(0 0.782359 0.548074)
(0 0.753542 0.545804)
(0 0.704877 0.546428)
(0 0.671818 0.545091)
(0 0.625819 0.545454)
(0 0.590099 0.544629)
(0 0.54589 0.544923)
(0 0.508497 0.544373)
(0 0.465465 0.544622)
(0 0.427013 0.544242)
(0 0.384754 0.544447)
(0 0.345616 0.544181)
(0 0.303867 0.544341)
(0 0.264281 0.544161)
(0 0.222859 0.544272)
(0 0.182993 0.544158)
(0 0.141777 0.544225)
(0 0.101746 0.544161)
(0 0.0606428 0.544194)
(0 0.020535 0.544174)
(0 -0.0205338 0.544174)
(0 -0.0606422 0.544193)
(0 -0.101745 0.544161)
(0 -0.141777 0.544223)
(0 -0.182994 0.544156)
(0 -0.222861 0.54427)
(0 -0.264283 0.54416)
(0 -0.303869 0.544339)
(0 -0.34562 0.544179)
(0 -0.384758 0.544444)
(0 -0.427019 0.54424)
(0 -0.465471 0.544619)
(0 -0.508504 0.544371)
(0 -0.545898 0.544919)
(0 -0.590107 0.544628)
(0 -0.625829 0.545449)
(0 -0.671828 0.545088)
(0 -0.704889 0.546424)
(0 -0.753555 0.5458)
(0 -0.782373 0.54807)
(0 -0.834614 0.546538)
(0 -0.856863 0.549126)
(0 -0.911202 0.543464)
(0 -0.922946 0.545759)
(0 -0.975081 0.528991)
(0 0.988899 0.526699)
(0 0.935808 0.543423)
(0 0.923719 0.540715)
(0 0.868641 0.546271)
(0 0.845972 0.543547)
(0 0.793095 0.545017)
(0 0.763782 0.542734)
(0 0.714519 0.543322)
(0 0.680932 0.541986)
(0 0.634357 0.54233)
(0 0.598098 0.541506)
(0 0.553324 0.541792)
(0 0.515387 0.541242)
(0 0.471796 0.541487)
(0 0.432798 0.541106)
(0 0.389982 0.54131)
(0 0.350297 0.541043)
(0 0.307993 0.541203)
(0 0.26786 0.541022)
(0 0.225885 0.541133)
(0 0.185471 0.541018)
(0 0.143702 0.541086)
(0 0.103123 0.541022)
(0 0.0614675 0.541054)
(0 0.020811 0.541034)
(0 -0.0208098 0.541034)
(0 -0.0614671 0.541053)
(0 -0.103122 0.541022)
(0 -0.143702 0.541084)
(0 -0.185472 0.541017)
(0 -0.225887 0.541131)
(0 -0.267862 0.541021)
(0 -0.307996 0.5412)
(0 -0.350301 0.541041)
(0 -0.389986 0.541308)
(0 -0.432804 0.541104)
(0 -0.471802 0.541484)
(0 -0.515394 0.54124)
(0 -0.553332 0.541788)
(0 -0.598106 0.541505)
(0 -0.634368 0.542326)
(0 -0.680943 0.541983)
(0 -0.714532 0.543318)
(0 -0.763795 0.542731)
(0 -0.793109 0.545014)
(0 -0.845987 0.543544)
(0 -0.868656 0.546268)
(0 -0.923735 0.540714)
(0 -0.935824 0.543424)
(0 -0.988915 0.526701)
(0 1.00267 0.524359)
(0 0.948608 0.541028)
(0 0.936175 0.53791)
(0 0.880352 0.543358)
(0 0.857265 0.5405)
(0 0.803753 0.541906)
(0 0.773946 0.539611)
(0 0.724091 0.54016)
(0 0.689978 0.538826)
(0 0.642832 0.539152)
(0 0.606036 0.538329)
(0 0.560701 0.538607)
(0 0.522224 0.538056)
(0 0.478078 0.538298)
(0 0.438538 0.537916)
(0 0.39517 0.538119)
(0 0.354942 0.537851)
(0 0.312089 0.538011)
(0 0.271412 0.537829)
(0 0.228888 0.53794)
(0 0.18793 0.537824)
(0 0.145613 0.537892)
(0 0.104489 0.537828)
(0 0.0622859 0.53786)
(0 0.0210848 0.53784)
(0 -0.0210838 0.53784)
(0 -0.0622856 0.53786)
(0 -0.104489 0.537828)
(0 -0.145613 0.53789)
(0 -0.187932 0.537823)
(0 -0.22889 0.537938)
(0 -0.271414 0.537828)
(0 -0.312091 0.538008)
(0 -0.354947 0.537849)
(0 -0.395174 0.538117)
(0 -0.438544 0.537914)
(0 -0.478084 0.538295)
(0 -0.522231 0.538054)
(0 -0.560709 0.538603)
(0 -0.606044 0.538328)
(0 -0.642842 0.539147)
(0 -0.68999 0.538823)
(0 -0.724103 0.540157)
(0 -0.77396 0.539608)
(0 -0.803768 0.541902)
(0 -0.85728 0.540497)
(0 -0.880368 0.543355)
(0 -0.936191 0.537909)
(0 -0.948624 0.541028)
(0 -1.00268 0.52436)
(0 1.01636 0.521967)
(0 0.961328 0.538572)
(0 0.948552 0.535051)
(0 0.89198 0.540388)
(0 0.868477 0.5374)
(0 0.814333 0.538739)
(0 0.784034 0.536434)
(0 0.733589 0.536944)
(0 0.698955 0.535612)
(0 0.651241 0.535919)
(0 0.613913 0.535098)
(0 0.568021 0.535367)
(0 0.529008 0.534816)
(0 0.484311 0.535055)
(0 0.444233 0.534672)
(0 0.400318 0.534874)
(0 0.359551 0.534605)
(0 0.316152 0.534764)
(0 0.274936 0.534581)
(0 0.231867 0.534692)
(0 0.19037 0.534577)
(0 0.147509 0.534644)
(0 0.105845 0.53458)
(0 0.0630978 0.534612)
(0 0.0213564 0.534592)
(0 -0.0213556 0.534592)
(0 -0.0630978 0.534611)
(0 -0.105845 0.53458)
(0 -0.147509 0.534642)
(0 -0.190372 0.534575)
(0 -0.23187 0.53469)
(0 -0.274939 0.53458)
(0 -0.316155 0.534761)
(0 -0.359557 0.534603)
(0 -0.400322 0.534871)
(0 -0.44424 0.53467)
(0 -0.484318 0.535052)
(0 -0.529016 0.534814)
(0 -0.56803 0.535363)
(0 -0.613922 0.535096)
(0 -0.651252 0.535914)
(0 -0.698968 0.535609)
(0 -0.733602 0.53694)
(0 -0.784049 0.53643)
(0 -0.814347 0.538735)
(0 -0.868493 0.537397)
(0 -0.891997 0.540386)
(0 -0.948569 0.53505)
(0 -0.961345 0.538572)
(0 -1.01638 0.521968)
(0 1.02999 0.519523)
(0 0.973967 0.536054)
(0 0.96085 0.532137)
(0 0.903524 0.537364)
(0 0.879607 0.534248)
(0 0.824831 0.535518)
(0 0.794045 0.533204)
(0 0.743013 0.533674)
(0 0.707862 0.532345)
(0 0.659584 0.532633)
(0 0.621727 0.531813)
(0 0.575283 0.532074)
(0 0.535738 0.531523)
(0 0.490494 0.531759)
(0 0.449883 0.531375)
(0 0.405424 0.531576)
(0 0.364124 0.531306)
(0 0.320182 0.531465)
(0 0.278432 0.531281)
(0 0.234823 0.531392)
(0 0.19279 0.531276)
(0 0.149389 0.531344)
(0 0.10719 0.531279)
(0 0.0639032 0.531312)
(0 0.0216259 0.531291)
(0 -0.0216253 0.531291)
(0 -0.0639033 0.531311)
(0 -0.107189 0.531279)
(0 -0.149389 0.531342)
(0 -0.192792 0.531275)
(0 -0.234825 0.53139)
(0 -0.278435 0.53128)
(0 -0.320185 0.531462)
(0 -0.364129 0.531304)
(0 -0.405429 0.531573)
(0 -0.44989 0.531373)
(0 -0.490501 0.531756)
(0 -0.535746 0.531521)
(0 -0.575292 0.53207)
(0 -0.621736 0.531812)
(0 -0.659595 0.532628)
(0 -0.707875 0.532342)
(0 -0.743027 0.533671)
(0 -0.79406 0.5332)
(0 -0.824847 0.535514)
(0 -0.879623 0.534246)
(0 -0.90354 0.537362)
(0 -0.960867 0.532136)
(0 -0.973985 0.536055)
(0 -1.03001 0.519524)
(0 1.04354 0.517027)
(0 0.986523 0.533476)