/*--------------------------------*- C++ -*----------------------------------*\
| =========                 |                                                 |
| \\      /  F ield         | OpenFOAM: The Open Source CFD Toolbox           |
|  \\    /   O peration     | Version:  dev                                   |
|   \\  /    A nd           | Web:      www.OpenFOAM.org                      |
|    \\/     M anipulation  |                                                 |
\*---------------------------------------------------------------------------*/
FoamFile
{
    version     2.0;
    format      ascii;
    class       volScalarField;
    location    "0.055";
    object      A1C2H*;
}
// * * * * * * * * * * * * * * * * * * * * * * * * * * * * * * * * * * * * * //

dimensions      [0 0 0 0 0 0 0];

internalField   nonuniform List<scalar> 
250
(
3.14471e-09
3.14919e-09
3.14123e-09
3.15338e-09
3.1716e-09
3.21359e-09
3.45961e-09
4.05793e-09
7.15745e-09
6.03694e-09
2.92991e-09
2.93392e-09
2.92684e-09
2.93812e-09
2.95491e-09
2.99374e-09
3.21637e-09
3.72596e-09
6.26594e-09
5.83577e-09
5.93544e-09
5.44858e-09
3.47766e-09
3.02606e-09
2.82427e-09
2.76399e-09
2.75989e-09
2.7348e-09
2.75131e-09
2.73802e-09
2.74127e-09
2.74494e-09
2.7386e-09
2.74911e-09
2.76456e-09
2.80035e-09
3.00115e-09
3.43835e-09
5.52738e-09
5.56955e-09
5.71627e-09
4.89557e-09
3.22949e-09
2.83026e-09
2.64896e-09
2.59415e-09
2.59034e-09
2.56715e-09
2.58245e-09
2.56997e-09
2.57298e-09
2.57643e-09
2.57069e-09
2.58056e-09
2.59482e-09
2.62763e-09
2.80845e-09
3.18374e-09
4.844e-09
5.25348e-09
5.44633e-09
4.42355e-09
3.00207e-09
2.65095e-09
2.48835e-09
2.43849e-09
2.43505e-09
2.41326e-09
2.42777e-09
2.41573e-09
2.41864e-09
2.42202e-09
2.41671e-09
2.4261e-09
2.43936e-09
2.46922e-09
2.63207e-09
2.95383e-09
4.32411e-09
4.90674e-09
5.1348e-09
4.01081e-09
2.78718e-09
2.48132e-09
2.33558e-09
2.29019e-09
2.28719e-09
2.2662e-09
2.28043e-09
2.26836e-09
2.27125e-09
2.27475e-09
2.26968e-09
2.27877e-09
2.29126e-09
2.31817e-09
2.4651e-09
2.73964e-09
3.87536e-09
4.54262e-09
4.78691e-09
3.63749e-09
2.57632e-09
2.31395e-09
2.18343e-09
2.14203e-09
2.13957e-09
2.11876e-09
2.13326e-09
2.12065e-09
2.12362e-09
2.1274e-09
2.12236e-09
2.13137e-09
2.14333e-09
2.16727e-09
2.30009e-09
2.53222e-09
3.47873e-09
4.16928e-09
4.40354e-09
3.28631e-09
2.3616e-09
2.14144e-09
2.02516e-09
1.98737e-09
1.98554e-09
1.96433e-09
1.97963e-09
1.966e-09
1.96914e-09
1.97336e-09
1.96817e-09
1.97723e-09
1.98891e-09
2.00988e-09
2.1293e-09
2.32334e-09
3.11693e-09
3.7893e-09
3.98419e-09
2.94343e-09
2.13673e-09
1.95749e-09
1.84316e-09
1.8096e-09
1.8087e-09
1.78701e-09
1.80329e-09
1.7883e-09
1.79165e-09
1.7965e-09
1.79115e-09
1.80034e-09
1.81149e-09
1.82834e-09
1.94687e-09
2.09988e-09
2.77466e-09
3.40162e-09
3.53069e-09
2.59956e-09
1.89997e-09
1.75821e-09
1.65494e-09
1.62463e-09
1.62453e-09
1.60215e-09
1.61958e-09
1.60324e-09
1.60682e-09
1.61219e-09
1.60659e-09
1.61583e-09
1.62676e-09
1.64046e-09
1.74913e-09
1.8693e-09
2.44083e-09
3.00472e-09
3.05044e-09
2.25115e-09
1.65131e-09
1.54405e-09
1.45107e-09
1.42424e-09
1.42492e-09
1.40225e-09
1.42053e-09
1.40316e-09
1.40691e-09
1.41266e-09
1.4069e-09
1.41599e-09
1.42657e-09
1.43715e-09
1.53619e-09
1.62668e-09
2.10942e-09
2.6001e-09
2.55796e-09
1.90117e-09
1.39637e-09
1.31961e-09
1.23691e-09
1.21391e-09
1.21525e-09
1.19303e-09
1.21151e-09
1.19376e-09
1.19755e-09
1.20344e-09
1.19773e-09
1.20635e-09
1.21635e-09
1.22402e-09
1.31269e-09
1.37735e-09
1.78073e-09
2.18698e-09
2.07437e-09
1.55866e-09
1.14456e-09
1.09295e-09
1.02172e-09
1.00241e-09
1.00424e-09
9.83336e-10
1.00121e-09
9.83911e-10
9.87588e-10
9.93313e-10
9.87887e-10
9.95724e-10
1.00485e-09
1.00996e-09
1.08718e-09
1.13045e-09
1.46099e-09
1.78814e-09
7.87205e-10
7.92487e-10
7.87579e-10
7.94354e-10
8.02348e-10
8.05399e-10
8.70274e-10
8.96904e-10
1.16044e-09
1.4126e-09
)
;

boundaryField
{
    fuel
    {
        type            fixedValue;
        value           nonuniform 0();
    }
    wall
    {
        type            zeroGradient;
    }
    outlet
    {
        type            zeroGradient;
    }
    frontAndBack
    {
        type            empty;
    }
    procBoundary0to1
    {
        type            processor;
        value           nonuniform List<scalar> 
21
(
1.62084e-09
1.23564e-09
9.06937e-10
8.74839e-10
8.15744e-10
8.00051e-10
8.02101e-10
7.83401e-10
7.99822e-10
7.83815e-10
7.83815e-10
6.05574e-10
6.10236e-10
6.06014e-10
6.11533e-10
6.1824e-10
6.19749e-10
6.72098e-10
6.86683e-10
8.89554e-10
1.07483e-09
)
;
    }
    procBoundary0to2
    {
        type            processor;
        value           nonuniform List<scalar> 
12
(
3.1416e-09
6.07589e-09
6.14304e-09
3.75473e-09
3.2447e-09
3.0206e-09
2.95467e-09
2.95022e-09
2.92297e-09
2.94093e-09
2.92661e-09
2.92661e-09
)
;
    }
    procBoundary0to3
    {
        type            processor;
        value           nonuniform List<scalar> 10(3.39154e-09 3.39657e-09 3.38763e-09 3.40068e-09 3.42036e-09 3.46555e-09 3.75811e-09 4.4353e-09 8.23622e-09 6.17367e-09);
    }
}


// ************************************************************************* //
