/*--------------------------------*- C++ -*----------------------------------*\
| =========                 |                                                 |
| \\      /  F ield         | OpenFOAM: The Open Source CFD Toolbox           |
|  \\    /   O peration     | Version:  dev                                   |
|   \\  /    A nd           | Web:      www.OpenFOAM.org                      |
|    \\/     M anipulation  |                                                 |
\*---------------------------------------------------------------------------*/
FoamFile
{
    version     2.0;
    format      ascii;
    class       volScalarField;
    location    "0.055";
    object      A1C2H*;
}
// * * * * * * * * * * * * * * * * * * * * * * * * * * * * * * * * * * * * * //

dimensions      [0 0 0 0 0 0 0];

internalField   nonuniform List<scalar> 
2014
(
1.54445e-08
1.55611e-08
1.56735e-08
1.57313e-08
1.57497e-08
1.57621e-08
1.57565e-08
1.57591e-08
1.57535e-08
1.57548e-08
1.57513e-08
1.57525e-08
1.57503e-08
1.57512e-08
1.57498e-08
1.57505e-08
1.57496e-08
1.57502e-08
1.57496e-08
1.57501e-08
1.57497e-08
1.57499e-08
1.57497e-08
1.57498e-08
1.57497e-08
1.57497e-08
1.57498e-08
1.57496e-08
1.57499e-08
1.57497e-08
1.575e-08
1.57496e-08
1.57502e-08
1.57496e-08
1.57505e-08
1.57497e-08
1.57511e-08
1.57502e-08
1.57524e-08
1.57513e-08
1.57548e-08
1.57534e-08
1.57591e-08
1.57565e-08
1.57621e-08
1.57497e-08
1.57312e-08
1.56735e-08
1.55611e-08
1.54445e-08
1.469e-08
1.48009e-08
1.49065e-08
1.49607e-08
1.49782e-08
1.49898e-08
1.49846e-08
1.49868e-08
1.49815e-08
1.49826e-08
1.49794e-08
1.49803e-08
1.49783e-08
1.49791e-08
1.49778e-08
1.49785e-08
1.49776e-08
1.49782e-08
1.49776e-08
1.4978e-08
1.49776e-08
1.49779e-08
1.49776e-08
1.49778e-08
1.49777e-08
1.49777e-08
1.49778e-08
1.49776e-08
1.49779e-08
1.49776e-08
1.4978e-08
1.49776e-08
1.49782e-08
1.49776e-08
1.49784e-08
1.49778e-08
1.49791e-08
1.49783e-08
1.49803e-08
1.49793e-08
1.49826e-08
1.49815e-08
1.49868e-08
1.49845e-08
1.49898e-08
1.49781e-08
1.49606e-08
1.49064e-08
1.48009e-08
1.469e-08
1.39978e-08
1.41037e-08
1.42026e-08
1.42536e-08
1.42701e-08
1.42811e-08
1.42761e-08
1.42781e-08
1.42731e-08
1.4274e-08
1.42709e-08
1.42718e-08
1.42698e-08
1.42705e-08
1.42693e-08
1.42699e-08
1.42691e-08
1.42697e-08
1.42692e-08
1.42695e-08
1.42692e-08
1.42694e-08
1.42692e-08
1.42693e-08
1.42692e-08
1.42692e-08
1.42693e-08
1.42692e-08
1.42694e-08
1.42692e-08
1.42695e-08
1.42691e-08
1.42697e-08
1.42691e-08
1.42699e-08
1.42693e-08
1.42705e-08
1.42698e-08
1.42717e-08
1.42709e-08
1.4274e-08
1.4273e-08
1.42781e-08
1.42761e-08
1.4281e-08
1.42701e-08
1.42535e-08
1.42026e-08
1.41036e-08
1.39978e-08
1.33612e-08
1.34624e-08
1.35551e-08
1.3603e-08
1.36187e-08
1.36289e-08
1.36243e-08
1.3626e-08
1.36213e-08
1.3622e-08
1.36191e-08
1.36198e-08
1.3618e-08
1.36186e-08
1.36175e-08
1.3618e-08
1.36173e-08
1.36178e-08
1.36173e-08
1.36176e-08
1.36173e-08
1.36175e-08
1.36173e-08
1.36174e-08
1.36173e-08
1.36173e-08
1.36174e-08
1.36173e-08
1.36175e-08
1.36173e-08
1.36176e-08
1.36173e-08
1.36178e-08
1.36172e-08
1.3618e-08
1.36175e-08
1.36186e-08
1.3618e-08
1.36198e-08
1.36191e-08
1.3622e-08
1.36212e-08
1.3626e-08
1.36242e-08
1.36289e-08
1.36186e-08
1.3603e-08
1.35551e-08
1.34624e-08
1.33612e-08
1.27742e-08
1.2871e-08
1.29581e-08
1.3003e-08
1.30178e-08
1.30274e-08
1.3023e-08
1.30245e-08
1.302e-08
1.30206e-08
1.30178e-08
1.30184e-08
1.30167e-08
1.30173e-08
1.30162e-08
1.30167e-08
1.3016e-08
1.30164e-08
1.3016e-08
1.30163e-08
1.3016e-08
1.30162e-08
1.3016e-08
1.30161e-08
1.3016e-08
1.3016e-08
1.30161e-08
1.3016e-08
1.30162e-08
1.3016e-08
1.30163e-08
1.3016e-08
1.30164e-08
1.30159e-08
1.30167e-08
1.30161e-08
1.30172e-08
1.30167e-08
1.30184e-08
1.30178e-08
1.30206e-08
1.30199e-08
1.30244e-08
1.30229e-08
1.30273e-08
1.30177e-08
1.30029e-08
1.29581e-08
1.2871e-08
1.27742e-08
1.22315e-08
1.23243e-08
1.24061e-08
1.24481e-08
1.24621e-08
1.24711e-08
1.24669e-08
1.24682e-08
1.24639e-08
1.24644e-08
1.24617e-08
1.24623e-08
1.24606e-08
1.24611e-08
1.24601e-08
1.24606e-08
1.24599e-08
1.24603e-08
1.24599e-08
1.24602e-08
1.24599e-08
1.24601e-08
1.24599e-08
1.246e-08
1.24599e-08
1.24599e-08
1.246e-08
1.24599e-08
1.24601e-08
1.24599e-08
1.24602e-08
1.24599e-08
1.24603e-08
1.24599e-08
1.24605e-08
1.24601e-08
1.24611e-08
1.24606e-08
1.24622e-08
1.24617e-08
1.24644e-08
1.24639e-08
1.24681e-08
1.24668e-08
1.2471e-08
1.2462e-08
1.24481e-08
1.2406e-08
1.23243e-08
1.22315e-08
1.17287e-08
1.18176e-08
1.18944e-08
1.19338e-08
1.19469e-08
1.19553e-08
1.19514e-08
1.19525e-08
1.19484e-08
1.19488e-08
1.19462e-08
1.19467e-08
1.19451e-08
1.19456e-08
1.19446e-08
1.1945e-08
1.19444e-08
1.19448e-08
1.19444e-08
1.19447e-08
1.19444e-08
1.19445e-08
1.19444e-08
1.19445e-08
1.19444e-08
1.19444e-08
1.19445e-08
1.19444e-08
1.19445e-08
1.19444e-08
1.19446e-08
1.19444e-08
1.19448e-08
1.19444e-08
1.1945e-08
1.19446e-08
1.19455e-08
1.19451e-08
1.19466e-08
1.19462e-08
1.19487e-08
1.19484e-08
1.19524e-08
1.19513e-08
1.19553e-08
1.19469e-08
1.19337e-08
1.18943e-08
1.18176e-08
1.17287e-08
1.12616e-08
1.13469e-08
1.1419e-08
1.14559e-08
1.14682e-08
1.14761e-08
1.14724e-08
1.14733e-08
1.14694e-08
1.14696e-08
1.14672e-08
1.14676e-08
1.14661e-08
1.14665e-08
1.14656e-08
1.1466e-08
1.14654e-08
1.14657e-08
1.14654e-08
1.14656e-08
1.14654e-08
1.14655e-08
1.14653e-08
1.14654e-08
1.14654e-08
1.14654e-08
1.14654e-08
1.14653e-08
1.14655e-08
1.14654e-08
1.14656e-08
1.14653e-08
1.14657e-08
1.14653e-08
1.1466e-08
1.14656e-08
1.14665e-08
1.14661e-08
1.14675e-08
1.14672e-08
1.14696e-08
1.14694e-08
1.14732e-08
1.14723e-08
1.14761e-08
1.14682e-08
1.14559e-08
1.14189e-08
1.13469e-08
1.12616e-08
1.08268e-08
1.09086e-08
1.09762e-08
1.10109e-08
1.10224e-08
1.10298e-08
1.10262e-08
1.1027e-08
1.10233e-08
1.10234e-08
1.10211e-08
1.10214e-08
1.102e-08
1.10203e-08
1.10194e-08
1.10198e-08
1.10192e-08
1.10196e-08
1.10192e-08
1.10195e-08
1.10192e-08
1.10194e-08
1.10192e-08
1.10193e-08
1.10193e-08
1.10193e-08
1.10193e-08
1.10192e-08
1.10194e-08
1.10192e-08
1.10195e-08
1.10192e-08
1.10196e-08
1.10192e-08
1.10198e-08
1.10194e-08
1.10203e-08
1.10199e-08
1.10213e-08
1.10211e-08
1.10234e-08
1.10233e-08
1.10269e-08
1.10262e-08
1.10298e-08
1.10224e-08
1.10108e-08
1.09762e-08
1.09086e-08
1.08268e-08
1.04212e-08
1.04995e-08
1.0563e-08
1.05955e-08
1.06064e-08
1.06132e-08
1.06098e-08
1.06104e-08
1.06069e-08
1.06069e-08
1.06047e-08
1.06049e-08
1.06036e-08
1.06039e-08
1.0603e-08
1.06034e-08
1.06028e-08
1.06032e-08
1.06028e-08
1.0603e-08
1.06028e-08
1.06029e-08
1.06028e-08
1.06029e-08
1.06028e-08
1.06028e-08
1.06029e-08
1.06028e-08
1.06029e-08
1.06028e-08
1.0603e-08
1.06028e-08
1.06031e-08
1.06028e-08
1.06034e-08
1.0603e-08
1.06038e-08
1.06035e-08
1.06049e-08
1.06047e-08
1.06069e-08
1.06068e-08
1.06103e-08
1.06097e-08
1.06132e-08
1.06063e-08
1.05955e-08
1.05629e-08
1.04995e-08
1.04212e-08
1.0042e-08
1.01169e-08
1.01765e-08
1.0207e-08
1.02172e-08
1.02236e-08
1.02203e-08
1.02208e-08
1.02174e-08
1.02173e-08
1.02152e-08
1.02154e-08
1.02141e-08
1.02143e-08
1.02136e-08
1.02139e-08
1.02134e-08
1.02137e-08
1.02133e-08
1.02135e-08
1.02133e-08
1.02135e-08
1.02133e-08
1.02134e-08
1.02134e-08
1.02134e-08
1.02134e-08
1.02133e-08
1.02135e-08
1.02133e-08
1.02135e-08
1.02133e-08
1.02136e-08
1.02133e-08
1.02138e-08
1.02135e-08
1.02143e-08
1.02141e-08
1.02153e-08
1.02152e-08
1.02173e-08
1.02174e-08
1.02207e-08
1.02203e-08
1.02235e-08
1.02171e-08
1.0207e-08
1.01765e-08
1.01169e-08
1.0042e-08
9.6868e-09
9.75827e-09
9.81437e-09
9.84296e-09
9.85246e-09
9.85842e-09
9.85526e-09
9.85559e-09
9.85239e-09
9.85225e-09
9.8502e-09
9.85029e-09
9.84907e-09
9.8493e-09
9.84855e-09
9.84883e-09
9.84835e-09
9.84863e-09
9.84833e-09
9.84853e-09
9.84832e-09
9.84844e-09
9.84831e-09
9.84838e-09
9.84834e-09
9.84834e-09
9.84838e-09
9.84831e-09
9.84843e-09
9.84831e-09
9.84852e-09
9.84831e-09
9.84862e-09
9.84833e-09
9.84882e-09
9.84853e-09
9.84928e-09
9.84905e-09
9.85026e-09
9.85017e-09
9.85222e-09
9.85235e-09
9.85555e-09
9.85521e-09
9.85837e-09
9.85242e-09
9.84291e-09
9.81429e-09
9.75833e-09
9.68684e-09
9.35347e-09
9.42153e-09
9.47432e-09
9.50113e-09
9.51002e-09
9.51555e-09
9.51251e-09
9.51272e-09
9.50965e-09
9.50945e-09
9.50746e-09
9.50751e-09
9.50634e-09
9.50654e-09
9.50583e-09
9.50609e-09
9.50563e-09
9.5059e-09
9.50561e-09
9.50579e-09
9.5056e-09
9.50571e-09
9.50559e-09
9.50565e-09
9.50562e-09
9.50562e-09
9.50565e-09
9.50559e-09
9.5057e-09
9.50559e-09
9.50578e-09
9.50559e-09
9.50588e-09
9.50561e-09
9.50607e-09
9.50581e-09
9.50652e-09
9.50632e-09
9.50748e-09
9.50744e-09
9.50941e-09
9.50961e-09
9.51268e-09
9.51246e-09
9.5155e-09
9.50997e-09
9.50108e-09
9.47423e-09
9.42161e-09
9.35353e-09
9.0401e-09
9.10475e-09
9.15447e-09
9.17962e-09
9.1879e-09
9.19304e-09
9.19011e-09
9.19022e-09
9.18727e-09
9.187e-09
9.18509e-09
9.18509e-09
9.18397e-09
9.18414e-09
9.18346e-09
9.1837e-09
9.18326e-09
9.18352e-09
9.18324e-09
9.18342e-09
9.18323e-09
9.18334e-09
9.18322e-09
9.18328e-09
9.18325e-09
9.18325e-09
9.18328e-09
9.18322e-09
9.18333e-09
9.18323e-09
9.18341e-09
9.18323e-09
9.1835e-09
9.18325e-09
9.18368e-09
9.18344e-09
9.18412e-09
9.18395e-09
9.18506e-09
9.18506e-09
9.18697e-09
9.18723e-09
9.19017e-09
9.19006e-09
9.19299e-09
9.18785e-09
9.17957e-09
9.15436e-09
9.10486e-09
9.04017e-09
8.74496e-09
8.80626e-09
8.8531e-09
8.87672e-09
8.88439e-09
8.88917e-09
8.88634e-09
8.88636e-09
8.88353e-09
8.88321e-09
8.88135e-09
8.88131e-09
8.88024e-09
8.88039e-09
8.87974e-09
8.87996e-09
8.87954e-09
8.87978e-09
8.87952e-09
8.87968e-09
8.87951e-09
8.87961e-09
8.8795e-09
8.87956e-09
8.87953e-09
8.87953e-09
8.87956e-09
8.8795e-09
8.8796e-09
8.8795e-09
8.87967e-09
8.87951e-09
8.87976e-09
8.87953e-09
8.87994e-09
8.87972e-09
8.88037e-09
8.88021e-09
8.88128e-09
8.88132e-09
8.88317e-09
8.88349e-09
8.88631e-09
8.8863e-09
8.88912e-09
8.88435e-09
8.87667e-09
8.85297e-09
8.80639e-09
8.74504e-09
8.46655e-09
8.52456e-09
8.5687e-09
8.59089e-09
8.59798e-09
8.60242e-09
8.59969e-09
8.59962e-09
8.5969e-09
8.59653e-09
8.59472e-09
8.59465e-09
8.59362e-09
8.59375e-09
8.59313e-09
8.59333e-09
8.59294e-09
8.59316e-09
8.59291e-09
8.59307e-09
8.59291e-09
8.593e-09
8.5929e-09
8.59295e-09
8.59292e-09
8.59292e-09
8.59295e-09
8.5929e-09
8.59299e-09
8.5929e-09
8.59306e-09
8.5929e-09
8.59315e-09
8.59293e-09
8.59332e-09
8.59311e-09
8.59373e-09
8.5936e-09
8.59462e-09
8.59469e-09
8.59649e-09
8.59686e-09
8.59958e-09
8.59964e-09
8.60237e-09
8.59794e-09
8.59084e-09
8.56855e-09
8.52472e-09
8.46665e-09
8.20352e-09
8.25832e-09
8.29991e-09
8.32077e-09
8.32731e-09
8.33143e-09
8.32879e-09
8.32864e-09
8.32604e-09
8.32561e-09
8.32385e-09
8.32375e-09
8.32277e-09
8.32287e-09
8.32228e-09
8.32247e-09
8.3221e-09
8.3223e-09
8.32207e-09
8.32222e-09
8.32206e-09
8.32215e-09
8.32205e-09
8.3221e-09
8.32208e-09
8.32208e-09
8.3221e-09
8.32205e-09
8.32215e-09
8.32205e-09
8.32221e-09
8.32206e-09
8.32229e-09
8.32208e-09
8.32245e-09
8.32226e-09
8.32285e-09
8.32274e-09
8.32372e-09
8.32382e-09
8.32558e-09
8.326e-09
8.3286e-09
8.32875e-09
8.33138e-09
8.32727e-09
8.32072e-09
8.29975e-09
8.25852e-09
8.20362e-09
7.95465e-09
8.00636e-09
8.04554e-09
8.06515e-09
8.07117e-09
8.07498e-09
8.07244e-09
8.07222e-09
8.06971e-09
8.06925e-09
8.06753e-09
8.0674e-09
8.06645e-09
8.06654e-09
8.06598e-09
8.06615e-09
8.0658e-09
8.06599e-09
8.06577e-09
8.06591e-09
8.06576e-09
8.06585e-09
8.06576e-09
8.0658e-09
8.06578e-09
8.06578e-09
8.0658e-09
8.06575e-09
8.06584e-09
8.06576e-09
8.0659e-09
8.06576e-09
8.06598e-09
8.06578e-09
8.06613e-09
8.06596e-09
8.06652e-09
8.06643e-09
8.06737e-09
8.0675e-09
8.06921e-09
8.06967e-09
8.07217e-09
8.07239e-09
8.07494e-09
8.07112e-09
8.0651e-09
8.04534e-09
8.0066e-09
7.95475e-09
7.71886e-09
7.76761e-09
7.80449e-09
7.82293e-09
7.82847e-09
7.832e-09
7.82953e-09
7.82925e-09
7.82684e-09
7.82634e-09
7.82466e-09
7.8245e-09
7.8236e-09
7.82367e-09
7.82313e-09
7.82329e-09
7.82296e-09
7.82314e-09
7.82293e-09
7.82306e-09
7.82292e-09
7.823e-09
7.82292e-09
7.82296e-09
7.82294e-09
7.82294e-09
7.82296e-09
7.82292e-09
7.823e-09
7.82292e-09
7.82305e-09
7.82292e-09
7.82313e-09
7.82294e-09
7.82327e-09
7.82311e-09
7.82365e-09
7.82357e-09
7.82447e-09
7.82463e-09
7.82631e-09
7.8268e-09
7.82921e-09
7.82949e-09
7.83195e-09
7.82842e-09
7.82288e-09
7.80427e-09
7.76788e-09
7.71897e-09
7.49517e-09
7.54108e-09
7.57584e-09
7.59314e-09
7.59823e-09
7.60149e-09
7.59911e-09
7.59877e-09
7.59645e-09
7.59592e-09
7.59427e-09
7.59408e-09
7.59322e-09
7.59328e-09
7.59277e-09
7.59291e-09
7.5926e-09
7.59277e-09
7.59257e-09
7.5927e-09
7.59256e-09
7.59264e-09
7.59256e-09
7.5926e-09
7.59258e-09
7.59258e-09
7.5926e-09
7.59256e-09
7.59264e-09
7.59256e-09
7.59269e-09
7.59256e-09
7.59275e-09
7.59258e-09
7.5929e-09
7.59275e-09
7.59326e-09
7.59319e-09
7.59405e-09
7.59424e-09
7.59588e-09
7.59641e-09
7.59872e-09
7.59906e-09
7.60144e-09
7.59819e-09
7.5931e-09
7.57565e-09
7.54134e-09
7.49528e-09
7.28271e-09
7.32596e-09
7.35865e-09
7.37491e-09
7.37958e-09
7.38258e-09
7.38028e-09
7.37989e-09
7.37767e-09
7.3771e-09
7.37547e-09
7.37527e-09
7.37444e-09
7.37449e-09
7.374e-09
7.37414e-09
7.37384e-09
7.374e-09
7.37381e-09
7.37393e-09
7.37381e-09
7.37388e-09
7.3738e-09
7.37384e-09
7.37382e-09
7.37382e-09
7.37384e-09
7.3738e-09
7.37387e-09
7.3738e-09
7.37392e-09
7.3738e-09
7.37398e-09
7.37382e-09
7.37412e-09
7.37398e-09
7.37446e-09
7.37441e-09
7.37524e-09
7.37544e-09
7.37706e-09
7.37763e-09
7.37984e-09
7.38023e-09
7.38253e-09
7.37953e-09
7.37486e-09
7.35848e-09
7.32621e-09
7.28282e-09
7.08071e-09
7.12145e-09
7.15214e-09
7.16742e-09
7.17171e-09
7.17446e-09
7.17225e-09
7.17181e-09
7.16968e-09
7.16909e-09
7.16748e-09
7.16725e-09
7.16646e-09
7.1665e-09
7.16603e-09
7.16616e-09
7.16588e-09
7.16603e-09
7.16585e-09
7.16597e-09
7.16585e-09
7.16592e-09
7.16585e-09
7.16589e-09
7.16587e-09
7.16587e-09
7.16589e-09
7.16585e-09
7.16592e-09
7.16584e-09
7.16596e-09
7.16584e-09
7.16602e-09
7.16586e-09
7.16615e-09
7.16602e-09
7.16648e-09
7.16644e-09
7.16722e-09
7.16745e-09
7.16905e-09
7.16964e-09
7.17177e-09
7.1722e-09
7.17441e-09
7.17166e-09
7.16737e-09
7.15197e-09
7.1217e-09
7.08081e-09
6.88845e-09
6.92683e-09
6.95557e-09
6.96996e-09
6.97389e-09
6.97642e-09
6.97428e-09
6.97381e-09
6.97177e-09
6.97115e-09
6.96955e-09
6.96931e-09
6.96856e-09
6.96858e-09
6.96814e-09
6.96826e-09
6.96799e-09
6.96814e-09
6.96797e-09
6.96808e-09
6.96797e-09
6.96804e-09
6.96797e-09
6.96801e-09
6.96799e-09
6.96798e-09
6.968e-09
6.96797e-09
6.96803e-09
6.96796e-09
6.96807e-09
6.96796e-09
6.96812e-09
6.96798e-09
6.96825e-09
6.96812e-09
6.96856e-09
6.96853e-09
6.96928e-09
6.96952e-09
6.97112e-09
6.97173e-09
6.97377e-09
6.97424e-09
6.97637e-09
6.97385e-09
6.96991e-09
6.95541e-09
6.92707e-09
6.88855e-09
6.70529e-09
6.74143e-09
6.76829e-09
6.78186e-09
6.78546e-09
6.78777e-09
6.78572e-09
6.78521e-09
6.78326e-09
6.78263e-09
6.78103e-09
6.78077e-09
6.78005e-09
6.78007e-09
6.77966e-09
6.77977e-09
6.77951e-09
6.77965e-09
6.77949e-09
6.7796e-09
6.77949e-09
6.77956e-09
6.77949e-09
6.77953e-09
6.77951e-09
6.77951e-09
6.77953e-09
6.77949e-09
6.77955e-09
6.77949e-09
6.77959e-09
6.77948e-09
6.77964e-09
6.7795e-09
6.77975e-09
6.77964e-09
6.78005e-09
6.78003e-09
6.78074e-09
6.781e-09
6.78259e-09
6.78322e-09
6.78517e-09
6.78567e-09
6.78773e-09
6.78542e-09
6.7818e-09
6.76813e-09
6.74165e-09
6.70538e-09
6.5306e-09
6.56461e-09
6.58966e-09
6.60246e-09
6.60578e-09
6.60789e-09
6.60593e-09
6.60539e-09
6.60353e-09
6.60288e-09
6.60128e-09
6.60101e-09
6.60032e-09
6.60034e-09
6.59994e-09
6.60005e-09
6.59981e-09
6.59994e-09
6.59979e-09
6.59989e-09
6.59979e-09
6.59985e-09
6.59979e-09
6.59983e-09
6.59981e-09
6.59981e-09
6.59982e-09
6.59979e-09
6.59985e-09
6.59978e-09
6.59988e-09
6.59978e-09
6.59992e-09
6.59979e-09
6.60003e-09
6.59992e-09
6.60031e-09
6.6003e-09
6.60098e-09
6.60124e-09
6.60284e-09
6.60349e-09
6.60535e-09
6.60588e-09
6.60785e-09
6.60574e-09
6.60241e-09
6.58949e-09
6.56482e-09
6.53068e-09
6.36949e-09
6.40173e-09
6.42505e-09
6.43723e-09
6.44028e-09
6.44222e-09
6.44031e-09
6.43977e-09
6.43798e-09
6.43732e-09
6.43569e-09
6.43542e-09
6.43476e-09
6.43477e-09
6.43439e-09
6.43449e-09
6.43427e-09
6.43439e-09
6.43425e-09
6.43435e-09
6.43426e-09
6.43432e-09
6.43426e-09
6.43429e-09
6.43427e-09
6.43427e-09
6.43429e-09
6.43426e-09
6.43431e-09
6.43425e-09
6.43434e-09
6.43424e-09
6.43438e-09
6.43425e-09
6.43448e-09
6.43437e-09
6.43475e-09
6.43473e-09
6.43539e-09
6.43566e-09
6.43728e-09
6.43794e-09
6.43972e-09
6.44027e-09
6.44217e-09
6.44023e-09
6.43718e-09
6.42487e-09
6.40192e-09
6.36958e-09
6.21564e-09
6.24648e-09
6.26751e-09
6.2787e-09
6.2809e-09
6.28236e-09
6.28021e-09
6.27947e-09
6.2776e-09
6.27684e-09
6.27506e-09
6.27474e-09
6.27406e-09
6.27405e-09
6.27367e-09
6.27375e-09
6.27352e-09
6.27364e-09
6.27349e-09
6.27358e-09
6.27349e-09
6.27355e-09
6.27349e-09
6.27352e-09
6.2735e-09
6.2735e-09
6.27352e-09
6.27349e-09
6.27354e-09
6.27348e-09
6.27357e-09
6.27348e-09
6.27362e-09
6.2735e-09
6.27373e-09
6.27365e-09
6.27403e-09
6.27404e-09
6.27471e-09
6.27503e-09
6.27681e-09
6.27756e-09
6.27943e-09
6.28016e-09
6.28231e-09
6.28086e-09
6.27865e-09
6.26735e-09
6.24666e-09
6.21572e-09
6.06429e-09
6.09345e-09
6.11266e-09
6.1232e-09
6.12517e-09
6.12645e-09
6.12436e-09
6.1236e-09
6.12182e-09
6.12105e-09
6.11921e-09
6.11888e-09
6.11824e-09
6.11822e-09
6.11786e-09
6.11794e-09
6.11772e-09
6.11783e-09
6.1177e-09
6.11778e-09
6.1177e-09
6.11775e-09
6.1177e-09
6.11773e-09
6.11771e-09
6.11771e-09
6.11772e-09
6.11769e-09
6.11774e-09
6.11769e-09
6.11777e-09
6.11768e-09
6.11782e-09
6.11771e-09
6.11792e-09
6.11784e-09
6.1182e-09
6.11822e-09
6.11885e-09
6.11918e-09
6.12101e-09
6.12177e-09
6.12356e-09
6.12431e-09
6.1264e-09
6.12512e-09
6.12315e-09
6.1125e-09
6.09362e-09
6.06437e-09
5.91953e-09
5.947e-09
5.96465e-09
5.9746e-09
5.97635e-09
5.97746e-09
5.97544e-09
5.97467e-09
5.97296e-09
5.97219e-09
5.97029e-09
5.96995e-09
5.96934e-09
5.96932e-09
5.96898e-09
5.96905e-09
5.96885e-09
5.96895e-09
5.96882e-09
5.96891e-09
5.96882e-09
5.96888e-09
5.96883e-09
5.96885e-09
5.96884e-09
5.96884e-09
5.96885e-09
5.96882e-09
5.96887e-09
5.96882e-09
5.9689e-09
5.96881e-09
5.96893e-09
5.96883e-09
5.96903e-09
5.96896e-09
5.9693e-09
5.96932e-09
5.96992e-09
5.97025e-09
5.97215e-09
5.97292e-09
5.97462e-09
5.9754e-09
5.97741e-09
5.97631e-09
5.97456e-09
5.96449e-09
5.94715e-09
5.91961e-09
5.78107e-09
5.80687e-09
5.82312e-09
5.83248e-09
5.83403e-09
5.83498e-09
5.83303e-09
5.83223e-09
5.83061e-09
5.82984e-09
5.82784e-09
5.82751e-09
5.82693e-09
5.82691e-09
5.82658e-09
5.82665e-09
5.82646e-09
5.82656e-09
5.82644e-09
5.82652e-09
5.82644e-09
5.82649e-09
5.82644e-09
5.82647e-09
5.82646e-09
5.82646e-09
5.82647e-09
5.82644e-09
5.82649e-09
5.82643e-09
5.82651e-09
5.82643e-09
5.82654e-09
5.82644e-09
5.82663e-09
5.82656e-09
5.82688e-09
5.82691e-09
5.82748e-09
5.82781e-09
5.8298e-09
5.83056e-09
5.83219e-09
5.83298e-09
5.83493e-09
5.83398e-09
5.83243e-09
5.82297e-09
5.807e-09
5.78114e-09
5.64847e-09
5.67271e-09
5.68759e-09
5.69641e-09
5.69777e-09
5.69856e-09
5.69668e-09
5.69588e-09
5.69433e-09
5.69358e-09
5.69146e-09
5.69113e-09
5.69058e-09
5.69056e-09
5.69025e-09
5.69031e-09
5.69014e-09
5.69023e-09
5.69012e-09
5.69019e-09
5.69012e-09
5.69017e-09
5.69013e-09
5.69015e-09
5.69014e-09
5.69014e-09
5.69015e-09
5.69012e-09
5.69016e-09
5.69011e-09
5.69018e-09
5.6901e-09
5.69021e-09
5.69012e-09
5.69029e-09
5.69023e-09
5.69053e-09
5.69056e-09
5.69109e-09
5.69142e-09
5.69354e-09
5.69428e-09
5.69583e-09
5.69663e-09
5.69851e-09
5.69772e-09
5.69636e-09
5.68745e-09
5.67281e-09
5.64854e-09
5.52558e-09
5.54846e-09
5.5621e-09
5.57042e-09
5.57158e-09
5.57225e-09
5.57041e-09
5.5696e-09
5.56812e-09
5.56739e-09
5.56511e-09
5.56479e-09
5.56428e-09
5.56425e-09
5.56396e-09
5.56402e-09
5.56385e-09
5.56394e-09
5.56384e-09
5.56391e-09
5.56384e-09
5.56389e-09
5.56385e-09
5.56387e-09
5.56386e-09
5.56386e-09
5.56387e-09
5.56384e-09
5.56388e-09
5.56383e-09
5.5639e-09
5.56382e-09
5.56392e-09
5.56383e-09
5.564e-09
5.56394e-09
5.56422e-09
5.56425e-09
5.56476e-09
5.56508e-09
5.56735e-09
5.56807e-09
5.56955e-09
5.57036e-09
5.5722e-09
5.57153e-09
5.57037e-09
5.56198e-09
5.54853e-09
5.52564e-09
5.40797e-09
5.42953e-09
5.44204e-09
5.44986e-09
5.45084e-09
5.45138e-09
5.44959e-09
5.44876e-09
5.44722e-09
5.44644e-09
5.44382e-09
5.44347e-09
5.44293e-09
5.44288e-09
5.44258e-09
5.44263e-09
5.44245e-09
5.44253e-09
5.44242e-09
5.44249e-09
5.44242e-09
5.44246e-09
5.44242e-09
5.44245e-09
5.44243e-09
5.44243e-09
5.44244e-09
5.44242e-09
5.44246e-09
5.44241e-09
5.44248e-09
5.44241e-09
5.44251e-09
5.44243e-09
5.4426e-09
5.44255e-09
5.44285e-09
5.4429e-09
5.44344e-09
5.44378e-09
5.44639e-09
5.44717e-09
5.44871e-09
5.44954e-09
5.45133e-09
5.45079e-09
5.4498e-09
5.44194e-09
5.42955e-09
5.40802e-09
5.29205e-09
5.31233e-09
5.32376e-09
5.33096e-09
5.33166e-09
5.332e-09
5.33018e-09
5.3293e-09
5.32778e-09
5.32702e-09
5.32407e-09
5.32374e-09
5.32321e-09
5.32315e-09
5.32285e-09
5.32289e-09
5.32272e-09
5.3228e-09
5.32269e-09
5.32276e-09
5.32269e-09
5.32273e-09
5.32269e-09
5.32272e-09
5.3227e-09
5.3227e-09
5.32271e-09
5.32269e-09
5.32273e-09
5.32268e-09
5.32275e-09
5.32268e-09
5.32278e-09
5.3227e-09
5.32287e-09
5.32283e-09
5.32312e-09
5.32318e-09
5.3237e-09
5.32403e-09
5.32698e-09
5.32773e-09
5.32925e-09
5.33013e-09
5.33194e-09
5.33161e-09
5.3309e-09
5.32362e-09
5.31238e-09
5.2921e-09
5.18027e-09
5.19916e-09
5.20964e-09
5.2163e-09
5.21688e-09
5.21709e-09
5.21533e-09
5.21444e-09
5.213e-09
5.21231e-09
5.21274e-09
5.21243e-09
5.21193e-09
5.21187e-09
5.21159e-09
5.21162e-09
5.21146e-09
5.21153e-09
5.21143e-09
5.2115e-09
5.21143e-09
5.21147e-09
5.21144e-09
5.21146e-09
5.21145e-09
5.21145e-09
5.21146e-09
5.21143e-09
5.21146e-09
5.21142e-09
5.21148e-09
5.21142e-09
5.21151e-09
5.21144e-09
5.2116e-09
5.21156e-09
5.21184e-09
5.2119e-09
5.2124e-09
5.2127e-09
5.21226e-09
5.21294e-09
5.21439e-09
5.21528e-09
5.21703e-09
5.21682e-09
5.21625e-09
5.2095e-09
5.19921e-09
5.18031e-09
5.07623e-09
5.09398e-09
5.10346e-09
5.10969e-09
5.11012e-09
5.11022e-09
5.10851e-09
5.10761e-09
5.10622e-09
5.10559e-09
5.10587e-09
5.10559e-09
5.10511e-09
5.10505e-09
5.10478e-09
5.10481e-09
5.10466e-09
5.10473e-09
5.10463e-09
5.10469e-09
5.10463e-09
5.10467e-09
5.10464e-09
5.10466e-09
5.10465e-09
5.10465e-09
5.10466e-09
5.10463e-09
5.10466e-09
5.10462e-09
5.10468e-09
5.10462e-09
5.10471e-09
5.10464e-09
5.10479e-09
5.10475e-09
5.10502e-09
5.10508e-09
5.10555e-09
5.10583e-09
5.10555e-09
5.10617e-09
5.10755e-09
5.10845e-09
5.11017e-09
5.11006e-09
5.10963e-09
5.10338e-09
5.09396e-09
5.07627e-09
4.97579e-09
4.99271e-09
5.00117e-09
5.00677e-09
5.00671e-09
5.00653e-09
5.00467e-09
5.00365e-09
5.00223e-09
5.00159e-09
5.0017e-09
5.00142e-09
5.00093e-09
5.00086e-09
5.00059e-09
5.00061e-09
5.00046e-09
5.00052e-09
5.00042e-09
5.00048e-09
5.00042e-09
5.00046e-09
5.00042e-09
5.00044e-09
5.00043e-09
5.00043e-09
5.00044e-09
5.00042e-09
5.00045e-09
5.00041e-09
5.00047e-09
5.00041e-09
5.0005e-09
5.00043e-09
5.00059e-09
5.00056e-09
5.00083e-09
5.0009e-09
5.00138e-09
5.00166e-09
5.00154e-09
5.00218e-09
5.0036e-09
5.00461e-09
5.00648e-09
5.00666e-09
5.0067e-09
5.00103e-09
4.99273e-09
4.97581e-09
4.87953e-09
4.89538e-09
4.90299e-09
4.90815e-09
4.90793e-09
4.90765e-09
4.9058e-09
4.90477e-09
4.9034e-09
4.90279e-09
4.90281e-09
4.90254e-09
4.90207e-09
4.902e-09
4.90173e-09
4.90176e-09
4.90161e-09
4.90167e-09
4.90158e-09
4.90163e-09
4.90157e-09
4.90161e-09
4.90158e-09
4.9016e-09
4.90159e-09
4.90159e-09
4.90159e-09
4.90157e-09
4.9016e-09
4.90156e-09
4.90162e-09
4.90156e-09
4.90165e-09
4.90159e-09
4.90173e-09
4.90171e-09
4.90197e-09
4.90204e-09
4.9025e-09
4.90277e-09
4.90274e-09
4.90334e-09
4.90471e-09
4.90574e-09
4.90759e-09
4.90788e-09
4.90808e-09
4.90285e-09
4.89539e-09
4.87955e-09
4.78677e-09
4.80161e-09
4.80837e-09
4.81312e-09
4.81275e-09
4.81235e-09
4.81052e-09
4.80947e-09
4.80814e-09
4.80755e-09
4.8075e-09
4.80724e-09
4.80679e-09
4.80671e-09
4.80646e-09
4.80648e-09
4.80634e-09
4.80639e-09
4.80631e-09
4.80636e-09
4.8063e-09
4.80634e-09
4.80631e-09
4.80633e-09
4.80632e-09
4.80632e-09
4.80632e-09
4.8063e-09
4.80633e-09
4.80629e-09
4.80634e-09
4.80629e-09
4.80637e-09
4.80632e-09
4.80646e-09
4.80643e-09
4.80669e-09
4.80676e-09
4.80721e-09
4.80746e-09
4.80751e-09
4.80809e-09
4.80941e-09
4.81046e-09
4.81229e-09
4.8127e-09
4.81305e-09
4.80825e-09
4.80161e-09
4.78678e-09
4.71433e-09
4.71438e-09
4.71433e-09
4.71436e-09
4.71433e-09
4.71435e-09
4.71434e-09
4.71434e-09
4.71435e-09
4.71433e-09
4.71435e-09
4.71432e-09
4.71437e-09
4.71432e-09
4.7144e-09
4.71434e-09
4.71448e-09
4.71446e-09
4.7147e-09
4.71478e-09
4.71521e-09
4.71545e-09
4.71557e-09
4.71613e-09
4.71742e-09
4.71849e-09
4.7203e-09
4.72083e-09
4.72133e-09
4.71695e-09
4.7111e-09
4.69723e-09
4.62539e-09
4.62535e-09
4.6254e-09
4.62535e-09
4.62543e-09
4.62537e-09
4.62551e-09
4.62549e-09
4.62573e-09
4.62581e-09
4.62622e-09
4.62646e-09
4.62663e-09
4.62718e-09
4.62844e-09
4.62953e-09
4.63135e-09
4.63199e-09
4.63266e-09
4.62869e-09
4.62358e-09
4.61065e-09
4.54042e-09
4.54096e-09
4.5422e-09
4.54332e-09
4.54514e-09
4.5459e-09
4.54673e-09
4.54317e-09
4.53877e-09
4.52675e-09
)
;

boundaryField
{
    fuel
    {
        type            fixedValue;
        value           nonuniform 0();
    }
    wall
    {
        type            zeroGradient;
    }
    outlet
    {
        type            zeroGradient;
    }
    frontAndBack
    {
        type            empty;
    }
    procBoundary0to1
    {
        type            processor;
        value           nonuniform List<scalar> 
50
(
1.62693e-08
1.6392e-08
1.65118e-08
1.65733e-08
1.65928e-08
1.6606e-08
1.66e-08
1.66029e-08
1.65969e-08
1.65985e-08
1.65948e-08
1.65961e-08
1.65937e-08
1.65947e-08
1.65932e-08
1.65941e-08
1.6593e-08
1.65938e-08
1.65931e-08
1.65936e-08
1.65932e-08
1.65934e-08
1.65931e-08
1.65933e-08
1.65932e-08
1.65932e-08
1.65933e-08
1.65931e-08
1.65934e-08
1.65931e-08
1.65936e-08
1.65931e-08
1.65938e-08
1.6593e-08
1.65941e-08
1.65932e-08
1.65947e-08
1.65937e-08
1.6596e-08
1.65947e-08
1.65984e-08
1.65968e-08
1.66029e-08
1.65999e-08
1.66059e-08
1.65927e-08
1.65732e-08
1.65117e-08
1.6392e-08
1.62693e-08
)
;
    }
    procBoundary0to2
    {
        type            processor;
        value           nonuniform List<scalar> 
53
(
4.69724e-09
4.71111e-09
4.71707e-09
4.7214e-09
4.72088e-09
4.72036e-09
4.71854e-09
4.71747e-09
4.71618e-09
4.71561e-09
4.71549e-09
4.71524e-09
4.71481e-09
4.71473e-09
4.71448e-09
4.7145e-09
4.71436e-09
4.71441e-09
4.71441e-09
4.62537e-09
4.62541e-09
4.62536e-09
4.62539e-09
4.62537e-09
4.62538e-09
4.62538e-09
4.62537e-09
4.62538e-09
4.62536e-09
4.62536e-09
4.53914e-09
4.53911e-09
4.53915e-09
4.53911e-09
4.53918e-09
4.53913e-09
4.53926e-09
4.53925e-09
4.53948e-09
4.53956e-09
4.53997e-09
4.5402e-09
4.5402e-09
4.45664e-09
4.45718e-09
4.4584e-09
4.45955e-09
4.46138e-09
4.46226e-09
4.46326e-09
4.46011e-09
4.45639e-09
4.44525e-09
)
;
    }
}


// ************************************************************************* //
