/*--------------------------------*- C++ -*----------------------------------*\
| =========                 |                                                 |
| \\      /  F ield         | OpenFOAM: The Open Source CFD Toolbox           |
|  \\    /   O peration     | Version:  dev                                   |
|   \\  /    A nd           | Web:      www.OpenFOAM.org                      |
|    \\/     M anipulation  |                                                 |
\*---------------------------------------------------------------------------*/
FoamFile
{
    version     2.0;
    format      ascii;
    class       volScalarField;
    location    "0.055";
    object      A2C2HA*;
}
// * * * * * * * * * * * * * * * * * * * * * * * * * * * * * * * * * * * * * //

dimensions      [0 0 0 0 0 0 0];

internalField   nonuniform List<scalar> 
250
(
1.67037e-12
1.67784e-12
1.66644e-12
1.69182e-12
1.66641e-12
1.77404e-12
1.80037e-12
2.76422e-12
5.66905e-12
5.55107e-11
1.52499e-12
1.53275e-12
1.52141e-12
1.54547e-12
1.52182e-12
1.62017e-12
1.64255e-12
2.50216e-12
4.90812e-12
4.61246e-11
9.55338e-12
4.34941e-12
2.1071e-12
1.55141e-12
1.42901e-12
1.40305e-12
1.39901e-12
1.39334e-12
1.39754e-12
1.39512e-12
1.39274e-12
1.40038e-12
1.38953e-12
1.41187e-12
1.3903e-12
1.4793e-12
1.49825e-12
2.259e-12
4.22631e-12
3.74104e-11
8.09077e-12
3.70983e-12
1.88611e-12
1.41408e-12
1.30658e-12
1.28304e-12
1.2793e-12
1.27382e-12
1.27787e-12
1.2753e-12
1.27312e-12
1.28034e-12
1.27027e-12
1.29059e-12
1.2713e-12
1.35093e-12
1.36702e-12
2.03413e-12
3.61458e-12
3.09658e-11
6.78058e-12
3.14276e-12
1.68706e-12
1.29004e-12
1.19637e-12
1.17519e-12
1.17177e-12
1.16663e-12
1.1704e-12
1.16788e-12
1.16593e-12
1.17252e-12
1.1634e-12
1.18154e-12
1.16462e-12
1.23497e-12
1.24875e-12
1.82751e-12
3.09781e-12
2.42442e-11
5.62861e-12
2.68985e-12
1.50928e-12
1.17911e-12
1.09827e-12
1.07935e-12
1.07626e-12
1.07157e-12
1.07496e-12
1.07264e-12
1.07093e-12
1.07677e-12
1.06869e-12
1.08461e-12
1.07003e-12
1.13143e-12
1.14321e-12
1.63935e-12
2.64396e-12
1.86383e-11
4.61188e-12
2.29348e-12
1.35204e-12
1.08066e-12
1.01161e-12
9.94839e-13
9.92062e-13
9.87866e-13
9.9085e-13
9.88772e-13
9.87316e-13
9.92395e-13
9.85361e-13
9.99189e-13
9.86738e-13
1.03997e-12
1.04955e-12
1.46968e-12
2.25105e-12
1.41782e-11
3.75633e-12
1.952e-12
1.2134e-12
9.9295e-13
9.34664e-13
9.19793e-13
9.17326e-13
9.13326e-13
9.16187e-13
9.14215e-13
9.12768e-13
9.17555e-13
9.10853e-13
9.23551e-13
9.12074e-13
9.59278e-13
9.65711e-13
1.3178e-12
1.91272e-12
1.1146e-11
3.01336e-12
1.65681e-12
1.08986e-12
9.10114e-13
8.59543e-13
8.4712e-13
8.44964e-13
8.41136e-13
8.43805e-13
8.41755e-13
8.40509e-13
8.44895e-13
8.38892e-13
8.5023e-13
8.40203e-13
8.80573e-13
8.84518e-13
1.18176e-12
1.61847e-12
8.55493e-12
2.40541e-12
1.39919e-12
9.66216e-13
8.30925e-13
7.88107e-13
7.77198e-13
7.75384e-13
7.71513e-13
7.74227e-13
7.71983e-13
7.70789e-13
7.75262e-13
7.69265e-13
7.80479e-13
7.70382e-13
8.08098e-13
8.06239e-13
1.05878e-12
1.35049e-12
6.16337e-12
1.89966e-12
1.17113e-12
8.53477e-13
7.4786e-13
7.11601e-13
7.01919e-13
7.00491e-13
6.96348e-13
6.99319e-13
6.96666e-13
6.95455e-13
7.00347e-13
6.93968e-13
7.05742e-13
6.94825e-13
7.31803e-13
7.22838e-13
9.28341e-13
1.12103e-12
4.57692e-12
1.48007e-12
9.65232e-13
7.38442e-13
6.56958e-13
6.2631e-13
6.17671e-13
6.1667e-13
6.12164e-13
6.15497e-13
6.12339e-13
6.11083e-13
6.16533e-13
6.09609e-13
6.22204e-13
6.10185e-13
6.47296e-13
6.31223e-13
8.10226e-13
9.13125e-13
3.33858e-12
1.13248e-12
7.77155e-13
6.19727e-13
5.57708e-13
5.3197e-13
5.2438e-13
5.23811e-13
5.19048e-13
5.22683e-13
5.19102e-13
5.17829e-13
5.23701e-13
5.16391e-13
5.29492e-13
5.16708e-13
5.53399e-13
5.31813e-13
6.8809e-13
7.24821e-13
2.38702e-12
4.19848e-13
4.25767e-13
4.18507e-13
4.31321e-13
4.18632e-13
4.53175e-13
4.28946e-13
5.62905e-13
5.5677e-13
1.66697e-12
)
;

boundaryField
{
    fuel
    {
        type            fixedValue;
        value           nonuniform 0();
    }
    wall
    {
        type            zeroGradient;
    }
    outlet
    {
        type            zeroGradient;
    }
    frontAndBack
    {
        type            empty;
    }
    procBoundary0to1
    {
        type            processor;
        value           nonuniform List<scalar> 
21
(
8.45988e-13
6.06181e-13
5.00032e-13
4.53633e-13
4.32483e-13
4.2602e-13
4.25847e-13
4.21099e-13
4.24823e-13
4.21073e-13
4.21073e-13
3.23924e-13
3.29447e-13
3.22736e-13
3.34398e-13
3.22717e-13
3.53225e-13
3.29327e-13
4.40119e-13
4.11352e-13
1.13328e-12
)
;
    }
    procBoundary0to2
    {
        type            processor;
        value           nonuniform List<scalar> 
12
(
1.67313e-12
1.11699e-11
5.06328e-12
2.3478e-12
1.70205e-12
1.5637e-12
1.53527e-12
1.53097e-12
1.52541e-12
1.52949e-12
1.52755e-12
1.52755e-12
)
;
    }
    procBoundary0to3
    {
        type            processor;
        value           nonuniform List<scalar> 10(1.82977e-12 1.83652e-12 1.82551e-12 1.85188e-12 1.82489e-12 1.94224e-12 1.97232e-12 3.10093e-12 6.51572e-12 6.5887e-11);
    }
}


// ************************************************************************* //
