/*--------------------------------*- C++ -*----------------------------------*\
| =========                 |                                                 |
| \\      /  F ield         | OpenFOAM: The Open Source CFD Toolbox           |
|  \\    /   O peration     | Version:  dev                                   |
|   \\  /    A nd           | Web:      www.OpenFOAM.org                      |
|    \\/     M anipulation  |                                                 |
\*---------------------------------------------------------------------------*/
FoamFile
{
    version     2.0;
    format      ascii;
    class       volScalarField;
    location    "0.055";
    object      A3-4;
}
// * * * * * * * * * * * * * * * * * * * * * * * * * * * * * * * * * * * * * //

dimensions      [0 0 0 0 0 0 0];

internalField   nonuniform List<scalar> 
25
(
3.25487e-11
7.79564e-12
1.83988e-12
4.42773e-13
1.1075e-13
2.94053e-14
8.66276e-15
3.06267e-15
1.35717e-15
7.51464e-16
4.90324e-16
3.53217e-16
2.68713e-16
2.10115e-16
1.66637e-16
1.33478e-16
1.08283e-16
8.97856e-17
7.72837e-17
7.04276e-17
6.90766e-17
7.33236e-17
8.35446e-17
1.004e-16
1.24874e-16
)
;

boundaryField
{
    wall
    {
        type            zeroGradient;
    }
    fuel
    {
        type            fixedValue;
        value           uniform 0;
    }
    outlet
    {
        type            inletOutlet;
        inletValue      nonuniform 0();
        value           nonuniform 0();
    }
    procBoundary0to1
    {
        type            processor;
        value           uniform 1.58284e-16;
    }
}


// ************************************************************************* //
