/*--------------------------------*- C++ -*----------------------------------*\
| =========                 |                                                 |
| \\      /  F ield         | OpenFOAM: The Open Source CFD Toolbox           |
|  \\    /   O peration     | Version:  dev                                   |
|   \\  /    A nd           | Web:      www.OpenFOAM.org                      |
|    \\/     M anipulation  |                                                 |
\*---------------------------------------------------------------------------*/
FoamFile
{
    version     2.0;
    format      ascii;
    class       volScalarField;
    location    "0.055";
    object      A3C2H2;
}
// * * * * * * * * * * * * * * * * * * * * * * * * * * * * * * * * * * * * * //

dimensions      [0 0 0 0 0 0 0];

internalField   nonuniform List<scalar> 
250
(
1.63e-16
1.63239e-16
1.62798e-16
1.63449e-16
1.64643e-16
1.67719e-16
1.87418e-16
2.5985e-16
7.14218e-16
6.39174e-16
1.50138e-16
1.50354e-16
1.4996e-16
1.50569e-16
1.51677e-16
1.54524e-16
1.72301e-16
2.32967e-16
5.93592e-16
5.86021e-16
5.88192e-16
4.51586e-16
2.10637e-16
1.61046e-16
1.44523e-16
1.40336e-16
1.3993e-16
1.38491e-16
1.39435e-16
1.38662e-16
1.38856e-16
1.39053e-16
1.387e-16
1.39271e-16
1.40295e-16
1.42926e-16
1.58952e-16
2.10252e-16
4.98589e-16
5.38163e-16
5.63452e-16
3.95567e-16
1.9307e-16
1.4905e-16
1.34103e-16
1.30265e-16
1.2989e-16
1.28561e-16
1.29434e-16
1.2871e-16
1.28888e-16
1.29071e-16
1.28754e-16
1.2929e-16
1.30234e-16
1.32657e-16
1.47089e-16
1.90731e-16
4.15285e-16
4.94301e-16
5.36722e-16
3.50186e-16
1.77382e-16
1.38235e-16
1.24757e-16
1.21249e-16
1.20905e-16
1.19672e-16
1.20487e-16
1.19802e-16
1.19972e-16
1.20146e-16
1.19858e-16
1.20362e-16
1.21234e-16
1.23457e-16
1.36435e-16
1.73782e-16
3.5562e-16
4.53891e-16
5.0774e-16
3.1257e-16
1.63111e-16
1.2834e-16
1.16234e-16
1.13037e-16
1.12726e-16
1.11573e-16
1.12344e-16
1.11687e-16
1.1185e-16
1.12021e-16
1.11754e-16
1.12232e-16
1.13038e-16
1.15066e-16
1.26713e-16
1.58807e-16
3.07428e-16
4.16245e-16
4.76323e-16
2.80422e-16
1.49834e-16
1.19103e-16
1.08291e-16
1.05387e-16
1.05109e-16
1.04019e-16
1.04761e-16
1.04119e-16
1.04278e-16
1.0445e-16
1.04198e-16
1.04654e-16
1.05403e-16
1.07241e-16
1.17655e-16
1.45288e-16
2.67979e-16
3.80799e-16
4.42314e-16
2.51986e-16
1.37197e-16
1.1028e-16
1.00703e-16
9.80783e-17
9.78362e-17
9.67921e-17
9.75193e-17
9.68814e-17
9.70368e-17
9.72148e-17
9.69713e-17
9.74098e-17
9.81093e-17
9.97621e-17
1.0899e-16
1.3279e-16
2.35069e-16
3.47004e-16
4.05676e-16
2.2598e-16
1.24963e-16
1.01667e-16
9.26875e-17
9.03862e-17
9.01924e-17
8.91987e-17
8.99117e-17
8.927e-17
8.94226e-17
8.96126e-17
8.93799e-17
8.98015e-17
9.04367e-17
9.1847e-17
1.00532e-16
1.20575e-16
2.06892e-16
3.14341e-16
3.66628e-16
2.01537e-16
1.13046e-16
9.31022e-17
8.51702e-17
8.31185e-17
8.29649e-17
8.2001e-17
8.27147e-17
8.2063e-17
8.2215e-17
8.24143e-17
8.21845e-17
8.25903e-17
8.31817e-17
8.4405e-17
9.21347e-17
1.09093e-16
1.82089e-16
2.82413e-16
3.25742e-16
1.7816e-16
1.01321e-16
8.45492e-17
7.75737e-17
7.57729e-17
7.56594e-17
7.4725e-17
7.54393e-17
7.47785e-17
7.49299e-17
7.51371e-17
7.49099e-17
7.5298e-17
7.58468e-17
7.68861e-17
8.37258e-17
9.78912e-17
1.59684e-16
2.51054e-16
2.83977e-16
1.5569e-16
8.98358e-17
7.60258e-17
6.99183e-17
6.83724e-17
6.82972e-17
6.73972e-17
6.81066e-17
6.74433e-17
6.7593e-17
6.78047e-17
6.75817e-17
6.79486e-17
6.84544e-17
6.93166e-17
7.53196e-17
8.69616e-17
1.39079e-16
2.19774e-16
2.42645e-16
1.34247e-16
7.87258e-17
6.75931e-17
6.23355e-17
6.10125e-17
6.09721e-17
6.01152e-17
6.08103e-17
6.01545e-17
6.03009e-17
6.05125e-17
6.02965e-17
6.06382e-17
6.10996e-17
6.17964e-17
6.70103e-17
7.63977e-17
1.20001e-16
1.89818e-16
5.31944e-17
5.34014e-17
5.31953e-17
5.35084e-17
5.3924e-17
5.44717e-17
5.89455e-17
6.63564e-17
1.02412e-16
1.61251e-16
)
;

boundaryField
{
    fuel
    {
        type            fixedValue;
        value           nonuniform 0();
    }
    wall
    {
        type            zeroGradient;
    }
    outlet
    {
        type            zeroGradient;
    }
    frontAndBack
    {
        type            empty;
    }
    procBoundary0to1
    {
        type            processor;
        value           nonuniform List<scalar> 
21
(
2.02962e-16
1.14081e-16
6.8178e-17
5.94099e-17
5.4959e-17
5.38355e-17
5.38241e-17
5.30207e-17
5.36902e-17
5.30536e-17
5.30536e-17
4.6422e-17
4.66211e-17
4.64277e-17
4.67086e-17
4.70785e-17
4.74961e-17
5.12866e-17
5.70029e-17
8.63751e-17
1.34627e-16
)
;
    }
    procBoundary0to2
    {
        type            processor;
        value           nonuniform List<scalar> 
12
(
1.62818e-16
6.10564e-16
5.25617e-16
2.30646e-16
1.74512e-16
1.56289e-16
1.51742e-16
1.51302e-16
1.49746e-16
1.50769e-16
1.49941e-16
1.49941e-16
)
;
    }
    procBoundary0to3
    {
        type            processor;
        value           nonuniform List<scalar> 10(1.77746e-16 1.78015e-16 1.77519e-16 1.78213e-16 1.79494e-16 1.82813e-16 2.06019e-16 2.91078e-16 8.66942e-16 7.01947e-16);
    }
}


// ************************************************************************* //
