/*--------------------------------*- C++ -*----------------------------------*\
| =========                 |                                                 |
| \\      /  F ield         | OpenFOAM: The Open Source CFD Toolbox           |
|  \\    /   O peration     | Version:  dev                                   |
|   \\  /    A nd           | Web:      www.OpenFOAM.org                      |
|    \\/     M anipulation  |                                                 |
\*---------------------------------------------------------------------------*/
FoamFile
{
    version     2.0;
    format      ascii;
    class       volScalarField;
    location    "0.055";
    object      A3C2H;
}
// * * * * * * * * * * * * * * * * * * * * * * * * * * * * * * * * * * * * * //

dimensions      [0 0 0 0 0 0 0];

internalField   nonuniform List<scalar> 
250
(
2.04611e-11
2.04788e-11
2.04344e-11
2.04974e-11
2.06389e-11
2.10514e-11
2.36376e-11
3.44534e-11
1.10918e-10
1.14252e-10
1.91514e-11
1.91652e-11
1.91274e-11
1.91846e-11
1.93148e-11
1.97016e-11
2.20341e-11
3.11738e-11
9.15073e-11
1.04859e-10
1.0257e-10
6.7871e-11
2.84313e-11
2.09484e-11
1.87564e-11
1.82267e-11
1.81615e-11
1.80269e-11
1.8111e-11
1.80489e-11
1.80668e-11
1.80772e-11
1.80454e-11
1.8097e-11
1.82165e-11
1.85797e-11
2.06851e-11
2.85037e-11
7.65725e-11
9.58819e-11
9.76737e-11
5.9601e-11
2.65461e-11
1.98063e-11
1.78091e-11
1.73195e-11
1.72569e-11
1.71383e-11
1.72109e-11
1.71578e-11
1.71742e-11
1.71818e-11
1.71554e-11
1.72018e-11
1.73113e-11
1.76526e-11
1.95552e-11
2.63083e-11
6.38206e-11
8.75947e-11
9.29752e-11
5.32123e-11
2.4958e-11
1.88454e-11
1.70254e-11
1.65732e-11
1.65131e-11
1.64089e-11
1.64713e-11
1.6426e-11
1.6441e-11
1.64465e-11
1.64245e-11
1.64664e-11
1.65667e-11
1.68877e-11
1.86094e-11
2.45016e-11
5.49499e-11
8.01729e-11
8.84534e-11
4.81933e-11
2.35986e-11
1.80306e-11
1.6372e-11
1.59545e-11
1.58968e-11
1.58048e-11
1.58589e-11
1.582e-11
1.58335e-11
1.58377e-11
1.58192e-11
1.58574e-11
1.59497e-11
1.62513e-11
1.78116e-11
2.2999e-11
4.80357e-11
7.36134e-11
8.40211e-11
4.41457e-11
2.24038e-11
1.73251e-11
1.58141e-11
1.54286e-11
1.53735e-11
1.52911e-11
1.53391e-11
1.53045e-11
1.5317e-11
1.53206e-11
1.53047e-11
1.53401e-11
1.54255e-11
1.57083e-11
1.7124e-11
2.17237e-11
4.26064e-11
6.78322e-11
7.95498e-11
4.07581e-11
2.1314e-11
1.66902e-11
1.53157e-11
1.49601e-11
1.49081e-11
1.4832e-11
1.48767e-11
1.4844e-11
1.48558e-11
1.48597e-11
1.48454e-11
1.48789e-11
1.49587e-11
1.52229e-11
1.65062e-11
2.06056e-11
3.82815e-11
6.26894e-11
7.48993e-11
3.77867e-11
2.02746e-11
1.60875e-11
1.48084e-11
1.44855e-11
1.44377e-11
1.43659e-11
1.44094e-11
1.43762e-11
1.43876e-11
1.4393e-11
1.43795e-11
1.4412e-11
1.44863e-11
1.47282e-11
1.59198e-11
1.95503e-11
3.4744e-11
5.80147e-11
6.99456e-11
3.50431e-11
1.92426e-11
1.54745e-11
1.43128e-11
1.40153e-11
1.39717e-11
1.39006e-11
1.39459e-11
1.39098e-11
1.39213e-11
1.39287e-11
1.39149e-11
1.39472e-11
1.40179e-11
1.42397e-11
1.53258e-11
1.85522e-11
3.17377e-11
5.36334e-11
6.46065e-11
3.23871e-11
1.81724e-11
1.48211e-11
1.37642e-11
1.34932e-11
1.34547e-11
1.33817e-11
1.34313e-11
1.33899e-11
1.34021e-11
1.34121e-11
1.33973e-11
1.34299e-11
1.34977e-11
1.36981e-11
1.46891e-11
1.75368e-11
2.90601e-11
4.93913e-11
5.88609e-11
2.97239e-11
1.70332e-11
1.40988e-11
1.31364e-11
1.28935e-11
1.28607e-11
1.27843e-11
1.28397e-11
1.27916e-11
1.28047e-11
1.28177e-11
1.28014e-11
1.28345e-11
1.28999e-11
1.30778e-11
1.39806e-11
1.64671e-11
2.65596e-11
4.50923e-11
5.27593e-11
2.70019e-11
1.58071e-11
1.32819e-11
1.24154e-11
1.21975e-11
1.21709e-11
1.20903e-11
1.21525e-11
1.20966e-11
1.21108e-11
1.21272e-11
1.2109e-11
1.21426e-11
1.22058e-11
1.23603e-11
1.31795e-11
1.53189e-11
2.41321e-11
4.07768e-11
1.13113e-11
1.13308e-11
1.13109e-11
1.13445e-11
1.14054e-11
1.15362e-11
1.22746e-11
1.40817e-11
2.17161e-11
3.63588e-11
)
;

boundaryField
{
    fuel
    {
        type            fixedValue;
        value           nonuniform 0();
    }
    wall
    {
        type            zeroGradient;
    }
    outlet
    {
        type            zeroGradient;
    }
    frontAndBack
    {
        type            empty;
    }
    procBoundary0to1
    {
        type            processor;
        value           nonuniform List<scalar> 
21
(
4.63951e-11
2.42042e-11
1.44892e-11
1.23608e-11
1.15901e-11
1.13955e-11
1.13753e-11
1.12907e-11
1.13599e-11
1.12959e-11
1.12959e-11
1.04076e-11
1.04302e-11
1.04088e-11
1.04414e-11
1.04997e-11
1.06071e-11
1.12664e-11
1.27597e-11
1.92873e-11
3.18669e-11
)
;
    }
    procBoundary0to2
    {
        type            processor;
        value           nonuniform List<scalar> 
12
(
2.04416e-11
1.07579e-10
7.91377e-11
3.06852e-11
2.23058e-11
1.98993e-11
1.9327e-11
1.92588e-11
1.91071e-11
1.92037e-11
1.91322e-11
1.91322e-11
)
;
    }
    procBoundary0to3
    {
        type            processor;
        value           nonuniform List<scalar> 10(2.20313e-11 2.20536e-11 2.20017e-11 2.20709e-11 2.22237e-11 2.26647e-11 2.5684e-11 3.83609e-11 1.35782e-10 1.23806e-10);
    }
}


// ************************************************************************* //
