/*--------------------------------*- C++ -*----------------------------------*\
| =========                 |                                                 |
| \\      /  F ield         | OpenFOAM: The Open Source CFD Toolbox           |
|  \\    /   O peration     | Version:  dev                                   |
|   \\  /    A nd           | Web:      www.OpenFOAM.org                      |
|    \\/     M anipulation  |                                                 |
\*---------------------------------------------------------------------------*/
FoamFile
{
    version     2.0;
    format      ascii;
    class       volScalarField;
    location    "0.055";
    object      C;
}
// * * * * * * * * * * * * * * * * * * * * * * * * * * * * * * * * * * * * * //

dimensions      [0 0 0 0 0 0 0];

internalField   nonuniform List<scalar> 
2014
(
5.37529e-09
5.40696e-09
5.44056e-09
5.45872e-09
5.46692e-09
5.47109e-09
5.47087e-09
5.471e-09
5.46968e-09
5.4693e-09
5.46827e-09
5.468e-09
5.46734e-09
5.4672e-09
5.4668e-09
5.46676e-09
5.46652e-09
5.46654e-09
5.4664e-09
5.46641e-09
5.46632e-09
5.46633e-09
5.46627e-09
5.46628e-09
5.46626e-09
5.46626e-09
5.46628e-09
5.46627e-09
5.46633e-09
5.46632e-09
5.46641e-09
5.4664e-09
5.46654e-09
5.46652e-09
5.46677e-09
5.46681e-09
5.46721e-09
5.46735e-09
5.46801e-09
5.46829e-09
5.46931e-09
5.4697e-09
5.47102e-09
5.47088e-09
5.47111e-09
5.46695e-09
5.45874e-09
5.44059e-09
5.407e-09
5.37532e-09
5.26877e-09
5.29943e-09
5.3317e-09
5.34904e-09
5.35688e-09
5.36082e-09
5.36052e-09
5.36057e-09
5.35923e-09
5.35879e-09
5.35775e-09
5.35744e-09
5.35678e-09
5.35662e-09
5.35622e-09
5.35617e-09
5.35593e-09
5.35594e-09
5.3558e-09
5.35581e-09
5.35572e-09
5.35572e-09
5.35567e-09
5.35568e-09
5.35566e-09
5.35566e-09
5.35568e-09
5.35567e-09
5.35573e-09
5.35572e-09
5.35581e-09
5.3558e-09
5.35594e-09
5.35593e-09
5.35618e-09
5.35623e-09
5.35663e-09
5.35679e-09
5.35745e-09
5.35777e-09
5.35881e-09
5.35925e-09
5.36059e-09
5.36054e-09
5.36084e-09
5.3569e-09
5.34907e-09
5.33173e-09
5.29947e-09
5.26881e-09
5.16594e-09
5.19572e-09
5.22666e-09
5.24323e-09
5.25069e-09
5.25441e-09
5.25403e-09
5.25399e-09
5.25263e-09
5.25213e-09
5.25108e-09
5.25073e-09
5.25006e-09
5.24989e-09
5.24949e-09
5.24943e-09
5.24918e-09
5.24919e-09
5.24905e-09
5.24906e-09
5.24896e-09
5.24897e-09
5.24891e-09
5.24892e-09
5.2489e-09
5.2489e-09
5.24892e-09
5.24891e-09
5.24897e-09
5.24896e-09
5.24906e-09
5.24905e-09
5.24919e-09
5.24919e-09
5.24943e-09
5.24949e-09
5.2499e-09
5.25007e-09
5.25074e-09
5.25109e-09
5.25215e-09
5.25264e-09
5.25401e-09
5.25405e-09
5.25443e-09
5.25072e-09
5.24326e-09
5.2267e-09
5.19576e-09
5.16599e-09
5.06611e-09
5.09511e-09
5.12471e-09
5.14054e-09
5.14763e-09
5.15112e-09
5.15066e-09
5.15053e-09
5.14913e-09
5.14859e-09
5.14751e-09
5.14714e-09
5.14646e-09
5.14627e-09
5.14586e-09
5.14579e-09
5.14554e-09
5.14555e-09
5.1454e-09
5.14541e-09
5.14532e-09
5.14532e-09
5.14526e-09
5.14527e-09
5.14525e-09
5.14526e-09
5.14527e-09
5.14526e-09
5.14532e-09
5.14532e-09
5.14541e-09
5.1454e-09
5.14555e-09
5.14555e-09
5.1458e-09
5.14587e-09
5.14627e-09
5.14646e-09
5.14714e-09
5.14752e-09
5.1486e-09
5.14915e-09
5.15055e-09
5.15068e-09
5.15115e-09
5.14766e-09
5.14058e-09
5.12475e-09
5.09516e-09
5.06616e-09
4.96868e-09
4.99694e-09
5.02531e-09
5.04039e-09
5.04709e-09
5.05036e-09
5.04979e-09
5.04958e-09
5.04815e-09
5.04755e-09
5.04645e-09
5.04604e-09
5.04535e-09
5.04515e-09
5.04474e-09
5.04466e-09
5.04441e-09
5.04441e-09
5.04426e-09
5.04426e-09
5.04417e-09
5.04417e-09
5.04412e-09
5.04412e-09
5.04411e-09
5.04411e-09
5.04412e-09
5.04412e-09
5.04417e-09
5.04417e-09
5.04426e-09
5.04426e-09
5.04441e-09
5.04441e-09
5.04466e-09
5.04474e-09
5.04515e-09
5.04536e-09
5.04605e-09
5.04646e-09
5.04756e-09
5.04816e-09
5.0496e-09
5.04981e-09
5.05038e-09
5.04711e-09
5.04042e-09
5.02536e-09
4.99699e-09
4.96873e-09
4.87319e-09
4.90076e-09
4.92792e-09
4.94226e-09
4.94856e-09
4.95161e-09
4.95094e-09
4.95064e-09
4.94917e-09
4.94852e-09
4.94739e-09
4.94695e-09
4.94625e-09
4.94603e-09
4.94562e-09
4.94553e-09
4.94528e-09
4.94527e-09
4.94512e-09
4.94512e-09
4.94503e-09
4.94503e-09
4.94498e-09
4.94498e-09
4.94497e-09
4.94497e-09
4.94498e-09
4.94498e-09
4.94503e-09
4.94503e-09
4.94512e-09
4.94512e-09
4.94527e-09
4.94528e-09
4.94553e-09
4.94562e-09
4.94604e-09
4.94626e-09
4.94696e-09
4.9474e-09
4.94853e-09
4.94918e-09
4.95066e-09
4.95096e-09
4.95163e-09
4.94859e-09
4.94229e-09
4.92796e-09
4.90082e-09
4.87325e-09
4.77925e-09
4.80616e-09
4.8321e-09
4.84573e-09
4.85164e-09
4.85446e-09
4.85369e-09
4.85329e-09
4.85178e-09
4.85108e-09
4.84992e-09
4.84945e-09
4.84874e-09
4.84851e-09
4.84809e-09
4.84799e-09
4.84774e-09
4.84772e-09
4.84757e-09
4.84757e-09
4.84748e-09
4.84748e-09
4.84742e-09
4.84743e-09
4.84741e-09
4.84741e-09
4.84743e-09
4.84742e-09
4.84748e-09
4.84748e-09
4.84757e-09
4.84757e-09
4.84772e-09
4.84774e-09
4.84799e-09
4.84809e-09
4.84851e-09
4.84875e-09
4.84946e-09
4.84994e-09
4.85109e-09
4.8518e-09
4.85331e-09
4.8537e-09
4.85448e-09
4.85167e-09
4.84577e-09
4.83215e-09
4.80623e-09
4.77931e-09
4.68652e-09
4.71279e-09
4.73753e-09
4.75048e-09
4.75598e-09
4.75857e-09
4.75768e-09
4.7572e-09
4.75564e-09
4.75489e-09
4.7537e-09
4.7532e-09
4.75248e-09
4.75223e-09
4.7518e-09
4.7517e-09
4.75144e-09
4.75142e-09
4.75127e-09
4.75127e-09
4.75117e-09
4.75117e-09
4.75111e-09
4.75112e-09
4.7511e-09
4.7511e-09
4.75112e-09
4.75112e-09
4.75117e-09
4.75117e-09
4.75126e-09
4.75127e-09
4.75142e-09
4.75144e-09
4.7517e-09
4.7518e-09
4.75223e-09
4.75248e-09
4.75321e-09
4.75371e-09
4.7549e-09
4.75566e-09
4.75721e-09
4.7577e-09
4.75859e-09
4.75601e-09
4.75051e-09
4.73758e-09
4.71287e-09
4.68659e-09
4.59473e-09
4.62036e-09
4.64392e-09
4.65619e-09
4.66129e-09
4.66365e-09
4.66264e-09
4.66206e-09
4.66046e-09
4.65965e-09
4.65843e-09
4.6579e-09
4.65717e-09
4.6569e-09
4.65647e-09
4.65636e-09
4.6561e-09
4.65607e-09
4.65592e-09
4.65591e-09
4.65582e-09
4.65581e-09
4.65576e-09
4.65576e-09
4.65575e-09
4.65575e-09
4.65576e-09
4.65576e-09
4.65581e-09
4.65582e-09
4.65591e-09
4.65592e-09
4.65607e-09
4.6561e-09
4.65636e-09
4.65647e-09
4.65691e-09
4.65717e-09
4.65791e-09
4.65844e-09
4.65966e-09
4.66048e-09
4.66208e-09
4.66266e-09
4.66367e-09
4.66131e-09
4.65623e-09
4.64396e-09
4.62045e-09
4.5948e-09
4.50365e-09
4.52862e-09
4.55101e-09
4.56263e-09
4.56732e-09
4.56944e-09
4.56831e-09
4.56764e-09
4.56599e-09
4.56513e-09
4.56387e-09
4.56332e-09
4.56257e-09
4.56229e-09
4.56185e-09
4.56173e-09
4.56147e-09
4.56143e-09
4.56128e-09
4.56127e-09
4.56118e-09
4.56117e-09
4.56112e-09
4.56112e-09
4.5611e-09
4.5611e-09
4.56112e-09
4.56112e-09
4.56117e-09
4.56118e-09
4.56127e-09
4.56128e-09
4.56143e-09
4.56147e-09
4.56173e-09
4.56185e-09
4.56229e-09
4.56257e-09
4.56332e-09
4.56389e-09
4.56514e-09
4.56601e-09
4.56766e-09
4.56833e-09
4.56946e-09
4.56735e-09
4.56267e-09
4.55106e-09
4.52872e-09
4.50373e-09
4.41307e-09
4.43737e-09
4.45861e-09
4.46959e-09
4.47387e-09
4.47575e-09
4.47449e-09
4.47373e-09
4.47203e-09
4.47111e-09
4.46982e-09
4.46924e-09
4.46847e-09
4.46818e-09
4.46773e-09
4.4676e-09
4.46734e-09
4.4673e-09
4.46715e-09
4.46714e-09
4.46704e-09
4.46704e-09
4.46698e-09
4.46698e-09
4.46697e-09
4.46697e-09
4.46698e-09
4.46698e-09
4.46703e-09
4.46704e-09
4.46714e-09
4.46715e-09
4.4673e-09
4.46734e-09
4.46761e-09
4.46773e-09
4.46818e-09
4.46848e-09
4.46924e-09
4.46984e-09
4.47113e-09
4.47205e-09
4.47375e-09
4.47451e-09
4.47577e-09
4.4739e-09
4.46963e-09
4.45866e-09
4.43748e-09
4.41316e-09
4.32285e-09
4.34643e-09
4.36654e-09
4.37689e-09
4.38077e-09
4.3824e-09
4.38101e-09
4.38016e-09
4.3784e-09
4.37743e-09
4.3761e-09
4.37549e-09
4.37471e-09
4.3744e-09
4.37395e-09
4.37381e-09
4.37354e-09
4.3735e-09
4.37335e-09
4.37333e-09
4.37324e-09
4.37323e-09
4.37317e-09
4.37318e-09
4.37316e-09
4.37316e-09
4.37318e-09
4.37317e-09
4.37323e-09
4.37324e-09
4.37333e-09
4.37335e-09
4.3735e-09
4.37354e-09
4.37381e-09
4.37395e-09
4.37441e-09
4.37471e-09
4.37549e-09
4.37612e-09
4.37745e-09
4.37842e-09
4.38018e-09
4.38103e-09
4.38243e-09
4.38079e-09
4.37693e-09
4.36659e-09
4.34655e-09
4.32294e-09
4.23282e-09
4.25564e-09
4.27465e-09
4.28438e-09
4.28785e-09
4.28924e-09
4.28772e-09
4.28677e-09
4.28496e-09
4.28394e-09
4.28257e-09
4.28192e-09
4.28113e-09
4.28081e-09
4.28034e-09
4.2802e-09
4.27993e-09
4.27989e-09
4.27973e-09
4.27971e-09
4.27961e-09
4.27961e-09
4.27955e-09
4.27955e-09
4.27954e-09
4.27954e-09
4.27955e-09
4.27955e-09
4.27961e-09
4.27961e-09
4.27971e-09
4.27973e-09
4.27989e-09
4.27993e-09
4.28021e-09
4.28035e-09
4.28081e-09
4.28113e-09
4.28193e-09
4.28258e-09
4.28395e-09
4.28498e-09
4.28679e-09
4.28774e-09
4.28927e-09
4.28788e-09
4.28443e-09
4.27471e-09
4.25577e-09
4.23292e-09
4.14286e-09
4.16488e-09
4.18282e-09
4.19195e-09
4.195e-09
4.19615e-09
4.19449e-09
4.19344e-09
4.19158e-09
4.1905e-09
4.18909e-09
4.18841e-09
4.1876e-09
4.18727e-09
4.1868e-09
4.18665e-09
4.18638e-09
4.18633e-09
4.18617e-09
4.18615e-09
4.18605e-09
4.18604e-09
4.18599e-09
4.18599e-09
4.18597e-09
4.18597e-09
4.18599e-09
4.18599e-09
4.18604e-09
4.18605e-09
4.18615e-09
4.18617e-09
4.18633e-09
4.18638e-09
4.18665e-09
4.1868e-09
4.18727e-09
4.18761e-09
4.18842e-09
4.1891e-09
4.19051e-09
4.19159e-09
4.19346e-09
4.19451e-09
4.19617e-09
4.19503e-09
4.192e-09
4.18287e-09
4.16503e-09
4.14297e-09
4.05286e-09
4.07405e-09
4.09093e-09
4.09948e-09
4.1021e-09
4.103e-09
4.10121e-09
4.10006e-09
4.09815e-09
4.09701e-09
4.09556e-09
4.09485e-09
4.09403e-09
4.09368e-09
4.09321e-09
4.09305e-09
4.09277e-09
4.09272e-09
4.09256e-09
4.09254e-09
4.09244e-09
4.09243e-09
4.09237e-09
4.09237e-09
4.09236e-09
4.09236e-09
4.09237e-09
4.09237e-09
4.09243e-09
4.09244e-09
4.09254e-09
4.09255e-09
4.09272e-09
4.09277e-09
4.09305e-09
4.09321e-09
4.09369e-09
4.09403e-09
4.09486e-09
4.09557e-09
4.09702e-09
4.09816e-09
4.10008e-09
4.10123e-09
4.10303e-09
4.10213e-09
4.09953e-09
4.09098e-09
4.07422e-09
4.05298e-09
3.96271e-09
3.98307e-09
3.99889e-09
4.00687e-09
4.00906e-09
4.00972e-09
4.00779e-09
4.00655e-09
4.00457e-09
4.00338e-09
4.00188e-09
4.00115e-09
4.00031e-09
3.99995e-09
3.99947e-09
3.99931e-09
3.99903e-09
3.99897e-09
3.9988e-09
3.99878e-09
3.99868e-09
3.99867e-09
3.99862e-09
3.99862e-09
3.9986e-09
3.9986e-09
3.99862e-09
3.99862e-09
3.99867e-09
3.99868e-09
3.99878e-09
3.9988e-09
3.99897e-09
3.99903e-09
3.99931e-09
3.99947e-09
3.99996e-09
4.00032e-09
4.00115e-09
4.00189e-09
4.00339e-09
4.00458e-09
4.00656e-09
4.00781e-09
4.00974e-09
4.00909e-09
4.00693e-09
3.99894e-09
3.98326e-09
3.96285e-09
3.87235e-09
3.89185e-09
3.90663e-09
3.91405e-09
3.91581e-09
3.91622e-09
3.91415e-09
3.91281e-09
3.91078e-09
3.90954e-09
3.90799e-09
3.90723e-09
3.90638e-09
3.90601e-09
3.90552e-09
3.90535e-09
3.90506e-09
3.905e-09
3.90483e-09
3.90481e-09
3.90471e-09
3.9047e-09
3.90464e-09
3.90464e-09
3.90462e-09
3.90462e-09
3.90464e-09
3.90464e-09
3.9047e-09
3.90471e-09
3.90481e-09
3.90483e-09
3.905e-09
3.90506e-09
3.90535e-09
3.90552e-09
3.90601e-09
3.90638e-09
3.90723e-09
3.908e-09
3.90955e-09
3.91079e-09
3.91282e-09
3.91417e-09
3.91624e-09
3.91584e-09
3.9141e-09
3.90668e-09
3.89206e-09
3.87249e-09
3.78168e-09
3.80033e-09
3.81407e-09
3.82094e-09
3.82227e-09
3.82244e-09
3.82023e-09
3.81879e-09
3.8167e-09
3.81541e-09
3.81381e-09
3.81302e-09
3.81216e-09
3.81178e-09
3.81128e-09
3.81111e-09
3.81081e-09
3.81075e-09
3.81058e-09
3.81056e-09
3.81045e-09
3.81044e-09
3.81038e-09
3.81038e-09
3.81037e-09
3.81037e-09
3.81038e-09
3.81038e-09
3.81044e-09
3.81045e-09
3.81055e-09
3.81058e-09
3.81075e-09
3.81081e-09
3.8111e-09
3.81128e-09
3.81178e-09
3.81216e-09
3.81303e-09
3.81382e-09
3.81542e-09
3.81672e-09
3.8188e-09
3.82025e-09
3.82246e-09
3.8223e-09
3.821e-09
3.81411e-09
3.80056e-09
3.78183e-09
3.69066e-09
3.70845e-09
3.72116e-09
3.72749e-09
3.72839e-09
3.72832e-09
3.72597e-09
3.72443e-09
3.72229e-09
3.72094e-09
3.71929e-09
3.71848e-09
3.7176e-09
3.71721e-09
3.7167e-09
3.71653e-09
3.71623e-09
3.71616e-09
3.71599e-09
3.71597e-09
3.71586e-09
3.71585e-09
3.71579e-09
3.71579e-09
3.71577e-09
3.71577e-09
3.71579e-09
3.71579e-09
3.71585e-09
3.71586e-09
3.71596e-09
3.71599e-09
3.71616e-09
3.71623e-09
3.71652e-09
3.7167e-09
3.71721e-09
3.7176e-09
3.71848e-09
3.7193e-09
3.72095e-09
3.7223e-09
3.72444e-09
3.72598e-09
3.72834e-09
3.72842e-09
3.72755e-09
3.7212e-09
3.7087e-09
3.69081e-09
3.59922e-09
3.61617e-09
3.62787e-09
3.63365e-09
3.63414e-09
3.63381e-09
3.63133e-09
3.62969e-09
3.6275e-09
3.62609e-09
3.62439e-09
3.62355e-09
3.62266e-09
3.62226e-09
3.62175e-09
3.62157e-09
3.62127e-09
3.6212e-09
3.62102e-09
3.621e-09
3.62089e-09
3.62088e-09
3.62082e-09
3.62082e-09
3.6208e-09
3.6208e-09
3.62082e-09
3.62082e-09
3.62088e-09
3.62089e-09
3.62099e-09
3.62102e-09
3.62119e-09
3.62127e-09
3.62156e-09
3.62175e-09
3.62226e-09
3.62266e-09
3.62355e-09
3.6244e-09
3.6261e-09
3.62751e-09
3.6297e-09
3.63134e-09
3.63383e-09
3.63416e-09
3.63371e-09
3.62793e-09
3.61642e-09
3.59938e-09
3.50734e-09
3.52347e-09
3.53414e-09
3.53939e-09
3.53946e-09
3.53889e-09
3.53627e-09
3.53454e-09
3.53229e-09
3.53084e-09
3.52908e-09
3.52821e-09
3.52731e-09
3.5269e-09
3.52638e-09
3.5262e-09
3.52589e-09
3.52582e-09
3.52564e-09
3.52562e-09
3.52551e-09
3.5255e-09
3.52544e-09
3.52544e-09
3.52542e-09
3.52542e-09
3.52544e-09
3.52544e-09
3.5255e-09
3.52551e-09
3.52561e-09
3.52564e-09
3.52582e-09
3.52589e-09
3.52619e-09
3.52638e-09
3.5269e-09
3.52731e-09
3.52822e-09
3.52909e-09
3.53085e-09
3.5323e-09
3.53455e-09
3.53628e-09
3.53891e-09
3.53948e-09
3.53945e-09
3.53421e-09
3.52372e-09
3.50749e-09
3.41497e-09
3.4303e-09
3.43995e-09
3.44468e-09
3.44433e-09
3.44352e-09
3.44077e-09
3.43894e-09
3.43665e-09
3.43514e-09
3.43332e-09
3.43243e-09
3.43152e-09
3.4311e-09
3.43058e-09
3.43039e-09
3.43008e-09
3.43001e-09
3.42983e-09
3.4298e-09
3.42969e-09
3.42968e-09
3.42962e-09
3.42962e-09
3.4296e-09
3.4296e-09
3.42962e-09
3.42962e-09
3.42968e-09
3.42969e-09
3.4298e-09
3.42983e-09
3.43e-09
3.43008e-09
3.43039e-09
3.43058e-09
3.4311e-09
3.43153e-09
3.43244e-09
3.43333e-09
3.43515e-09
3.43666e-09
3.43895e-09
3.44078e-09
3.44354e-09
3.44436e-09
3.44474e-09
3.44003e-09
3.43055e-09
3.41513e-09
3.32211e-09
3.33665e-09
3.34527e-09
3.34949e-09
3.34874e-09
3.34769e-09
3.3448e-09
3.34288e-09
3.34055e-09
3.33899e-09
3.33711e-09
3.3362e-09
3.33528e-09
3.33485e-09
3.33433e-09
3.33413e-09
3.33382e-09
3.33374e-09
3.33356e-09
3.33353e-09
3.33342e-09
3.33341e-09
3.33335e-09
3.33335e-09
3.33333e-09
3.33333e-09
3.33335e-09
3.33335e-09
3.33341e-09
3.33342e-09
3.33353e-09
3.33356e-09
3.33374e-09
3.33382e-09
3.33412e-09
3.33432e-09
3.33485e-09
3.33528e-09
3.3362e-09
3.33712e-09
3.339e-09
3.34056e-09
3.34289e-09
3.34482e-09
3.3477e-09
3.34876e-09
3.34955e-09
3.34537e-09
3.33689e-09
3.32226e-09
3.22873e-09
3.24249e-09
3.2501e-09
3.25381e-09
3.25267e-09
3.25138e-09
3.24837e-09
3.24636e-09
3.24399e-09
3.24238e-09
3.24043e-09
3.2395e-09
3.23858e-09
3.23814e-09
3.23761e-09
3.23741e-09
3.2371e-09
3.23702e-09
3.23684e-09
3.2368e-09
3.2367e-09
3.23668e-09
3.23662e-09
3.23662e-09
3.2366e-09
3.2366e-09
3.23662e-09
3.23662e-09
3.23668e-09
3.23669e-09
3.2368e-09
3.23683e-09
3.23701e-09
3.23709e-09
3.2374e-09
3.23761e-09
3.23814e-09
3.23858e-09
3.2395e-09
3.24044e-09
3.24239e-09
3.24399e-09
3.24637e-09
3.24838e-09
3.2514e-09
3.25269e-09
3.25387e-09
3.2502e-09
3.24273e-09
3.22888e-09
3.13484e-09
3.14782e-09
3.15442e-09
3.15764e-09
3.15611e-09
3.15459e-09
3.15147e-09
3.14937e-09
3.14696e-09
3.14531e-09
3.14329e-09
3.14234e-09
3.14141e-09
3.14096e-09
3.14043e-09
3.14022e-09
3.13991e-09
3.13983e-09
3.13965e-09
3.13961e-09
3.13951e-09
3.13949e-09
3.13943e-09
3.13943e-09
3.13941e-09
3.13941e-09
3.13943e-09
3.13943e-09
3.13949e-09
3.1395e-09
3.13961e-09
3.13964e-09
3.13982e-09
3.13991e-09
3.14022e-09
3.14043e-09
3.14096e-09
3.14141e-09
3.14234e-09
3.14329e-09
3.14531e-09
3.14696e-09
3.14937e-09
3.15148e-09
3.15461e-09
3.15614e-09
3.1577e-09
3.15452e-09
3.14804e-09
3.13499e-09
3.04366e-09
3.05598e-09
3.06161e-09
3.06439e-09
3.06249e-09
3.06076e-09
3.05751e-09
3.05533e-09
3.05288e-09
3.0512e-09
3.0491e-09
3.04813e-09
3.04719e-09
3.04674e-09
3.04621e-09
3.046e-09
3.04569e-09
3.0456e-09
3.04542e-09
3.04538e-09
3.04528e-09
3.04526e-09
3.0452e-09
3.0452e-09
3.04518e-09
3.04518e-09
3.0452e-09
3.0452e-09
3.04526e-09
3.04527e-09
3.04538e-09
3.04541e-09
3.0456e-09
3.04568e-09
3.04599e-09
3.0462e-09
3.04674e-09
3.04719e-09
3.04813e-09
3.0491e-09
3.0512e-09
3.05289e-09
3.05534e-09
3.05752e-09
3.06077e-09
3.06251e-09
3.06445e-09
3.06171e-09
3.05619e-09
3.0438e-09
2.95199e-09
2.96384e-09
2.96814e-09
2.97023e-09
2.96761e-09
2.96547e-09
2.96192e-09
2.95956e-09
2.95698e-09
2.95521e-09
2.95295e-09
2.95194e-09
2.95097e-09
2.9505e-09
2.94995e-09
2.94973e-09
2.94941e-09
2.94932e-09
2.94913e-09
2.94909e-09
2.94898e-09
2.94897e-09
2.9489e-09
2.9489e-09
2.94888e-09
2.94888e-09
2.9489e-09
2.9489e-09
2.94896e-09
2.94897e-09
2.94909e-09
2.94912e-09
2.94931e-09
2.9494e-09
2.94973e-09
2.94995e-09
2.9505e-09
2.95097e-09
2.95194e-09
2.95295e-09
2.95522e-09
2.95699e-09
2.95957e-09
2.96193e-09
2.96549e-09
2.96763e-09
2.97029e-09
2.96827e-09
2.96404e-09
2.95214e-09
2.85713e-09
2.86828e-09
2.87151e-09
2.8731e-09
2.87011e-09
2.86775e-09
2.86408e-09
2.86164e-09
2.85904e-09
2.85723e-09
2.85487e-09
2.85385e-09
2.85288e-09
2.85241e-09
2.85185e-09
2.85163e-09
2.85131e-09
2.85122e-09
2.85102e-09
2.85099e-09
2.85088e-09
2.85086e-09
2.8508e-09
2.8508e-09
2.85078e-09
2.85078e-09
2.8508e-09
2.8508e-09
2.85086e-09
2.85087e-09
2.85098e-09
2.85102e-09
2.85121e-09
2.8513e-09
2.85163e-09
2.85185e-09
2.85241e-09
2.85288e-09
2.85385e-09
2.85487e-09
2.85724e-09
2.85904e-09
2.86165e-09
2.86409e-09
2.86776e-09
2.87013e-09
2.87316e-09
2.87165e-09
2.86847e-09
2.85726e-09
2.7618e-09
2.7722e-09
2.7745e-09
2.77561e-09
2.77226e-09
2.76969e-09
2.76592e-09
2.7634e-09
2.76078e-09
2.75895e-09
2.75647e-09
2.75544e-09
2.75447e-09
2.754e-09
2.75344e-09
2.75322e-09
2.7529e-09
2.7528e-09
2.75261e-09
2.75257e-09
2.75246e-09
2.75245e-09
2.75238e-09
2.75238e-09
2.75236e-09
2.75236e-09
2.75238e-09
2.75238e-09
2.75244e-09
2.75245e-09
2.75257e-09
2.7526e-09
2.75279e-09
2.75289e-09
2.75321e-09
2.75344e-09
2.754e-09
2.75447e-09
2.75544e-09
2.75647e-09
2.75895e-09
2.76078e-09
2.76341e-09
2.76593e-09
2.7697e-09
2.77228e-09
2.77567e-09
2.77464e-09
2.77237e-09
2.76193e-09
2.66613e-09
2.67577e-09
2.67718e-09
2.67782e-09
2.67413e-09
2.67135e-09
2.66749e-09
2.66489e-09
2.66226e-09
2.66041e-09
2.6578e-09
2.65677e-09
2.65581e-09
2.65533e-09
2.65477e-09
2.65455e-09
2.65422e-09
2.65413e-09
2.65394e-09
2.6539e-09
2.65379e-09
2.65377e-09
2.65371e-09
2.65371e-09
2.65369e-09
2.65369e-09
2.65371e-09
2.65371e-09
2.65377e-09
2.65378e-09
2.65389e-09
2.65393e-09
2.65412e-09
2.65422e-09
2.65454e-09
2.65477e-09
2.65532e-09
2.6558e-09
2.65677e-09
2.65781e-09
2.66041e-09
2.66226e-09
2.6649e-09
2.66749e-09
2.67136e-09
2.67415e-09
2.67788e-09
2.67732e-09
2.67592e-09
2.66625e-09
2.57016e-09
2.57905e-09
2.5796e-09
2.57977e-09
2.57575e-09
2.57278e-09
2.56883e-09
2.56617e-09
2.56353e-09
2.56167e-09
2.55892e-09
2.55788e-09
2.55693e-09
2.55644e-09
2.55589e-09
2.55567e-09
2.55534e-09
2.55525e-09
2.55506e-09
2.55502e-09
2.55491e-09
2.55489e-09
2.55483e-09
2.55483e-09
2.55481e-09
2.55481e-09
2.55483e-09
2.55483e-09
2.55489e-09
2.5549e-09
2.55501e-09
2.55505e-09
2.55524e-09
2.55534e-09
2.55566e-09
2.55589e-09
2.55644e-09
2.55693e-09
2.55789e-09
2.55892e-09
2.56168e-09
2.56353e-09
2.56617e-09
2.56884e-09
2.57279e-09
2.57577e-09
2.57983e-09
2.57974e-09
2.57918e-09
2.57028e-09
2.47717e-09
2.48541e-09
2.48515e-09
2.48489e-09
2.48056e-09
2.47741e-09
2.47337e-09
2.47065e-09
2.46801e-09
2.46615e-09
2.46322e-09
2.4622e-09
2.46125e-09
2.46076e-09
2.46021e-09
2.45999e-09
2.45967e-09
2.45957e-09
2.45938e-09
2.45934e-09
2.45923e-09
2.45922e-09
2.45916e-09
2.45915e-09
2.45913e-09
2.45913e-09
2.45915e-09
2.45915e-09
2.45921e-09
2.45923e-09
2.45934e-09
2.45937e-09
2.45956e-09
2.45966e-09
2.45998e-09
2.46021e-09
2.46076e-09
2.46125e-09
2.4622e-09
2.46323e-09
2.46616e-09
2.46801e-09
2.47065e-09
2.47338e-09
2.47741e-09
2.48058e-09
2.48494e-09
2.48529e-09
2.48553e-09
2.47728e-09
2.38421e-09
2.39181e-09
2.39075e-09
2.39009e-09
2.38545e-09
2.38213e-09
2.37802e-09
2.37524e-09
2.37249e-09
2.37058e-09
2.36735e-09
2.3663e-09
2.36532e-09
2.36482e-09
2.36425e-09
2.36401e-09
2.36368e-09
2.36358e-09
2.36338e-09
2.36334e-09
2.36322e-09
2.36321e-09
2.36315e-09
2.36314e-09
2.36312e-09
2.36312e-09
2.36314e-09
2.36315e-09
2.3632e-09
2.36322e-09
2.36333e-09
2.36337e-09
2.36357e-09
2.36367e-09
2.36401e-09
2.36424e-09
2.36482e-09
2.36532e-09
2.36631e-09
2.36735e-09
2.37059e-09
2.3725e-09
2.37525e-09
2.37803e-09
2.38214e-09
2.38547e-09
2.39013e-09
2.39089e-09
2.3919e-09
2.3843e-09
2.2886e-09
2.29558e-09
2.29372e-09
2.29257e-09
2.28754e-09
2.284e-09
2.27976e-09
2.27689e-09
2.27411e-09
2.27222e-09
2.2687e-09
2.26767e-09
2.26668e-09
2.26618e-09
2.2656e-09
2.26536e-09
2.26503e-09
2.26493e-09
2.26473e-09
2.26469e-09
2.26457e-09
2.26456e-09
2.2645e-09
2.26449e-09
2.26447e-09
2.26447e-09
2.26449e-09
2.26449e-09
2.26455e-09
2.26457e-09
2.26468e-09
2.26472e-09
2.26492e-09
2.26502e-09
2.26536e-09
2.2656e-09
2.26617e-09
2.26668e-09
2.26767e-09
2.26871e-09
2.27222e-09
2.27412e-09
2.2769e-09
2.27977e-09
2.28401e-09
2.28756e-09
2.2926e-09
2.29385e-09
2.29566e-09
2.28869e-09
2.19264e-09
2.19886e-09
2.1963e-09
2.19473e-09
2.18944e-09
2.18576e-09
2.18148e-09
2.17857e-09
2.17581e-09
2.17397e-09
2.17341e-09
2.17241e-09
2.17143e-09
2.17093e-09
2.17036e-09
2.17012e-09
2.16979e-09
2.16969e-09
2.16949e-09
2.16945e-09
2.16933e-09
2.16932e-09
2.16926e-09
2.16925e-09
2.16923e-09
2.16923e-09
2.16925e-09
2.16925e-09
2.16931e-09
2.16933e-09
2.16944e-09
2.16948e-09
2.16968e-09
2.16978e-09
2.17012e-09
2.17035e-09
2.17093e-09
2.17143e-09
2.17241e-09
2.17341e-09
2.17398e-09
2.17582e-09
2.17857e-09
2.18149e-09
2.18577e-09
2.18947e-09
2.19476e-09
2.19643e-09
2.19892e-09
2.19271e-09
2.09996e-09
2.10553e-09
2.10232e-09
2.10038e-09
2.09483e-09
2.09104e-09
2.08671e-09
2.08376e-09
2.08102e-09
2.07922e-09
2.07855e-09
2.07757e-09
2.0766e-09
2.0761e-09
2.07554e-09
2.0753e-09
2.07497e-09
2.07487e-09
2.07468e-09
2.07464e-09
2.07452e-09
2.07451e-09
2.07445e-09
2.07444e-09
2.07442e-09
2.07442e-09
2.07444e-09
2.07445e-09
2.07451e-09
2.07452e-09
2.07463e-09
2.07467e-09
2.07487e-09
2.07497e-09
2.0753e-09
2.07554e-09
2.0761e-09
2.0766e-09
2.07757e-09
2.07855e-09
2.07924e-09
2.08103e-09
2.08377e-09
2.08671e-09
2.09104e-09
2.09487e-09
2.1004e-09
2.10243e-09
2.10559e-09
2.10002e-09
2.00727e-09
2.01249e-09
2.00856e-09
2.00608e-09
1.99997e-09
1.99591e-09
1.99137e-09
1.9883e-09
1.9855e-09
1.98369e-09
1.98285e-09
1.98187e-09
1.9809e-09
1.98039e-09
1.97982e-09
1.97958e-09
1.97925e-09
1.97915e-09
1.97895e-09
1.97891e-09
1.97879e-09
1.97878e-09
1.97872e-09
1.97871e-09
1.97869e-09
1.97869e-09
1.97871e-09
1.97871e-09
1.97877e-09
1.97879e-09
1.9789e-09
1.97895e-09
1.97914e-09
1.97925e-09
1.97958e-09
1.97982e-09
1.9804e-09
1.9809e-09
1.98188e-09
1.98286e-09
1.98371e-09
1.98551e-09
1.98831e-09
1.99138e-09
1.99592e-09
2.00001e-09
2.00609e-09
2.0086e-09
2.01257e-09
2.00732e-09
1.9155e-09
1.92011e-09
1.9156e-09
1.91278e-09
1.90645e-09
1.9023e-09
1.89773e-09
1.89464e-09
1.89186e-09
1.89008e-09
1.88915e-09
1.88819e-09
1.88723e-09
1.88673e-09
1.88616e-09
1.88593e-09
1.8856e-09
1.8855e-09
1.8853e-09
1.88526e-09
1.88515e-09
1.88513e-09
1.88507e-09
1.88507e-09
1.88505e-09
1.88505e-09
1.88507e-09
1.88507e-09
1.88513e-09
1.88515e-09
1.88526e-09
1.8853e-09
1.8855e-09
1.8856e-09
1.88593e-09
1.88617e-09
1.88674e-09
1.88724e-09
1.8882e-09
1.88915e-09
1.8901e-09
1.89188e-09
1.89465e-09
1.89774e-09
1.90231e-09
1.90649e-09
1.91279e-09
1.91563e-09
1.92018e-09
1.91555e-09
1.8244e-09
1.8284e-09
1.82336e-09
1.82024e-09
1.81369e-09
1.80947e-09
1.80489e-09
1.80178e-09
1.79904e-09
1.79729e-09
1.79627e-09
1.79534e-09
1.79439e-09
1.7939e-09
1.79334e-09
1.79311e-09
1.79278e-09
1.79269e-09
1.7925e-09
1.79246e-09
1.79234e-09
1.79233e-09
1.79227e-09
1.79226e-09
1.79225e-09
1.79225e-09
1.79226e-09
1.79227e-09
1.79233e-09
1.79234e-09
1.79245e-09
1.79249e-09
1.79269e-09
1.79279e-09
1.79312e-09
1.79335e-09
1.79391e-09
1.7944e-09
1.79535e-09
1.79628e-09
1.79731e-09
1.79905e-09
1.8018e-09
1.8049e-09
1.80949e-09
1.81373e-09
1.82025e-09
1.82339e-09
1.82846e-09
1.82444e-09
1.70068e-09
1.70064e-09
1.70053e-09
1.70051e-09
1.70045e-09
1.70045e-09
1.70043e-09
1.70043e-09
1.70045e-09
1.70045e-09
1.70051e-09
1.70053e-09
1.70064e-09
1.70068e-09
1.70087e-09
1.70097e-09
1.70129e-09
1.70152e-09
1.70207e-09
1.70255e-09
1.70348e-09
1.7044e-09
1.70549e-09
1.7072e-09
1.70991e-09
1.71301e-09
1.71761e-09
1.72192e-09
1.72858e-09
1.73202e-09
1.73757e-09
1.73413e-09
1.60986e-09
1.60987e-09
1.60998e-09
1.61002e-09
1.6102e-09
1.6103e-09
1.61062e-09
1.61084e-09
1.61138e-09
1.61186e-09
1.61277e-09
1.61366e-09
1.6148e-09
1.61649e-09
1.61914e-09
1.62225e-09
1.62683e-09
1.63121e-09
1.63796e-09
1.64168e-09
1.64766e-09
1.6448e-09
1.52542e-09
1.52708e-09
1.52968e-09
1.53277e-09
1.53733e-09
1.54177e-09
1.54856e-09
1.55253e-09
1.55891e-09
1.5566e-09
)
;

boundaryField
{
    fuel
    {
        type            fixedValue;
        value           nonuniform 0();
    }
    wall
    {
        type            zeroGradient;
    }
    outlet
    {
        type            zeroGradient;
    }
    frontAndBack
    {
        type            empty;
    }
    procBoundary0to1
    {
        type            processor;
        value           nonuniform List<scalar> 
50
(
5.48638e-09
5.5192e-09
5.55414e-09
5.57315e-09
5.58173e-09
5.58612e-09
5.58596e-09
5.58619e-09
5.58488e-09
5.58455e-09
5.58354e-09
5.5833e-09
5.58264e-09
5.58252e-09
5.58212e-09
5.5821e-09
5.58185e-09
5.58188e-09
5.58174e-09
5.58176e-09
5.58166e-09
5.58167e-09
5.58161e-09
5.58162e-09
5.58161e-09
5.58161e-09
5.58163e-09
5.58162e-09
5.58167e-09
5.58166e-09
5.58176e-09
5.58174e-09
5.58188e-09
5.58185e-09
5.5821e-09
5.58213e-09
5.58253e-09
5.58265e-09
5.58331e-09
5.58355e-09
5.58457e-09
5.5849e-09
5.58621e-09
5.58598e-09
5.58614e-09
5.58175e-09
5.57317e-09
5.55417e-09
5.51923e-09
5.48641e-09
)
;
    }
    procBoundary0to2
    {
        type            processor;
        value           nonuniform List<scalar> 
53
(
1.73411e-09
1.73753e-09
1.732e-09
1.72858e-09
1.72187e-09
1.71759e-09
1.713e-09
1.70989e-09
1.70719e-09
1.70546e-09
1.70439e-09
1.70347e-09
1.70255e-09
1.70206e-09
1.70151e-09
1.70128e-09
1.70096e-09
1.70087e-09
1.70087e-09
1.61002e-09
1.60998e-09
1.60987e-09
1.60986e-09
1.6098e-09
1.6098e-09
1.60978e-09
1.60978e-09
1.6098e-09
1.6098e-09
1.6098e-09
1.52053e-09
1.52054e-09
1.52065e-09
1.52069e-09
1.52087e-09
1.52096e-09
1.52127e-09
1.5215e-09
1.52202e-09
1.52249e-09
1.52337e-09
1.52424e-09
1.52424e-09
1.43752e-09
1.43915e-09
1.4417e-09
1.44476e-09
1.44929e-09
1.45378e-09
1.46055e-09
1.46476e-09
1.47149e-09
1.46971e-09
)
;
    }
}


// ************************************************************************* //
