/*--------------------------------*- C++ -*----------------------------------*\
| =========                 |                                                 |
| \\      /  F ield         | OpenFOAM: The Open Source CFD Toolbox           |
|  \\    /   O peration     | Version:  dev                                   |
|   \\  /    A nd           | Web:      www.OpenFOAM.org                      |
|    \\/     M anipulation  |                                                 |
\*---------------------------------------------------------------------------*/
FoamFile
{
    version     2.0;
    format      ascii;
    class       volScalarField;
    location    "0.055";
    object      C2H4;
}
// * * * * * * * * * * * * * * * * * * * * * * * * * * * * * * * * * * * * * //

dimensions      [0 0 0 0 0 0 0];

internalField   nonuniform List<scalar> 
2014
(
1.7587e-05
1.76102e-05
1.76314e-05
1.76418e-05
1.76451e-05
1.76473e-05
1.76463e-05
1.76468e-05
1.76458e-05
1.76461e-05
1.76455e-05
1.76458e-05
1.76455e-05
1.76457e-05
1.76455e-05
1.76456e-05
1.76455e-05
1.76456e-05
1.76455e-05
1.76456e-05
1.76456e-05
1.76456e-05
1.76456e-05
1.76456e-05
1.76456e-05
1.76456e-05
1.76456e-05
1.76456e-05
1.76456e-05
1.76456e-05
1.76456e-05
1.76455e-05
1.76456e-05
1.76455e-05
1.76456e-05
1.76455e-05
1.76457e-05
1.76455e-05
1.76458e-05
1.76455e-05
1.76461e-05
1.76458e-05
1.76467e-05
1.76462e-05
1.76473e-05
1.76451e-05
1.76418e-05
1.76314e-05
1.76102e-05
1.7587e-05
1.74479e-05
1.7471e-05
1.74919e-05
1.75022e-05
1.75055e-05
1.75077e-05
1.75066e-05
1.75071e-05
1.75062e-05
1.75065e-05
1.75059e-05
1.75062e-05
1.75059e-05
1.75061e-05
1.75059e-05
1.7506e-05
1.75059e-05
1.7506e-05
1.75059e-05
1.7506e-05
1.75059e-05
1.7506e-05
1.7506e-05
1.7506e-05
1.7506e-05
1.7506e-05
1.7506e-05
1.7506e-05
1.7506e-05
1.75059e-05
1.7506e-05
1.75059e-05
1.7506e-05
1.75059e-05
1.7506e-05
1.75058e-05
1.75061e-05
1.75058e-05
1.75062e-05
1.75059e-05
1.75064e-05
1.75061e-05
1.75071e-05
1.75066e-05
1.75077e-05
1.75054e-05
1.75022e-05
1.74919e-05
1.7471e-05
1.74478e-05
1.73141e-05
1.73372e-05
1.73578e-05
1.73678e-05
1.73711e-05
1.73733e-05
1.73723e-05
1.73728e-05
1.73718e-05
1.73721e-05
1.73716e-05
1.73719e-05
1.73715e-05
1.73717e-05
1.73715e-05
1.73717e-05
1.73716e-05
1.73717e-05
1.73716e-05
1.73717e-05
1.73716e-05
1.73717e-05
1.73717e-05
1.73717e-05
1.73717e-05
1.73717e-05
1.73717e-05
1.73716e-05
1.73717e-05
1.73716e-05
1.73717e-05
1.73716e-05
1.73717e-05
1.73716e-05
1.73717e-05
1.73715e-05
1.73717e-05
1.73715e-05
1.73718e-05
1.73716e-05
1.73721e-05
1.73718e-05
1.73727e-05
1.73723e-05
1.73733e-05
1.73711e-05
1.73678e-05
1.73577e-05
1.73372e-05
1.7314e-05
1.71851e-05
1.72083e-05
1.72284e-05
1.72384e-05
1.72416e-05
1.72438e-05
1.72428e-05
1.72433e-05
1.72424e-05
1.72426e-05
1.72421e-05
1.72424e-05
1.72421e-05
1.72423e-05
1.72421e-05
1.72423e-05
1.72421e-05
1.72423e-05
1.72422e-05
1.72423e-05
1.72422e-05
1.72422e-05
1.72422e-05
1.72422e-05
1.72422e-05
1.72422e-05
1.72422e-05
1.72422e-05
1.72422e-05
1.72422e-05
1.72422e-05
1.72422e-05
1.72422e-05
1.72421e-05
1.72422e-05
1.72421e-05
1.72423e-05
1.72421e-05
1.72424e-05
1.72421e-05
1.72426e-05
1.72423e-05
1.72433e-05
1.72428e-05
1.72438e-05
1.72416e-05
1.72383e-05
1.72284e-05
1.72083e-05
1.71851e-05
1.70608e-05
1.70839e-05
1.71037e-05
1.71134e-05
1.71166e-05
1.71188e-05
1.71178e-05
1.71183e-05
1.71174e-05
1.71177e-05
1.71172e-05
1.71174e-05
1.71171e-05
1.71173e-05
1.71171e-05
1.71173e-05
1.71172e-05
1.71173e-05
1.71172e-05
1.71173e-05
1.71173e-05
1.71173e-05
1.71173e-05
1.71173e-05
1.71173e-05
1.71173e-05
1.71173e-05
1.71173e-05
1.71173e-05
1.71173e-05
1.71173e-05
1.71172e-05
1.71173e-05
1.71172e-05
1.71173e-05
1.71171e-05
1.71173e-05
1.71171e-05
1.71174e-05
1.71172e-05
1.71177e-05
1.71174e-05
1.71183e-05
1.71178e-05
1.71188e-05
1.71166e-05
1.71134e-05
1.71037e-05
1.70839e-05
1.70608e-05
1.69407e-05
1.69638e-05
1.69832e-05
1.69927e-05
1.69959e-05
1.6998e-05
1.69971e-05
1.69975e-05
1.69967e-05
1.69969e-05
1.69965e-05
1.69967e-05
1.69964e-05
1.69966e-05
1.69964e-05
1.69966e-05
1.69965e-05
1.69966e-05
1.69965e-05
1.69966e-05
1.69966e-05
1.69966e-05
1.69966e-05
1.69966e-05
1.69966e-05
1.69966e-05
1.69966e-05
1.69966e-05
1.69966e-05
1.69966e-05
1.69966e-05
1.69965e-05
1.69966e-05
1.69965e-05
1.69966e-05
1.69964e-05
1.69966e-05
1.69964e-05
1.69967e-05
1.69965e-05
1.69969e-05
1.69967e-05
1.69975e-05
1.69971e-05
1.6998e-05
1.69958e-05
1.69927e-05
1.69831e-05
1.69637e-05
1.69407e-05
1.68247e-05
1.68477e-05
1.68667e-05
1.6876e-05
1.68791e-05
1.68812e-05
1.68804e-05
1.68808e-05
1.688e-05
1.68802e-05
1.68798e-05
1.688e-05
1.68797e-05
1.68799e-05
1.68797e-05
1.68799e-05
1.68798e-05
1.68799e-05
1.68798e-05
1.68799e-05
1.68799e-05
1.68799e-05
1.68799e-05
1.68799e-05
1.68799e-05
1.68799e-05
1.68799e-05
1.68799e-05
1.68799e-05
1.68799e-05
1.68799e-05
1.68798e-05
1.68799e-05
1.68798e-05
1.68799e-05
1.68797e-05
1.68799e-05
1.68797e-05
1.688e-05
1.68797e-05
1.68802e-05
1.68799e-05
1.68808e-05
1.68803e-05
1.68812e-05
1.68791e-05
1.68759e-05
1.68666e-05
1.68477e-05
1.68247e-05
1.67125e-05
1.67354e-05
1.6754e-05
1.67631e-05
1.67662e-05
1.67683e-05
1.67674e-05
1.67679e-05
1.67671e-05
1.67673e-05
1.67669e-05
1.67671e-05
1.67669e-05
1.67671e-05
1.67669e-05
1.6767e-05
1.67669e-05
1.67671e-05
1.6767e-05
1.67671e-05
1.6767e-05
1.67671e-05
1.6767e-05
1.67671e-05
1.67671e-05
1.67671e-05
1.67671e-05
1.6767e-05
1.67671e-05
1.6767e-05
1.67671e-05
1.6767e-05
1.67671e-05
1.67669e-05
1.6767e-05
1.67669e-05
1.6767e-05
1.67669e-05
1.67671e-05
1.67669e-05
1.67673e-05
1.67671e-05
1.67678e-05
1.67674e-05
1.67682e-05
1.67661e-05
1.6763e-05
1.6754e-05
1.67354e-05
1.67125e-05
1.66041e-05
1.66269e-05
1.6645e-05
1.66539e-05
1.66569e-05
1.6659e-05
1.66582e-05
1.66586e-05
1.66579e-05
1.66581e-05
1.66577e-05
1.6658e-05
1.66577e-05
1.66579e-05
1.66577e-05
1.66579e-05
1.66578e-05
1.66579e-05
1.66579e-05
1.66579e-05
1.66579e-05
1.66579e-05
1.66579e-05
1.66579e-05
1.66579e-05
1.66579e-05
1.66579e-05
1.66579e-05
1.66579e-05
1.66579e-05
1.66579e-05
1.66578e-05
1.66579e-05
1.66578e-05
1.66579e-05
1.66577e-05
1.66579e-05
1.66577e-05
1.66579e-05
1.66577e-05
1.66581e-05
1.66579e-05
1.66586e-05
1.66582e-05
1.6659e-05
1.66569e-05
1.66538e-05
1.6645e-05
1.66269e-05
1.66041e-05
1.64994e-05
1.6522e-05
1.65396e-05
1.65483e-05
1.65513e-05
1.65533e-05
1.65526e-05
1.6553e-05
1.65523e-05
1.65526e-05
1.65522e-05
1.65524e-05
1.65522e-05
1.65524e-05
1.65522e-05
1.65524e-05
1.65523e-05
1.65524e-05
1.65523e-05
1.65524e-05
1.65524e-05
1.65524e-05
1.65524e-05
1.65524e-05
1.65524e-05
1.65524e-05
1.65524e-05
1.65524e-05
1.65524e-05
1.65524e-05
1.65524e-05
1.65523e-05
1.65524e-05
1.65523e-05
1.65524e-05
1.65522e-05
1.65523e-05
1.65522e-05
1.65524e-05
1.65522e-05
1.65525e-05
1.65523e-05
1.6553e-05
1.65526e-05
1.65533e-05
1.65513e-05
1.65482e-05
1.65396e-05
1.6522e-05
1.64994e-05
1.63982e-05
1.64206e-05
1.64378e-05
1.64462e-05
1.64492e-05
1.64512e-05
1.64505e-05
1.64509e-05
1.64503e-05
1.64505e-05
1.64501e-05
1.64504e-05
1.64502e-05
1.64503e-05
1.64502e-05
1.64504e-05
1.64503e-05
1.64504e-05
1.64503e-05
1.64504e-05
1.64504e-05
1.64504e-05
1.64504e-05
1.64504e-05
1.64504e-05
1.64504e-05
1.64504e-05
1.64504e-05
1.64504e-05
1.64504e-05
1.64504e-05
1.64503e-05
1.64504e-05
1.64503e-05
1.64504e-05
1.64502e-05
1.64503e-05
1.64501e-05
1.64504e-05
1.64501e-05
1.64505e-05
1.64502e-05
1.64509e-05
1.64505e-05
1.64512e-05
1.64491e-05
1.64462e-05
1.64377e-05
1.64206e-05
1.63982e-05
1.63006e-05
1.63226e-05
1.63394e-05
1.63476e-05
1.63505e-05
1.63525e-05
1.63519e-05
1.63523e-05
1.63517e-05
1.63519e-05
1.63516e-05
1.63518e-05
1.63516e-05
1.63518e-05
1.63517e-05
1.63518e-05
1.63518e-05
1.63519e-05
1.63518e-05
1.63519e-05
1.63519e-05
1.63519e-05
1.63519e-05
1.63519e-05
1.63519e-05
1.63519e-05
1.63519e-05
1.63519e-05
1.63519e-05
1.63519e-05
1.63519e-05
1.63518e-05
1.63519e-05
1.63518e-05
1.63518e-05
1.63517e-05
1.63518e-05
1.63516e-05
1.63518e-05
1.63516e-05
1.63519e-05
1.63517e-05
1.63523e-05
1.63519e-05
1.63525e-05
1.63505e-05
1.63475e-05
1.63393e-05
1.63226e-05
1.63006e-05
1.62065e-05
1.62281e-05
1.62444e-05
1.62524e-05
1.62553e-05
1.62573e-05
1.62567e-05
1.62572e-05
1.62566e-05
1.62568e-05
1.62565e-05
1.62568e-05
1.62566e-05
1.62568e-05
1.62566e-05
1.62568e-05
1.62567e-05
1.62568e-05
1.62568e-05
1.62569e-05
1.62568e-05
1.62569e-05
1.62568e-05
1.62569e-05
1.62569e-05
1.62569e-05
1.62569e-05
1.62568e-05
1.62569e-05
1.62568e-05
1.62569e-05
1.62568e-05
1.62568e-05
1.62567e-05
1.62568e-05
1.62566e-05
1.62567e-05
1.62566e-05
1.62567e-05
1.62565e-05
1.62568e-05
1.62565e-05
1.62571e-05
1.62567e-05
1.62572e-05
1.62553e-05
1.62524e-05
1.62444e-05
1.6228e-05
1.62065e-05
1.61158e-05
1.61369e-05
1.61529e-05
1.61607e-05
1.61635e-05
1.61655e-05
1.6165e-05
1.61654e-05
1.61649e-05
1.61652e-05
1.61649e-05
1.61651e-05
1.6165e-05
1.61651e-05
1.6165e-05
1.61652e-05
1.61651e-05
1.61652e-05
1.61652e-05
1.61653e-05
1.61652e-05
1.61653e-05
1.61653e-05
1.61653e-05
1.61653e-05
1.61653e-05
1.61653e-05
1.61653e-05
1.61653e-05
1.61652e-05
1.61653e-05
1.61652e-05
1.61652e-05
1.61651e-05
1.61652e-05
1.6165e-05
1.61651e-05
1.61649e-05
1.61651e-05
1.61649e-05
1.61651e-05
1.61649e-05
1.61654e-05
1.61649e-05
1.61654e-05
1.61635e-05
1.61606e-05
1.61528e-05
1.61369e-05
1.61158e-05
1.60286e-05
1.60492e-05
1.60647e-05
1.60723e-05
1.60751e-05
1.60771e-05
1.60767e-05
1.60771e-05
1.60767e-05
1.60769e-05
1.60767e-05
1.60769e-05
1.60768e-05
1.6077e-05
1.60769e-05
1.6077e-05
1.6077e-05
1.60771e-05
1.6077e-05
1.60771e-05
1.60771e-05
1.60771e-05
1.60771e-05
1.60771e-05
1.60771e-05
1.60771e-05
1.60771e-05
1.60771e-05
1.60771e-05
1.60771e-05
1.60771e-05
1.6077e-05
1.60771e-05
1.6077e-05
1.6077e-05
1.60769e-05
1.6077e-05
1.60768e-05
1.60769e-05
1.60767e-05
1.60769e-05
1.60766e-05
1.60771e-05
1.60766e-05
1.60771e-05
1.60751e-05
1.60723e-05
1.60647e-05
1.60492e-05
1.60286e-05
1.59449e-05
1.59648e-05
1.598e-05
1.59874e-05
1.59902e-05
1.59922e-05
1.59918e-05
1.59923e-05
1.59919e-05
1.59922e-05
1.5992e-05
1.59922e-05
1.59921e-05
1.59923e-05
1.59922e-05
1.59923e-05
1.59923e-05
1.59924e-05
1.59924e-05
1.59925e-05
1.59924e-05
1.59925e-05
1.59924e-05
1.59925e-05
1.59925e-05
1.59925e-05
1.59925e-05
1.59924e-05
1.59925e-05
1.59924e-05
1.59924e-05
1.59924e-05
1.59924e-05
1.59923e-05
1.59923e-05
1.59922e-05
1.59923e-05
1.59921e-05
1.59922e-05
1.59919e-05
1.59922e-05
1.59919e-05
1.59923e-05
1.59918e-05
1.59922e-05
1.59902e-05
1.59874e-05
1.59799e-05
1.59648e-05
1.59448e-05
1.58646e-05
1.58839e-05
1.58988e-05
1.5906e-05
1.59088e-05
1.59107e-05
1.59105e-05
1.5911e-05
1.59106e-05
1.59109e-05
1.59107e-05
1.5911e-05
1.59109e-05
1.59111e-05
1.5911e-05
1.59112e-05
1.59111e-05
1.59112e-05
1.59112e-05
1.59113e-05
1.59113e-05
1.59113e-05
1.59113e-05
1.59113e-05
1.59113e-05
1.59113e-05
1.59113e-05
1.59113e-05
1.59113e-05
1.59112e-05
1.59113e-05
1.59112e-05
1.59112e-05
1.59111e-05
1.59112e-05
1.5911e-05
1.59111e-05
1.59109e-05
1.5911e-05
1.59107e-05
1.59109e-05
1.59106e-05
1.5911e-05
1.59104e-05
1.59107e-05
1.59087e-05
1.5906e-05
1.58987e-05
1.5884e-05
1.58646e-05
1.57878e-05
1.58065e-05
1.5821e-05
1.58281e-05
1.58308e-05
1.58328e-05
1.58326e-05
1.58332e-05
1.58329e-05
1.58332e-05
1.5833e-05
1.58333e-05
1.58332e-05
1.58334e-05
1.58334e-05
1.58335e-05
1.58335e-05
1.58336e-05
1.58336e-05
1.58336e-05
1.58336e-05
1.58337e-05
1.58337e-05
1.58337e-05
1.58337e-05
1.58337e-05
1.58337e-05
1.58336e-05
1.58337e-05
1.58336e-05
1.58336e-05
1.58336e-05
1.58336e-05
1.58335e-05
1.58335e-05
1.58333e-05
1.58334e-05
1.58332e-05
1.58333e-05
1.5833e-05
1.58332e-05
1.58328e-05
1.58331e-05
1.58326e-05
1.58328e-05
1.58308e-05
1.5828e-05
1.58209e-05
1.58066e-05
1.57878e-05
1.57146e-05
1.57326e-05
1.57468e-05
1.57537e-05
1.57565e-05
1.57585e-05
1.57584e-05
1.57589e-05
1.57587e-05
1.5759e-05
1.57589e-05
1.57592e-05
1.57591e-05
1.57593e-05
1.57593e-05
1.57595e-05
1.57594e-05
1.57596e-05
1.57595e-05
1.57596e-05
1.57596e-05
1.57596e-05
1.57596e-05
1.57596e-05
1.57596e-05
1.57596e-05
1.57596e-05
1.57596e-05
1.57596e-05
1.57596e-05
1.57596e-05
1.57595e-05
1.57595e-05
1.57594e-05
1.57595e-05
1.57593e-05
1.57593e-05
1.57591e-05
1.57592e-05
1.57589e-05
1.5759e-05
1.57587e-05
1.57589e-05
1.57583e-05
1.57584e-05
1.57564e-05
1.57537e-05
1.57466e-05
1.57327e-05
1.57146e-05
1.56449e-05
1.56623e-05
1.56762e-05
1.56829e-05
1.56857e-05
1.56877e-05
1.56877e-05
1.56884e-05
1.56882e-05
1.56885e-05
1.56885e-05
1.56887e-05
1.56887e-05
1.56889e-05
1.56889e-05
1.56891e-05
1.5689e-05
1.56892e-05
1.56891e-05
1.56892e-05
1.56892e-05
1.56893e-05
1.56892e-05
1.56893e-05
1.56893e-05
1.56893e-05
1.56893e-05
1.56892e-05
1.56893e-05
1.56892e-05
1.56892e-05
1.56891e-05
1.56892e-05
1.5689e-05
1.56891e-05
1.56889e-05
1.56889e-05
1.56887e-05
1.56887e-05
1.56884e-05
1.56885e-05
1.56881e-05
1.56883e-05
1.56877e-05
1.56877e-05
1.56857e-05
1.56829e-05
1.5676e-05
1.56624e-05
1.56449e-05
1.55789e-05
1.55957e-05
1.56092e-05
1.56158e-05
1.56186e-05
1.56207e-05
1.56208e-05
1.56215e-05
1.56214e-05
1.56218e-05
1.56217e-05
1.5622e-05
1.5622e-05
1.56222e-05
1.56222e-05
1.56224e-05
1.56224e-05
1.56225e-05
1.56225e-05
1.56226e-05
1.56226e-05
1.56226e-05
1.56226e-05
1.56226e-05
1.56226e-05
1.56226e-05
1.56226e-05
1.56226e-05
1.56226e-05
1.56226e-05
1.56226e-05
1.56225e-05
1.56225e-05
1.56224e-05
1.56224e-05
1.56222e-05
1.56222e-05
1.5622e-05
1.5622e-05
1.56217e-05
1.56217e-05
1.56213e-05
1.56214e-05
1.56208e-05
1.56207e-05
1.56186e-05
1.56158e-05
1.56091e-05
1.55957e-05
1.55789e-05
1.55166e-05
1.55328e-05
1.5546e-05
1.55525e-05
1.55553e-05
1.55575e-05
1.55577e-05
1.55584e-05
1.55584e-05
1.55588e-05
1.55588e-05
1.55591e-05
1.55591e-05
1.55594e-05
1.55594e-05
1.55595e-05
1.55595e-05
1.55597e-05
1.55596e-05
1.55597e-05
1.55597e-05
1.55598e-05
1.55598e-05
1.55598e-05
1.55598e-05
1.55598e-05
1.55598e-05
1.55597e-05
1.55598e-05
1.55597e-05
1.55597e-05
1.55596e-05
1.55596e-05
1.55595e-05
1.55595e-05
1.55593e-05
1.55593e-05
1.55591e-05
1.55591e-05
1.55588e-05
1.55588e-05
1.55583e-05
1.55584e-05
1.55576e-05
1.55574e-05
1.55553e-05
1.55524e-05
1.55458e-05
1.55328e-05
1.55166e-05
1.54582e-05
1.54737e-05
1.54865e-05
1.5493e-05
1.54959e-05
1.54981e-05
1.54984e-05
1.54992e-05
1.54993e-05
1.54997e-05
1.54998e-05
1.55001e-05
1.55001e-05
1.55004e-05
1.55004e-05
1.55006e-05
1.55006e-05
1.55007e-05
1.55007e-05
1.55008e-05
1.55008e-05
1.55008e-05
1.55008e-05
1.55008e-05
1.55008e-05
1.55008e-05
1.55008e-05
1.55008e-05
1.55008e-05
1.55008e-05
1.55008e-05
1.55007e-05
1.55007e-05
1.55006e-05
1.55006e-05
1.55004e-05
1.55004e-05
1.55001e-05
1.55001e-05
1.54997e-05
1.54997e-05
1.54992e-05
1.54992e-05
1.54984e-05
1.54981e-05
1.54959e-05
1.54929e-05
1.54864e-05
1.54737e-05
1.54582e-05
1.54036e-05
1.54185e-05
1.54311e-05
1.54375e-05
1.54405e-05
1.54427e-05
1.54432e-05
1.5444e-05
1.54442e-05
1.54447e-05
1.54447e-05
1.54451e-05
1.54452e-05
1.54454e-05
1.54455e-05
1.54456e-05
1.54457e-05
1.54458e-05
1.54458e-05
1.54459e-05
1.54459e-05
1.54459e-05
1.54459e-05
1.54459e-05
1.54459e-05
1.54459e-05
1.54459e-05
1.54459e-05
1.54459e-05
1.54459e-05
1.54459e-05
1.54458e-05
1.54458e-05
1.54457e-05
1.54456e-05
1.54455e-05
1.54454e-05
1.54452e-05
1.54451e-05
1.54447e-05
1.54446e-05
1.54441e-05
1.5444e-05
1.54432e-05
1.54427e-05
1.54404e-05
1.54374e-05
1.54309e-05
1.54186e-05
1.54036e-05
1.53531e-05
1.53675e-05
1.53797e-05
1.53861e-05
1.53892e-05
1.53915e-05
1.53921e-05
1.5393e-05
1.53932e-05
1.53938e-05
1.53939e-05
1.53943e-05
1.53944e-05
1.53946e-05
1.53947e-05
1.53949e-05
1.53949e-05
1.5395e-05
1.53951e-05
1.53951e-05
1.53951e-05
1.53952e-05
1.53952e-05
1.53952e-05
1.53952e-05
1.53952e-05
1.53952e-05
1.53952e-05
1.53952e-05
1.53951e-05
1.53951e-05
1.53951e-05
1.5395e-05
1.53949e-05
1.53949e-05
1.53947e-05
1.53946e-05
1.53944e-05
1.53943e-05
1.53939e-05
1.53937e-05
1.53932e-05
1.5393e-05
1.53921e-05
1.53914e-05
1.53891e-05
1.5386e-05
1.53795e-05
1.53675e-05
1.53531e-05
1.53084e-05
1.53223e-05
1.53342e-05
1.53406e-05
1.53438e-05
1.53462e-05
1.5347e-05
1.5348e-05
1.53483e-05
1.53488e-05
1.5349e-05
1.53494e-05
1.53495e-05
1.53498e-05
1.53499e-05
1.53501e-05
1.53501e-05
1.53503e-05
1.53503e-05
1.53504e-05
1.53504e-05
1.53504e-05
1.53504e-05
1.53504e-05
1.53504e-05
1.53504e-05
1.53504e-05
1.53504e-05
1.53504e-05
1.53504e-05
1.53504e-05
1.53503e-05
1.53503e-05
1.53501e-05
1.53501e-05
1.53499e-05
1.53498e-05
1.53495e-05
1.53494e-05
1.5349e-05
1.53488e-05
1.53482e-05
1.53479e-05
1.53469e-05
1.53462e-05
1.53438e-05
1.53405e-05
1.5334e-05
1.53223e-05
1.53084e-05
1.52678e-05
1.52813e-05
1.52928e-05
1.52991e-05
1.53023e-05
1.53047e-05
1.53055e-05
1.53065e-05
1.53069e-05
1.53075e-05
1.53077e-05
1.53081e-05
1.53082e-05
1.53085e-05
1.53086e-05
1.53088e-05
1.53088e-05
1.5309e-05
1.5309e-05
1.53091e-05
1.53091e-05
1.53092e-05
1.53092e-05
1.53092e-05
1.53092e-05
1.53092e-05
1.53092e-05
1.53092e-05
1.53092e-05
1.53091e-05
1.53091e-05
1.5309e-05
1.5309e-05
1.53088e-05
1.53088e-05
1.53086e-05
1.53085e-05
1.53082e-05
1.53081e-05
1.53076e-05
1.53075e-05
1.53069e-05
1.53065e-05
1.53055e-05
1.53046e-05
1.53022e-05
1.5299e-05
1.52926e-05
1.52814e-05
1.52678e-05
1.52303e-05
1.52434e-05
1.52545e-05
1.52608e-05
1.52642e-05
1.52667e-05
1.52677e-05
1.52688e-05
1.52693e-05
1.52699e-05
1.52701e-05
1.52706e-05
1.52708e-05
1.52711e-05
1.52712e-05
1.52714e-05
1.52714e-05
1.52716e-05
1.52716e-05
1.52717e-05
1.52717e-05
1.52718e-05
1.52718e-05
1.52718e-05
1.52718e-05
1.52718e-05
1.52718e-05
1.52718e-05
1.52718e-05
1.52717e-05
1.52717e-05
1.52716e-05
1.52716e-05
1.52714e-05
1.52714e-05
1.52712e-05
1.5271e-05
1.52707e-05
1.52706e-05
1.52701e-05
1.52699e-05
1.52693e-05
1.52688e-05
1.52677e-05
1.52667e-05
1.52641e-05
1.52608e-05
1.52543e-05
1.52434e-05
1.52303e-05
1.51973e-05
1.52099e-05
1.52208e-05
1.52272e-05
1.52307e-05
1.52334e-05
1.52345e-05
1.52358e-05
1.52364e-05
1.5237e-05
1.52373e-05
1.52377e-05
1.5238e-05
1.52383e-05
1.52384e-05
1.52386e-05
1.52387e-05
1.52388e-05
1.52389e-05
1.5239e-05
1.5239e-05
1.5239e-05
1.5239e-05
1.52391e-05
1.52391e-05
1.52391e-05
1.52391e-05
1.5239e-05
1.5239e-05
1.5239e-05
1.5239e-05
1.52389e-05
1.52388e-05
1.52387e-05
1.52386e-05
1.52384e-05
1.52383e-05
1.52379e-05
1.52377e-05
1.52372e-05
1.5237e-05
1.52363e-05
1.52357e-05
1.52345e-05
1.52333e-05
1.52307e-05
1.52271e-05
1.52206e-05
1.52099e-05
1.51973e-05
1.5169e-05
1.51811e-05
1.51918e-05
1.51983e-05
1.52021e-05
1.52048e-05
1.52062e-05
1.52076e-05
1.52083e-05
1.5209e-05
1.52093e-05
1.52098e-05
1.521e-05
1.52104e-05
1.52105e-05
1.52108e-05
1.52108e-05
1.5211e-05
1.5211e-05
1.52111e-05
1.52111e-05
1.52112e-05
1.52112e-05
1.52112e-05
1.52112e-05
1.52112e-05
1.52112e-05
1.52112e-05
1.52112e-05
1.52111e-05
1.52111e-05
1.5211e-05
1.5211e-05
1.52108e-05
1.52107e-05
1.52105e-05
1.52104e-05
1.521e-05
1.52098e-05
1.52093e-05
1.5209e-05
1.52083e-05
1.52075e-05
1.52062e-05
1.52048e-05
1.5202e-05
1.51982e-05
1.51916e-05
1.51811e-05
1.5169e-05
1.51456e-05
1.51573e-05
1.51679e-05
1.51744e-05
1.51785e-05
1.51814e-05
1.5183e-05
1.51845e-05
1.51853e-05
1.51861e-05
1.51864e-05
1.5187e-05
1.51873e-05
1.51876e-05
1.51878e-05
1.5188e-05
1.51881e-05
1.51883e-05
1.51883e-05
1.51884e-05
1.51885e-05
1.51885e-05
1.51885e-05
1.51885e-05
1.51885e-05
1.51885e-05
1.51885e-05
1.51885e-05
1.51885e-05
1.51885e-05
1.51884e-05
1.51883e-05
1.51883e-05
1.51881e-05
1.5188e-05
1.51878e-05
1.51876e-05
1.51873e-05
1.51869e-05
1.51864e-05
1.51861e-05
1.51853e-05
1.51845e-05
1.5183e-05
1.51814e-05
1.51785e-05
1.51744e-05
1.51677e-05
1.51573e-05
1.51456e-05
1.51281e-05
1.51394e-05
1.51499e-05
1.51566e-05
1.51609e-05
1.5164e-05
1.51658e-05
1.51674e-05
1.51684e-05
1.51693e-05
1.51696e-05
1.51702e-05
1.51705e-05
1.51709e-05
1.51711e-05
1.51713e-05
1.51715e-05
1.51716e-05
1.51717e-05
1.51718e-05
1.51718e-05
1.51719e-05
1.51719e-05
1.51719e-05
1.51719e-05
1.51719e-05
1.51719e-05
1.51719e-05
1.51719e-05
1.51718e-05
1.51718e-05
1.51717e-05
1.51716e-05
1.51715e-05
1.51713e-05
1.51711e-05
1.51709e-05
1.51705e-05
1.51702e-05
1.51696e-05
1.51692e-05
1.51684e-05
1.51674e-05
1.51658e-05
1.5164e-05
1.51609e-05
1.51565e-05
1.51497e-05
1.51394e-05
1.51281e-05
1.51158e-05
1.51267e-05
1.51372e-05
1.51441e-05
1.51487e-05
1.5152e-05
1.5154e-05
1.51558e-05
1.51568e-05
1.51578e-05
1.51582e-05
1.51588e-05
1.51592e-05
1.51596e-05
1.51598e-05
1.516e-05
1.51602e-05
1.51603e-05
1.51604e-05
1.51605e-05
1.51605e-05
1.51606e-05
1.51606e-05
1.51606e-05
1.51606e-05
1.51606e-05
1.51606e-05
1.51606e-05
1.51606e-05
1.51605e-05
1.51605e-05
1.51604e-05
1.51603e-05
1.51602e-05
1.516e-05
1.51598e-05
1.51596e-05
1.51592e-05
1.51588e-05
1.51582e-05
1.51578e-05
1.51568e-05
1.51557e-05
1.5154e-05
1.51519e-05
1.51486e-05
1.5144e-05
1.51371e-05
1.51267e-05
1.51158e-05
1.51086e-05
1.51191e-05
1.51298e-05
1.51368e-05
1.51417e-05
1.51452e-05
1.51475e-05
1.51494e-05
1.51506e-05
1.51517e-05
1.51522e-05
1.51529e-05
1.51533e-05
1.51537e-05
1.5154e-05
1.51542e-05
1.51544e-05
1.51545e-05
1.51546e-05
1.51547e-05
1.51547e-05
1.51548e-05
1.51548e-05
1.51548e-05
1.51548e-05
1.51548e-05
1.51548e-05
1.51548e-05
1.51548e-05
1.51547e-05
1.51547e-05
1.51546e-05
1.51545e-05
1.51544e-05
1.51542e-05
1.5154e-05
1.51537e-05
1.51533e-05
1.51528e-05
1.51522e-05
1.51517e-05
1.51506e-05
1.51494e-05
1.51475e-05
1.51452e-05
1.51417e-05
1.51367e-05
1.51296e-05
1.51192e-05
1.51086e-05
1.51073e-05
1.51174e-05
1.51282e-05
1.51354e-05
1.51408e-05
1.51445e-05
1.51471e-05
1.51491e-05
1.51505e-05
1.51517e-05
1.51524e-05
1.51531e-05
1.51536e-05
1.5154e-05
1.51543e-05
1.51546e-05
1.51548e-05
1.51549e-05
1.5155e-05
1.51551e-05
1.51552e-05
1.51552e-05
1.51552e-05
1.51553e-05
1.51553e-05
1.51553e-05
1.51553e-05
1.51552e-05
1.51552e-05
1.51552e-05
1.51551e-05
1.5155e-05
1.51549e-05
1.51548e-05
1.51546e-05
1.51543e-05
1.5154e-05
1.51536e-05
1.51531e-05
1.51524e-05
1.51516e-05
1.51505e-05
1.51491e-05
1.51471e-05
1.51445e-05
1.51407e-05
1.51354e-05
1.51281e-05
1.51175e-05
1.51073e-05
1.5112e-05
1.5122e-05
1.51329e-05
1.51403e-05
1.51461e-05
1.51501e-05
1.5153e-05
1.51552e-05
1.51567e-05
1.5158e-05
1.51589e-05
1.51597e-05
1.51602e-05
1.51606e-05
1.5161e-05
1.51612e-05
1.51614e-05
1.51616e-05
1.51617e-05
1.51618e-05
1.51619e-05
1.51619e-05
1.51619e-05
1.5162e-05
1.5162e-05
1.5162e-05
1.5162e-05
1.51619e-05
1.51619e-05
1.51619e-05
1.51618e-05
1.51617e-05
1.51616e-05
1.51614e-05
1.51612e-05
1.5161e-05
1.51606e-05
1.51602e-05
1.51597e-05
1.51589e-05
1.5158e-05
1.51567e-05
1.51552e-05
1.51529e-05
1.51501e-05
1.5146e-05
1.51403e-05
1.51328e-05
1.51219e-05
1.5112e-05
1.51232e-05
1.51328e-05
1.51441e-05
1.51518e-05
1.5158e-05
1.51623e-05
1.51655e-05
1.5168e-05
1.51697e-05
1.5171e-05
1.51721e-05
1.51729e-05
1.51735e-05
1.5174e-05
1.51744e-05
1.51746e-05
1.51748e-05
1.5175e-05
1.51751e-05
1.51752e-05
1.51753e-05
1.51754e-05
1.51754e-05
1.51754e-05
1.51754e-05
1.51754e-05
1.51754e-05
1.51754e-05
1.51754e-05
1.51753e-05
1.51752e-05
1.51751e-05
1.5175e-05
1.51749e-05
1.51746e-05
1.51744e-05
1.5174e-05
1.51735e-05
1.51729e-05
1.51721e-05
1.5171e-05
1.51696e-05
1.51679e-05
1.51655e-05
1.51623e-05
1.5158e-05
1.51517e-05
1.5144e-05
1.51328e-05
1.51232e-05
1.5141e-05
1.51504e-05
1.5162e-05
1.517e-05
1.51768e-05
1.51814e-05
1.51849e-05
1.51876e-05
1.51894e-05
1.51909e-05
1.51921e-05
1.5193e-05
1.51936e-05
1.51941e-05
1.51945e-05
1.51948e-05
1.51951e-05
1.51952e-05
1.51954e-05
1.51955e-05
1.51955e-05
1.51956e-05
1.51956e-05
1.51957e-05
1.51957e-05
1.51957e-05
1.51956e-05
1.51956e-05
1.51956e-05
1.51955e-05
1.51955e-05
1.51954e-05
1.51952e-05
1.51951e-05
1.51948e-05
1.51945e-05
1.51941e-05
1.51936e-05
1.5193e-05
1.51921e-05
1.51909e-05
1.51894e-05
1.51875e-05
1.51849e-05
1.51813e-05
1.51767e-05
1.517e-05
1.51619e-05
1.51504e-05
1.5141e-05
1.51657e-05
1.5175e-05
1.5187e-05
1.51954e-05
1.52028e-05
1.52077e-05
1.52116e-05
1.52145e-05
1.52165e-05
1.52182e-05
1.52195e-05
1.52204e-05
1.52211e-05
1.52216e-05
1.5222e-05
1.52224e-05
1.52226e-05
1.52228e-05
1.52229e-05
1.5223e-05
1.52231e-05
1.52232e-05
1.52232e-05
1.52232e-05
1.52233e-05
1.52232e-05
1.52232e-05
1.52232e-05
1.52232e-05
1.52231e-05
1.5223e-05
1.52229e-05
1.52228e-05
1.52226e-05
1.52224e-05
1.5222e-05
1.52216e-05
1.52211e-05
1.52204e-05
1.52194e-05
1.52181e-05
1.52165e-05
1.52144e-05
1.52115e-05
1.52076e-05
1.52027e-05
1.51954e-05
1.51869e-05
1.5175e-05
1.51658e-05
1.52583e-05
1.52584e-05
1.52585e-05
1.52585e-05
1.52586e-05
1.52586e-05
1.52586e-05
1.52586e-05
1.52586e-05
1.52586e-05
1.52585e-05
1.52585e-05
1.52584e-05
1.52583e-05
1.52581e-05
1.52579e-05
1.52577e-05
1.52573e-05
1.52569e-05
1.52563e-05
1.52555e-05
1.52545e-05
1.52531e-05
1.52513e-05
1.52491e-05
1.52459e-05
1.52416e-05
1.52363e-05
1.52284e-05
1.52195e-05
1.52071e-05
1.51979e-05
1.53021e-05
1.53021e-05
1.5302e-05
1.53019e-05
1.53017e-05
1.53015e-05
1.53012e-05
1.53008e-05
1.53003e-05
1.52997e-05
1.52989e-05
1.52979e-05
1.52963e-05
1.52944e-05
1.52919e-05
1.52885e-05
1.52838e-05
1.5278e-05
1.52694e-05
1.52601e-05
1.52471e-05
1.52379e-05
1.53483e-05
1.53462e-05
1.53435e-05
1.53398e-05
1.53346e-05
1.53283e-05
1.53191e-05
1.53091e-05
1.52954e-05
1.52863e-05
)
;

boundaryField
{
    fuel
    {
        type            fixedValue;
        value           nonuniform 0();
    }
    wall
    {
        type            zeroGradient;
    }
    outlet
    {
        type            inletOutlet;
        inletValue      uniform 0;
        value           nonuniform List<scalar> 
81
(
1.7587e-05
1.74479e-05
1.73141e-05
1.71851e-05
1.70608e-05
1.69407e-05
1.68247e-05
1.67125e-05
1.66041e-05
1.64994e-05
1.63982e-05
1.63006e-05
1.62065e-05
1.61158e-05
1.60286e-05
1.59449e-05
1.58646e-05
1.57878e-05
1.57146e-05
1.56449e-05
1.55789e-05
1.55166e-05
1.54582e-05
1.54036e-05
1.53531e-05
1.53084e-05
1.52678e-05
1.52303e-05
1.51973e-05
1.5169e-05
1.51456e-05
1.51281e-05
1.51158e-05
1.51086e-05
1.51073e-05
1.5112e-05
1.51232e-05
1.5141e-05
1.51657e-05
1.7587e-05
1.74478e-05
1.7314e-05
1.71851e-05
1.70608e-05
1.69407e-05
1.68247e-05
1.67125e-05
1.66041e-05
1.64994e-05
1.63982e-05
1.63006e-05
1.62065e-05
1.61158e-05
1.60286e-05
1.59448e-05
1.58646e-05
1.57878e-05
1.57146e-05
1.56449e-05
1.55789e-05
1.55166e-05
1.54582e-05
1.54036e-05
1.53531e-05
1.53084e-05
1.52678e-05
1.52303e-05
1.51973e-05
1.5169e-05
1.51456e-05
1.51281e-05
1.51158e-05
1.51086e-05
1.51073e-05
1.5112e-05
1.51232e-05
1.5141e-05
1.51658e-05
1.51979e-05
1.52379e-05
1.52863e-05
)
;
    }
    frontAndBack
    {
        type            empty;
    }
    procBoundary0to1
    {
        type            processor;
        value           nonuniform List<scalar> 
50
(
1.7732e-05
1.77553e-05
1.77767e-05
1.77873e-05
1.77906e-05
1.77928e-05
1.77917e-05
1.77922e-05
1.77912e-05
1.77916e-05
1.7791e-05
1.77913e-05
1.77909e-05
1.77911e-05
1.77909e-05
1.77911e-05
1.77909e-05
1.77911e-05
1.7791e-05
1.77911e-05
1.7791e-05
1.77911e-05
1.7791e-05
1.7791e-05
1.7791e-05
1.7791e-05
1.7791e-05
1.7791e-05
1.77911e-05
1.7791e-05
1.77911e-05
1.7791e-05
1.77911e-05
1.77909e-05
1.77911e-05
1.77909e-05
1.77911e-05
1.77909e-05
1.77913e-05
1.7791e-05
1.77915e-05
1.77912e-05
1.77922e-05
1.77917e-05
1.77928e-05
1.77906e-05
1.77873e-05
1.77767e-05
1.77553e-05
1.7732e-05
)
;
    }
    procBoundary0to2
    {
        type            processor;
        value           nonuniform List<scalar> 
53
(
1.51979e-05
1.52071e-05
1.52196e-05
1.52284e-05
1.52364e-05
1.52417e-05
1.5246e-05
1.52491e-05
1.52514e-05
1.52532e-05
1.52546e-05
1.52556e-05
1.52563e-05
1.52569e-05
1.52574e-05
1.52577e-05
1.5258e-05
1.52581e-05
1.52581e-05
1.53019e-05
1.5302e-05
1.53021e-05
1.53022e-05
1.53022e-05
1.53022e-05
1.53022e-05
1.53022e-05
1.53022e-05
1.53022e-05
1.53022e-05
1.53546e-05
1.53545e-05
1.53544e-05
1.53543e-05
1.53541e-05
1.53539e-05
1.53535e-05
1.53532e-05
1.53526e-05
1.5352e-05
1.53511e-05
1.53499e-05
1.53499e-05
1.54096e-05
1.54074e-05
1.54044e-05
1.54003e-05
1.53946e-05
1.53878e-05
1.53779e-05
1.53673e-05
1.53527e-05
1.53435e-05
)
;
    }
}


// ************************************************************************* //
