/*--------------------------------*- C++ -*----------------------------------*\
| =========                 |                                                 |
| \\      /  F ield         | OpenFOAM: The Open Source CFD Toolbox           |
|  \\    /   O peration     | Version:  dev                                   |
|   \\  /    A nd           | Web:      www.OpenFOAM.org                      |
|    \\/     M anipulation  |                                                 |
\*---------------------------------------------------------------------------*/
FoamFile
{
    version     2.0;
    format      ascii;
    class       volScalarField;
    location    "0.055";
    object      C5H4O;
}
// * * * * * * * * * * * * * * * * * * * * * * * * * * * * * * * * * * * * * //

dimensions      [0 0 0 0 0 0 0];

internalField   nonuniform List<scalar> 
2014
(
3.86425e-09
3.88755e-09
3.90918e-09
3.92003e-09
3.92286e-09
3.92503e-09
3.9236e-09
3.92425e-09
3.92311e-09
3.92357e-09
3.92292e-09
3.92329e-09
3.92289e-09
3.92316e-09
3.92289e-09
3.9231e-09
3.92291e-09
3.92308e-09
3.92295e-09
3.92306e-09
3.92297e-09
3.92303e-09
3.92298e-09
3.92302e-09
3.923e-09
3.923e-09
3.92302e-09
3.92298e-09
3.92303e-09
3.92297e-09
3.92305e-09
3.92295e-09
3.92307e-09
3.9229e-09
3.92309e-09
3.92289e-09
3.92315e-09
3.92288e-09
3.92328e-09
3.92292e-09
3.92356e-09
3.9231e-09
3.92423e-09
3.92359e-09
3.92502e-09
3.92284e-09
3.92001e-09
3.90917e-09
3.88753e-09
3.86424e-09
3.69634e-09
3.71887e-09
3.73949e-09
3.74985e-09
3.75259e-09
3.75468e-09
3.75332e-09
3.75392e-09
3.75284e-09
3.75326e-09
3.75265e-09
3.753e-09
3.75261e-09
3.75287e-09
3.75261e-09
3.75281e-09
3.75263e-09
3.75279e-09
3.75267e-09
3.75277e-09
3.75269e-09
3.75275e-09
3.7527e-09
3.75273e-09
3.75272e-09
3.75272e-09
3.75273e-09
3.7527e-09
3.75275e-09
3.75269e-09
3.75277e-09
3.75267e-09
3.75279e-09
3.75263e-09
3.7528e-09
3.75261e-09
3.75286e-09
3.75261e-09
3.75299e-09
3.75264e-09
3.75325e-09
3.75282e-09
3.7539e-09
3.7533e-09
3.75466e-09
3.75257e-09
3.74984e-09
3.73947e-09
3.71886e-09
3.69633e-09
3.53884e-09
3.56065e-09
3.58024e-09
3.59014e-09
3.59278e-09
3.59478e-09
3.59349e-09
3.59405e-09
3.59302e-09
3.59342e-09
3.59284e-09
3.59316e-09
3.5928e-09
3.59304e-09
3.5928e-09
3.59298e-09
3.59281e-09
3.59297e-09
3.59286e-09
3.59295e-09
3.59288e-09
3.59293e-09
3.59289e-09
3.59292e-09
3.5929e-09
3.5929e-09
3.59292e-09
3.59288e-09
3.59293e-09
3.59288e-09
3.59295e-09
3.59285e-09
3.59296e-09
3.59281e-09
3.59298e-09
3.5928e-09
3.59303e-09
3.59279e-09
3.59315e-09
3.59283e-09
3.59341e-09
3.59301e-09
3.59404e-09
3.59348e-09
3.59476e-09
3.59276e-09
3.59012e-09
3.58022e-09
3.56064e-09
3.53883e-09
3.39102e-09
3.41217e-09
3.43073e-09
3.44017e-09
3.44271e-09
3.44463e-09
3.44341e-09
3.44392e-09
3.44295e-09
3.44332e-09
3.44277e-09
3.44307e-09
3.44273e-09
3.44295e-09
3.44273e-09
3.4429e-09
3.44274e-09
3.44289e-09
3.44278e-09
3.44288e-09
3.4428e-09
3.44286e-09
3.44281e-09
3.44284e-09
3.44283e-09
3.44283e-09
3.44284e-09
3.44281e-09
3.44286e-09
3.4428e-09
3.44287e-09
3.44278e-09
3.44289e-09
3.44274e-09
3.4429e-09
3.44273e-09
3.44295e-09
3.44272e-09
3.44306e-09
3.44276e-09
3.44331e-09
3.44294e-09
3.44391e-09
3.44339e-09
3.44461e-09
3.44269e-09
3.44016e-09
3.43071e-09
3.41215e-09
3.39101e-09
3.25223e-09
3.27271e-09
3.29032e-09
3.2993e-09
3.30173e-09
3.30357e-09
3.30241e-09
3.30289e-09
3.30197e-09
3.30231e-09
3.30179e-09
3.30208e-09
3.30175e-09
3.30196e-09
3.30175e-09
3.30192e-09
3.30177e-09
3.3019e-09
3.30181e-09
3.30189e-09
3.30183e-09
3.30188e-09
3.30183e-09
3.30186e-09
3.30185e-09
3.30185e-09
3.30186e-09
3.30183e-09
3.30187e-09
3.30182e-09
3.30189e-09
3.3018e-09
3.3019e-09
3.30176e-09
3.30191e-09
3.30175e-09
3.30196e-09
3.30175e-09
3.30207e-09
3.30179e-09
3.3023e-09
3.30196e-09
3.30288e-09
3.3024e-09
3.30355e-09
3.30172e-09
3.29928e-09
3.29031e-09
3.27269e-09
3.25222e-09
3.12188e-09
3.14172e-09
3.15841e-09
3.16692e-09
3.16925e-09
3.171e-09
3.16991e-09
3.17036e-09
3.16949e-09
3.1698e-09
3.16931e-09
3.16958e-09
3.16927e-09
3.16947e-09
3.16927e-09
3.16943e-09
3.16929e-09
3.16942e-09
3.16933e-09
3.16941e-09
3.16934e-09
3.16939e-09
3.16935e-09
3.16938e-09
3.16937e-09
3.16937e-09
3.16938e-09
3.16935e-09
3.16939e-09
3.16934e-09
3.16941e-09
3.16932e-09
3.16942e-09
3.16928e-09
3.16943e-09
3.16927e-09
3.16947e-09
3.16927e-09
3.16957e-09
3.16931e-09
3.16979e-09
3.16948e-09
3.17034e-09
3.1699e-09
3.17099e-09
3.16923e-09
3.16691e-09
3.15839e-09
3.1417e-09
3.12187e-09
2.99943e-09
3.01863e-09
3.03442e-09
3.0425e-09
3.04472e-09
3.04639e-09
3.04536e-09
3.04578e-09
3.04496e-09
3.04524e-09
3.04479e-09
3.04503e-09
3.04475e-09
3.04494e-09
3.04475e-09
3.0449e-09
3.04476e-09
3.04489e-09
3.0448e-09
3.04488e-09
3.04482e-09
3.04486e-09
3.04483e-09
3.04485e-09
3.04484e-09
3.04484e-09
3.04485e-09
3.04483e-09
3.04486e-09
3.04482e-09
3.04488e-09
3.0448e-09
3.04488e-09
3.04476e-09
3.04489e-09
3.04474e-09
3.04493e-09
3.04474e-09
3.04503e-09
3.04478e-09
3.04523e-09
3.04494e-09
3.04576e-09
3.04535e-09
3.04638e-09
3.0447e-09
3.04248e-09
3.0344e-09
3.01862e-09
2.99942e-09
2.88438e-09
2.90295e-09
2.91787e-09
2.92552e-09
2.92764e-09
2.92924e-09
2.92826e-09
2.92865e-09
2.92787e-09
2.92814e-09
2.92771e-09
2.92794e-09
2.92767e-09
2.92785e-09
2.92768e-09
2.92782e-09
2.92769e-09
2.92781e-09
2.92773e-09
2.9278e-09
2.92775e-09
2.92779e-09
2.92775e-09
2.92778e-09
2.92777e-09
2.92777e-09
2.92778e-09
2.92775e-09
2.92779e-09
2.92775e-09
2.9278e-09
2.92772e-09
2.92781e-09
2.92769e-09
2.92781e-09
2.92767e-09
2.92785e-09
2.92767e-09
2.92794e-09
2.9277e-09
2.92813e-09
2.92786e-09
2.92864e-09
2.92825e-09
2.92922e-09
2.92762e-09
2.9255e-09
2.91785e-09
2.90293e-09
2.88437e-09
2.77626e-09
2.7942e-09
2.80829e-09
2.81553e-09
2.81755e-09
2.81907e-09
2.81815e-09
2.81851e-09
2.81778e-09
2.81803e-09
2.81763e-09
2.81785e-09
2.81759e-09
2.81776e-09
2.8176e-09
2.81773e-09
2.81761e-09
2.81773e-09
2.81765e-09
2.81772e-09
2.81767e-09
2.81771e-09
2.81767e-09
2.8177e-09
2.81769e-09
2.81769e-09
2.8177e-09
2.81767e-09
2.81771e-09
2.81767e-09
2.81772e-09
2.81764e-09
2.81772e-09
2.81761e-09
2.81773e-09
2.81759e-09
2.81776e-09
2.81759e-09
2.81784e-09
2.81762e-09
2.81802e-09
2.81777e-09
2.8185e-09
2.81814e-09
2.81905e-09
2.81753e-09
2.81551e-09
2.80826e-09
2.79418e-09
2.77625e-09
2.67465e-09
2.69195e-09
2.70525e-09
2.7121e-09
2.71402e-09
2.71547e-09
2.71461e-09
2.71494e-09
2.71426e-09
2.71449e-09
2.71411e-09
2.71431e-09
2.71408e-09
2.71424e-09
2.71408e-09
2.71421e-09
2.7141e-09
2.71421e-09
2.71413e-09
2.7142e-09
2.71415e-09
2.71419e-09
2.71416e-09
2.71418e-09
2.71417e-09
2.71417e-09
2.71418e-09
2.71416e-09
2.71419e-09
2.71415e-09
2.7142e-09
2.71413e-09
2.7142e-09
2.7141e-09
2.71421e-09
2.71408e-09
2.71423e-09
2.71407e-09
2.71431e-09
2.7141e-09
2.71448e-09
2.71425e-09
2.71493e-09
2.71459e-09
2.71545e-09
2.714e-09
2.71208e-09
2.70522e-09
2.69193e-09
2.67464e-09
2.57916e-09
2.5958e-09
2.60835e-09
2.61483e-09
2.61665e-09
2.61804e-09
2.61723e-09
2.61754e-09
2.6169e-09
2.61711e-09
2.61676e-09
2.61695e-09
2.61673e-09
2.61688e-09
2.61674e-09
2.61686e-09
2.61676e-09
2.61686e-09
2.61679e-09
2.61686e-09
2.61681e-09
2.61685e-09
2.61682e-09
2.61684e-09
2.61683e-09
2.61683e-09
2.61684e-09
2.61682e-09
2.61685e-09
2.61681e-09
2.61686e-09
2.61679e-09
2.61686e-09
2.61676e-09
2.61686e-09
2.61674e-09
2.61688e-09
2.61673e-09
2.61695e-09
2.61675e-09
2.6171e-09
2.61689e-09
2.61753e-09
2.61722e-09
2.61802e-09
2.61664e-09
2.61481e-09
2.60832e-09
2.59579e-09
2.57915e-09
2.48941e-09
2.50538e-09
2.51723e-09
2.52336e-09
2.52509e-09
2.52641e-09
2.52565e-09
2.52595e-09
2.52534e-09
2.52554e-09
2.52521e-09
2.5254e-09
2.52519e-09
2.52534e-09
2.5252e-09
2.52532e-09
2.52522e-09
2.52532e-09
2.52525e-09
2.52532e-09
2.52527e-09
2.52531e-09
2.52528e-09
2.5253e-09
2.52529e-09
2.52529e-09
2.5253e-09
2.52528e-09
2.52531e-09
2.52527e-09
2.52532e-09
2.52525e-09
2.52532e-09
2.52522e-09
2.52531e-09
2.5252e-09
2.52533e-09
2.52519e-09
2.52539e-09
2.52521e-09
2.52553e-09
2.52533e-09
2.52593e-09
2.52564e-09
2.52639e-09
2.52507e-09
2.52334e-09
2.5172e-09
2.50537e-09
2.48941e-09
2.40508e-09
2.42035e-09
2.43155e-09
2.43733e-09
2.43899e-09
2.44024e-09
2.43953e-09
2.43981e-09
2.43925e-09
2.43944e-09
2.43913e-09
2.43931e-09
2.43911e-09
2.43925e-09
2.43913e-09
2.43924e-09
2.43915e-09
2.43924e-09
2.43918e-09
2.43924e-09
2.4392e-09
2.43923e-09
2.43921e-09
2.43923e-09
2.43922e-09
2.43922e-09
2.43923e-09
2.43921e-09
2.43923e-09
2.4392e-09
2.43924e-09
2.43918e-09
2.43924e-09
2.43914e-09
2.43923e-09
2.43912e-09
2.43925e-09
2.43911e-09
2.4393e-09
2.43912e-09
2.43943e-09
2.43924e-09
2.4398e-09
2.43952e-09
2.44022e-09
2.43897e-09
2.43731e-09
2.43151e-09
2.42034e-09
2.40507e-09
2.32583e-09
2.34039e-09
2.35098e-09
2.35645e-09
2.35802e-09
2.35921e-09
2.35856e-09
2.35882e-09
2.3583e-09
2.35848e-09
2.35819e-09
2.35836e-09
2.35818e-09
2.35831e-09
2.3582e-09
2.3583e-09
2.35822e-09
2.35831e-09
2.35825e-09
2.35831e-09
2.35827e-09
2.35831e-09
2.35828e-09
2.3583e-09
2.35829e-09
2.35829e-09
2.3583e-09
2.35828e-09
2.35831e-09
2.35827e-09
2.35831e-09
2.35825e-09
2.35831e-09
2.35822e-09
2.3583e-09
2.35819e-09
2.35831e-09
2.35818e-09
2.35835e-09
2.35819e-09
2.35847e-09
2.35829e-09
2.35881e-09
2.35855e-09
2.3592e-09
2.358e-09
2.35643e-09
2.35094e-09
2.34039e-09
2.32582e-09
2.25136e-09
2.26522e-09
2.27523e-09
2.28041e-09
2.2819e-09
2.28304e-09
2.28244e-09
2.28269e-09
2.2822e-09
2.28237e-09
2.28211e-09
2.28226e-09
2.2821e-09
2.28223e-09
2.28212e-09
2.28222e-09
2.28215e-09
2.28223e-09
2.28218e-09
2.28223e-09
2.2822e-09
2.28223e-09
2.28221e-09
2.28222e-09
2.28222e-09
2.28222e-09
2.28222e-09
2.28221e-09
2.28223e-09
2.2822e-09
2.28223e-09
2.28218e-09
2.28223e-09
2.28214e-09
2.28222e-09
2.28212e-09
2.28222e-09
2.2821e-09
2.28226e-09
2.2821e-09
2.28236e-09
2.28219e-09
2.28268e-09
2.28242e-09
2.28302e-09
2.28188e-09
2.28039e-09
2.27519e-09
2.26522e-09
2.25136e-09
2.1814e-09
2.19455e-09
2.20404e-09
2.20893e-09
2.21035e-09
2.21144e-09
2.21089e-09
2.21113e-09
2.21068e-09
2.21084e-09
2.2106e-09
2.21075e-09
2.2106e-09
2.21072e-09
2.21062e-09
2.21072e-09
2.21065e-09
2.21073e-09
2.21068e-09
2.21073e-09
2.2107e-09
2.21073e-09
2.21071e-09
2.21073e-09
2.21072e-09
2.21072e-09
2.21073e-09
2.21071e-09
2.21073e-09
2.2107e-09
2.21073e-09
2.21068e-09
2.21073e-09
2.21065e-09
2.21071e-09
2.21062e-09
2.21071e-09
2.21059e-09
2.21074e-09
2.21059e-09
2.21083e-09
2.21067e-09
2.21112e-09
2.21088e-09
2.21143e-09
2.21033e-09
2.20891e-09
2.20399e-09
2.19456e-09
2.18141e-09
2.1157e-09
2.12815e-09
2.13713e-09
2.14177e-09
2.14311e-09
2.14416e-09
2.14366e-09
2.14389e-09
2.14348e-09
2.14363e-09
2.14341e-09
2.14355e-09
2.14342e-09
2.14353e-09
2.14344e-09
2.14354e-09
2.14347e-09
2.14355e-09
2.14351e-09
2.14356e-09
2.14353e-09
2.14356e-09
2.14354e-09
2.14355e-09
2.14355e-09
2.14355e-09
2.14355e-09
2.14354e-09
2.14355e-09
2.14352e-09
2.14356e-09
2.1435e-09
2.14355e-09
2.14347e-09
2.14353e-09
2.14344e-09
2.14353e-09
2.14341e-09
2.14355e-09
2.1434e-09
2.14362e-09
2.14347e-09
2.14388e-09
2.14365e-09
2.14415e-09
2.14309e-09
2.14175e-09
2.13708e-09
2.12817e-09
2.1157e-09
2.05399e-09
2.06577e-09
2.07428e-09
2.07867e-09
2.07995e-09
2.08096e-09
2.08051e-09
2.08073e-09
2.08036e-09
2.08051e-09
2.0803e-09
2.08044e-09
2.08032e-09
2.08043e-09
2.08035e-09
2.08044e-09
2.08038e-09
2.08045e-09
2.08041e-09
2.08046e-09
2.08043e-09
2.08046e-09
2.08045e-09
2.08046e-09
2.08046e-09
2.08045e-09
2.08046e-09
2.08044e-09
2.08046e-09
2.08043e-09
2.08046e-09
2.08041e-09
2.08045e-09
2.08038e-09
2.08044e-09
2.08034e-09
2.08043e-09
2.08031e-09
2.08043e-09
2.08029e-09
2.0805e-09
2.08035e-09
2.08072e-09
2.0805e-09
2.08095e-09
2.07993e-09
2.07865e-09
2.07421e-09
2.06579e-09
2.054e-09
1.99607e-09
2.00719e-09
2.01525e-09
2.01943e-09
2.02065e-09
2.02163e-09
2.02122e-09
2.02144e-09
2.0211e-09
2.02124e-09
2.02106e-09
2.02119e-09
2.02108e-09
2.02119e-09
2.02112e-09
2.0212e-09
2.02115e-09
2.02122e-09
2.02119e-09
2.02123e-09
2.02121e-09
2.02123e-09
2.02122e-09
2.02123e-09
2.02123e-09
2.02123e-09
2.02123e-09
2.02122e-09
2.02123e-09
2.02121e-09
2.02123e-09
2.02118e-09
2.02122e-09
2.02115e-09
2.0212e-09
2.02111e-09
2.02119e-09
2.02108e-09
2.02118e-09
2.02105e-09
2.02123e-09
2.02109e-09
2.02143e-09
2.02121e-09
2.02161e-09
2.02063e-09
2.0194e-09
2.01518e-09
2.00722e-09
1.99608e-09
1.94172e-09
1.95221e-09
1.95986e-09
1.96382e-09
1.96499e-09
1.96594e-09
1.96558e-09
1.9658e-09
1.96549e-09
1.96564e-09
1.96547e-09
1.9656e-09
1.9655e-09
1.96561e-09
1.96554e-09
1.96562e-09
1.96558e-09
1.96565e-09
1.96561e-09
1.96566e-09
1.96563e-09
1.96566e-09
1.96564e-09
1.96566e-09
1.96565e-09
1.96565e-09
1.96566e-09
1.96564e-09
1.96566e-09
1.96563e-09
1.96566e-09
1.96561e-09
1.96564e-09
1.96557e-09
1.96562e-09
1.96554e-09
1.9656e-09
1.96549e-09
1.96559e-09
1.96546e-09
1.96563e-09
1.96548e-09
1.96579e-09
1.96557e-09
1.96593e-09
1.96498e-09
1.9638e-09
1.9598e-09
1.95224e-09
1.94173e-09
1.89075e-09
1.90064e-09
1.9079e-09
1.91166e-09
1.91279e-09
1.91371e-09
1.9134e-09
1.91362e-09
1.91335e-09
1.91349e-09
1.91334e-09
1.91347e-09
1.91338e-09
1.91348e-09
1.91342e-09
1.91351e-09
1.91347e-09
1.91353e-09
1.9135e-09
1.91355e-09
1.91352e-09
1.91355e-09
1.91354e-09
1.91355e-09
1.91354e-09
1.91354e-09
1.91355e-09
1.91354e-09
1.91355e-09
1.91352e-09
1.91355e-09
1.9135e-09
1.91353e-09
1.91346e-09
1.9135e-09
1.91342e-09
1.91348e-09
1.91337e-09
1.91346e-09
1.91333e-09
1.91348e-09
1.91334e-09
1.91361e-09
1.91339e-09
1.9137e-09
1.91278e-09
1.91164e-09
1.90784e-09
1.90067e-09
1.89075e-09
1.84298e-09
1.8523e-09
1.85919e-09
1.86277e-09
1.86387e-09
1.86477e-09
1.86451e-09
1.86473e-09
1.86449e-09
1.86463e-09
1.86449e-09
1.86462e-09
1.86454e-09
1.86465e-09
1.86459e-09
1.86468e-09
1.86464e-09
1.8647e-09
1.86468e-09
1.86472e-09
1.8647e-09
1.86472e-09
1.86471e-09
1.86472e-09
1.86472e-09
1.86472e-09
1.86472e-09
1.86471e-09
1.86472e-09
1.8647e-09
1.86472e-09
1.86467e-09
1.8647e-09
1.86464e-09
1.86467e-09
1.86459e-09
1.86464e-09
1.86454e-09
1.86461e-09
1.86448e-09
1.86462e-09
1.86448e-09
1.86472e-09
1.86449e-09
1.86475e-09
1.86386e-09
1.86274e-09
1.85913e-09
1.85233e-09
1.84298e-09
1.79824e-09
1.80704e-09
1.81356e-09
1.81698e-09
1.81806e-09
1.81893e-09
1.81872e-09
1.81895e-09
1.81875e-09
1.81889e-09
1.81876e-09
1.81889e-09
1.81883e-09
1.81893e-09
1.81888e-09
1.81896e-09
1.81893e-09
1.81899e-09
1.81897e-09
1.81901e-09
1.81899e-09
1.81902e-09
1.819e-09
1.81902e-09
1.81901e-09
1.81901e-09
1.81902e-09
1.819e-09
1.81902e-09
1.81899e-09
1.81901e-09
1.81897e-09
1.81899e-09
1.81893e-09
1.81896e-09
1.81888e-09
1.81892e-09
1.81882e-09
1.81888e-09
1.81876e-09
1.81888e-09
1.81874e-09
1.81894e-09
1.81871e-09
1.81892e-09
1.81804e-09
1.81696e-09
1.8135e-09
1.80707e-09
1.79824e-09
1.75639e-09
1.76469e-09
1.77087e-09
1.77414e-09
1.77521e-09
1.77607e-09
1.77591e-09
1.77614e-09
1.77597e-09
1.77611e-09
1.776e-09
1.77612e-09
1.77607e-09
1.77617e-09
1.77614e-09
1.77622e-09
1.77619e-09
1.77625e-09
1.77623e-09
1.77627e-09
1.77625e-09
1.77628e-09
1.77627e-09
1.77628e-09
1.77628e-09
1.77627e-09
1.77628e-09
1.77627e-09
1.77628e-09
1.77625e-09
1.77627e-09
1.77623e-09
1.77625e-09
1.77619e-09
1.77621e-09
1.77613e-09
1.77617e-09
1.77607e-09
1.77612e-09
1.77599e-09
1.7761e-09
1.77596e-09
1.77613e-09
1.7759e-09
1.77605e-09
1.77519e-09
1.77412e-09
1.77081e-09
1.76472e-09
1.75639e-09
1.71731e-09
1.72513e-09
1.73098e-09
1.73412e-09
1.73519e-09
1.73603e-09
1.73593e-09
1.73617e-09
1.73604e-09
1.73618e-09
1.73608e-09
1.7362e-09
1.73616e-09
1.73626e-09
1.73623e-09
1.73631e-09
1.73629e-09
1.73634e-09
1.73633e-09
1.73637e-09
1.73635e-09
1.73638e-09
1.73637e-09
1.73638e-09
1.73637e-09
1.73637e-09
1.73638e-09
1.73637e-09
1.73637e-09
1.73635e-09
1.73637e-09
1.73633e-09
1.73634e-09
1.73628e-09
1.7363e-09
1.73623e-09
1.73625e-09
1.73615e-09
1.73619e-09
1.73607e-09
1.73617e-09
1.73603e-09
1.73616e-09
1.73592e-09
1.73602e-09
1.73517e-09
1.7341e-09
1.73092e-09
1.72516e-09
1.71731e-09
1.68215e-09
1.68958e-09
1.69511e-09
1.69816e-09
1.69921e-09
1.70006e-09
1.7e-09
1.70025e-09
1.70015e-09
1.70029e-09
1.70019e-09
1.70032e-09
1.70029e-09
1.70039e-09
1.70037e-09
1.70044e-09
1.70043e-09
1.70048e-09
1.70047e-09
1.70051e-09
1.7005e-09
1.70052e-09
1.70051e-09
1.70052e-09
1.70052e-09
1.70052e-09
1.70052e-09
1.70051e-09
1.70052e-09
1.7005e-09
1.70051e-09
1.70047e-09
1.70048e-09
1.70042e-09
1.70044e-09
1.70036e-09
1.70038e-09
1.70028e-09
1.70031e-09
1.70019e-09
1.70028e-09
1.70014e-09
1.70024e-09
1.69998e-09
1.70004e-09
1.6992e-09
1.69814e-09
1.69505e-09
1.6896e-09
1.68214e-09
1.64941e-09
1.65654e-09
1.66164e-09
1.66451e-09
1.66543e-09
1.6662e-09
1.66612e-09
1.66635e-09
1.66624e-09
1.66637e-09
1.66624e-09
1.66636e-09
1.66633e-09
1.66643e-09
1.66641e-09
1.66648e-09
1.66646e-09
1.66652e-09
1.6665e-09
1.66654e-09
1.66653e-09
1.66655e-09
1.66654e-09
1.66655e-09
1.66655e-09
1.66655e-09
1.66655e-09
1.66654e-09
1.66655e-09
1.66653e-09
1.66654e-09
1.6665e-09
1.66651e-09
1.66646e-09
1.66648e-09
1.6664e-09
1.66642e-09
1.66633e-09
1.66635e-09
1.66624e-09
1.66636e-09
1.66623e-09
1.66633e-09
1.66611e-09
1.66619e-09
1.66542e-09
1.66449e-09
1.66158e-09
1.65656e-09
1.64941e-09
1.61804e-09
1.6248e-09
1.62957e-09
1.63235e-09
1.63328e-09
1.63404e-09
1.63401e-09
1.63424e-09
1.63417e-09
1.6343e-09
1.63417e-09
1.63429e-09
1.63427e-09
1.63437e-09
1.63435e-09
1.63443e-09
1.63441e-09
1.63447e-09
1.63446e-09
1.63449e-09
1.63448e-09
1.6345e-09
1.6345e-09
1.63451e-09
1.63451e-09
1.63451e-09
1.63451e-09
1.6345e-09
1.6345e-09
1.63448e-09
1.63449e-09
1.63446e-09
1.63447e-09
1.63441e-09
1.63442e-09
1.63435e-09
1.63436e-09
1.63427e-09
1.63428e-09
1.63417e-09
1.63429e-09
1.63416e-09
1.63423e-09
1.63399e-09
1.63403e-09
1.63326e-09
1.63233e-09
1.62951e-09
1.62482e-09
1.61804e-09
1.58892e-09
1.59532e-09
1.59982e-09
1.60251e-09
1.60346e-09
1.60422e-09
1.60424e-09
1.60449e-09
1.60445e-09
1.60458e-09
1.60445e-09
1.60456e-09
1.60456e-09
1.60465e-09
1.60465e-09
1.60472e-09
1.60471e-09
1.60476e-09
1.60476e-09
1.60479e-09
1.60478e-09
1.6048e-09
1.6048e-09
1.60481e-09
1.60481e-09
1.60481e-09
1.60481e-09
1.6048e-09
1.6048e-09
1.60478e-09
1.60479e-09
1.60476e-09
1.60476e-09
1.60471e-09
1.60472e-09
1.60464e-09
1.60465e-09
1.60455e-09
1.60456e-09
1.60444e-09
1.60457e-09
1.60444e-09
1.60447e-09
1.60422e-09
1.60421e-09
1.60344e-09
1.60249e-09
1.59976e-09
1.59533e-09
1.58891e-09
1.56199e-09
1.56804e-09
1.57231e-09
1.57493e-09
1.5759e-09
1.57666e-09
1.57673e-09
1.57699e-09
1.57699e-09
1.57713e-09
1.57698e-09
1.5771e-09
1.5771e-09
1.5772e-09
1.5772e-09
1.57727e-09
1.57727e-09
1.57732e-09
1.57732e-09
1.57735e-09
1.57734e-09
1.57736e-09
1.57736e-09
1.57737e-09
1.57737e-09
1.57737e-09
1.57737e-09
1.57736e-09
1.57736e-09
1.57734e-09
1.57735e-09
1.57732e-09
1.57732e-09
1.57727e-09
1.57727e-09
1.5772e-09
1.57719e-09
1.5771e-09
1.57709e-09
1.57697e-09
1.57712e-09
1.57698e-09
1.57698e-09
1.57671e-09
1.57665e-09
1.57588e-09
1.57491e-09
1.57225e-09
1.56804e-09
1.56199e-09
1.5372e-09
1.54291e-09
1.54697e-09
1.54952e-09
1.55052e-09
1.55129e-09
1.55141e-09
1.55169e-09
1.55172e-09
1.55187e-09
1.5517e-09
1.55182e-09
1.55184e-09
1.55193e-09
1.55194e-09
1.55201e-09
1.55202e-09
1.55207e-09
1.55207e-09
1.5521e-09
1.5521e-09
1.55211e-09
1.55211e-09
1.55212e-09
1.55212e-09
1.55212e-09
1.55212e-09
1.55211e-09
1.55211e-09
1.5521e-09
1.5521e-09
1.55206e-09
1.55207e-09
1.55201e-09
1.55201e-09
1.55194e-09
1.55193e-09
1.55183e-09
1.55181e-09
1.55169e-09
1.55186e-09
1.55171e-09
1.55168e-09
1.5514e-09
1.55128e-09
1.5505e-09
1.5495e-09
1.54691e-09
1.54291e-09
1.53719e-09
1.51526e-09
1.52069e-09
1.52456e-09
1.52707e-09
1.52809e-09
1.52887e-09
1.52904e-09
1.52934e-09
1.5294e-09
1.52957e-09
1.52936e-09
1.52948e-09
1.52951e-09
1.52961e-09
1.52963e-09
1.5297e-09
1.52971e-09
1.52976e-09
1.52976e-09
1.52979e-09
1.52979e-09
1.52981e-09
1.5298e-09
1.52981e-09
1.52981e-09
1.52981e-09
1.52981e-09
1.5298e-09
1.52981e-09
1.52979e-09
1.52979e-09
1.52976e-09
1.52975e-09
1.5297e-09
1.5297e-09
1.52963e-09
1.52961e-09
1.52951e-09
1.52948e-09
1.52935e-09
1.52956e-09
1.52939e-09
1.52933e-09
1.52903e-09
1.52886e-09
1.52808e-09
1.52705e-09
1.52451e-09
1.52068e-09
1.51526e-09
1.49528e-09
1.50044e-09
1.50415e-09
1.50661e-09
1.50767e-09
1.50847e-09
1.50868e-09
1.509e-09
1.50907e-09
1.50923e-09
1.50897e-09
1.50909e-09
1.50912e-09
1.50922e-09
1.50923e-09
1.5093e-09
1.50931e-09
1.50936e-09
1.50936e-09
1.50939e-09
1.50939e-09
1.50941e-09
1.50941e-09
1.50941e-09
1.50941e-09
1.50941e-09
1.50941e-09
1.50941e-09
1.50941e-09
1.50939e-09
1.50939e-09
1.50936e-09
1.50936e-09
1.50931e-09
1.5093e-09
1.50923e-09
1.50921e-09
1.50911e-09
1.50908e-09
1.50896e-09
1.50922e-09
1.50906e-09
1.50899e-09
1.50867e-09
1.50845e-09
1.50765e-09
1.5066e-09
1.50411e-09
1.50043e-09
1.49528e-09
1.47659e-09
1.48149e-09
1.48507e-09
1.48746e-09
1.48853e-09
1.48934e-09
1.48959e-09
1.48992e-09
1.49001e-09
1.49019e-09
1.48989e-09
1.49002e-09
1.49006e-09
1.49016e-09
1.49018e-09
1.49025e-09
1.49026e-09
1.49031e-09
1.49031e-09
1.49034e-09
1.49034e-09
1.49036e-09
1.49036e-09
1.49037e-09
1.49037e-09
1.49037e-09
1.49037e-09
1.49036e-09
1.49036e-09
1.49034e-09
1.49034e-09
1.49031e-09
1.49031e-09
1.49026e-09
1.49025e-09
1.49018e-09
1.49015e-09
1.49006e-09
1.49002e-09
1.48989e-09
1.49018e-09
1.49e-09
1.48991e-09
1.48958e-09
1.48932e-09
1.48852e-09
1.48744e-09
1.48502e-09
1.48149e-09
1.47659e-09
1.45966e-09
1.46428e-09
1.46775e-09
1.4701e-09
1.47122e-09
1.47204e-09
1.47235e-09
1.4727e-09
1.47283e-09
1.47303e-09
1.47333e-09
1.47347e-09
1.47352e-09
1.47361e-09
1.47364e-09
1.47371e-09
1.47372e-09
1.47377e-09
1.47378e-09
1.47381e-09
1.47381e-09
1.47383e-09
1.47383e-09
1.47384e-09
1.47384e-09
1.47384e-09
1.47384e-09
1.47383e-09
1.47383e-09
1.47381e-09
1.47381e-09
1.47378e-09
1.47377e-09
1.47372e-09
1.47371e-09
1.47364e-09
1.47361e-09
1.47351e-09
1.47346e-09
1.47332e-09
1.47302e-09
1.47282e-09
1.47269e-09
1.47234e-09
1.47203e-09
1.4712e-09
1.47008e-09
1.46771e-09
1.46428e-09
1.45966e-09
1.44507e-09
1.44948e-09
1.45283e-09
1.45515e-09
1.45633e-09
1.45717e-09
1.45752e-09
1.4579e-09
1.45806e-09
1.45828e-09
1.4586e-09
1.45874e-09
1.4588e-09
1.4589e-09
1.45894e-09
1.459e-09
1.45902e-09
1.45907e-09
1.45908e-09
1.45911e-09
1.45911e-09
1.45913e-09
1.45913e-09
1.45914e-09
1.45914e-09
1.45914e-09
1.45914e-09
1.45913e-09
1.45913e-09
1.45911e-09
1.45911e-09
1.45908e-09
1.45907e-09
1.45902e-09
1.459e-09
1.45893e-09
1.4589e-09
1.4588e-09
1.45874e-09
1.45859e-09
1.45827e-09
1.45805e-09
1.45789e-09
1.45751e-09
1.45715e-09
1.45631e-09
1.45514e-09
1.4528e-09
1.44946e-09
1.44507e-09
1.43216e-09
1.43641e-09
1.43965e-09
1.44192e-09
1.44309e-09
1.44393e-09
1.44432e-09
1.4447e-09
1.44488e-09
1.44511e-09
1.44542e-09
1.44557e-09
1.44564e-09
1.44574e-09
1.44577e-09
1.44584e-09
1.44586e-09
1.44591e-09
1.44592e-09
1.44595e-09
1.44596e-09
1.44597e-09
1.44597e-09
1.44598e-09
1.44598e-09
1.44598e-09
1.44598e-09
1.44597e-09
1.44597e-09
1.44596e-09
1.44595e-09
1.44592e-09
1.44591e-09
1.44586e-09
1.44584e-09
1.44577e-09
1.44573e-09
1.44563e-09
1.44557e-09
1.44542e-09
1.4451e-09
1.44487e-09
1.44469e-09
1.44431e-09
1.44392e-09
1.44308e-09
1.44191e-09
1.43962e-09
1.4364e-09
1.43217e-09
1.421e-09
1.42505e-09
1.42823e-09
1.43048e-09
1.4317e-09
1.43257e-09
1.433e-09
1.43341e-09
1.43361e-09
1.43386e-09
1.43417e-09
1.43433e-09
1.4344e-09
1.43451e-09
1.43455e-09
1.43462e-09
1.43464e-09
1.43469e-09
1.43471e-09
1.43474e-09
1.43474e-09
1.43476e-09
1.43476e-09
1.43477e-09
1.43477e-09
1.43477e-09
1.43477e-09
1.43476e-09
1.43476e-09
1.43474e-09
1.43474e-09
1.43471e-09
1.43469e-09
1.43464e-09
1.43462e-09
1.43455e-09
1.4345e-09
1.4344e-09
1.43433e-09
1.43417e-09
1.43386e-09
1.4336e-09
1.4334e-09
1.43299e-09
1.43256e-09
1.43169e-09
1.43046e-09
1.42819e-09
1.42505e-09
1.421e-09
1.41147e-09
1.41536e-09
1.41846e-09
1.42071e-09
1.42199e-09
1.42289e-09
1.42337e-09
1.42381e-09
1.42404e-09
1.42431e-09
1.42462e-09
1.42478e-09
1.42487e-09
1.42497e-09
1.42502e-09
1.42509e-09
1.42512e-09
1.42516e-09
1.42518e-09
1.42521e-09
1.42522e-09
1.42523e-09
1.42524e-09
1.42524e-09
1.42524e-09
1.42524e-09
1.42524e-09
1.42523e-09
1.42523e-09
1.42522e-09
1.42521e-09
1.42518e-09
1.42516e-09
1.42512e-09
1.42509e-09
1.42502e-09
1.42497e-09
1.42486e-09
1.42477e-09
1.42461e-09
1.4243e-09
1.42403e-09
1.4238e-09
1.42336e-09
1.42287e-09
1.42198e-09
1.42069e-09
1.41843e-09
1.41535e-09
1.41148e-09
1.41731e-09
1.41733e-09
1.41734e-09
1.41736e-09
1.41736e-09
1.41737e-09
1.41737e-09
1.41737e-09
1.41737e-09
1.41736e-09
1.41736e-09
1.41734e-09
1.41733e-09
1.4173e-09
1.41729e-09
1.41724e-09
1.41721e-09
1.41713e-09
1.41708e-09
1.41697e-09
1.41687e-09
1.4167e-09
1.4164e-09
1.41611e-09
1.41584e-09
1.41538e-09
1.41484e-09
1.4139e-09
1.41256e-09
1.4103e-09
1.40727e-09
1.40355e-09
1.4111e-09
1.41108e-09
1.41107e-09
1.41104e-09
1.41102e-09
1.41097e-09
1.41094e-09
1.41086e-09
1.4108e-09
1.41069e-09
1.41058e-09
1.4104e-09
1.4101e-09
1.40979e-09
1.4095e-09
1.409e-09
1.40841e-09
1.40744e-09
1.40603e-09
1.40376e-09
1.40076e-09
1.39719e-09
1.40538e-09
1.40506e-09
1.40474e-09
1.40421e-09
1.40355e-09
1.40254e-09
1.40108e-09
1.39879e-09
1.39581e-09
1.39237e-09
)
;

boundaryField
{
    fuel
    {
        type            fixedValue;
        value           nonuniform 0();
    }
    wall
    {
        type            zeroGradient;
    }
    outlet
    {
        type            zeroGradient;
    }
    frontAndBack
    {
        type            empty;
    }
    procBoundary0to1
    {
        type            processor;
        value           nonuniform List<scalar> 
50
(
4.04338e-09
4.06748e-09
4.09014e-09
4.10147e-09
4.10439e-09
4.10666e-09
4.10515e-09
4.10584e-09
4.10464e-09
4.10514e-09
4.10446e-09
4.10486e-09
4.10443e-09
4.10471e-09
4.10443e-09
4.10465e-09
4.10445e-09
4.10463e-09
4.10449e-09
4.10461e-09
4.10452e-09
4.10458e-09
4.10453e-09
4.10456e-09
4.10455e-09
4.10455e-09
4.10456e-09
4.10453e-09
4.10458e-09
4.10452e-09
4.1046e-09
4.10449e-09
4.10462e-09
4.10444e-09
4.10465e-09
4.10443e-09
4.10471e-09
4.10442e-09
4.10485e-09
4.10445e-09
4.10513e-09
4.10463e-09
4.10583e-09
4.10513e-09
4.10664e-09
4.10437e-09
4.10146e-09
4.09013e-09
4.06747e-09
4.04337e-09
)
;
    }
    procBoundary0to2
    {
        type            processor;
        value           nonuniform List<scalar> 
53
(
1.40355e-09
1.40728e-09
1.41033e-09
1.41258e-09
1.41393e-09
1.41485e-09
1.41539e-09
1.41586e-09
1.41612e-09
1.41641e-09
1.41671e-09
1.41688e-09
1.41698e-09
1.41709e-09
1.41714e-09
1.41721e-09
1.41724e-09
1.41729e-09
1.41729e-09
1.41105e-09
1.41107e-09
1.41109e-09
1.4111e-09
1.4111e-09
1.41111e-09
1.41111e-09
1.41111e-09
1.41111e-09
1.4111e-09
1.4111e-09
1.40642e-09
1.4064e-09
1.40639e-09
1.40636e-09
1.40634e-09
1.40629e-09
1.40625e-09
1.40618e-09
1.40611e-09
1.40599e-09
1.40588e-09
1.40569e-09
1.40569e-09
1.40222e-09
1.40188e-09
1.40153e-09
1.40097e-09
1.40025e-09
1.39919e-09
1.39767e-09
1.39536e-09
1.39238e-09
1.38906e-09
)
;
    }
}


// ************************************************************************* //
