/*--------------------------------*- C++ -*----------------------------------*\
| =========                 |                                                 |
| \\      /  F ield         | OpenFOAM: The Open Source CFD Toolbox           |
|  \\    /   O peration     | Version:  dev                                   |
|   \\  /    A nd           | Web:      www.OpenFOAM.org                      |
|    \\/     M anipulation  |                                                 |
\*---------------------------------------------------------------------------*/
FoamFile
{
    version     2.0;
    format      ascii;
    class       volScalarField;
    location    "0.055";
    object      C6H;
}
// * * * * * * * * * * * * * * * * * * * * * * * * * * * * * * * * * * * * * //

dimensions      [0 0 0 0 0 0 0];

internalField   nonuniform List<scalar> 
25
(
2.17283e-07
6.73105e-08
1.71725e-08
4.09969e-09
9.47641e-10
2.16949e-10
4.9696e-11
1.17447e-11
2.88413e-12
7.49629e-13
2.07092e-13
6.03105e-14
1.83336e-14
5.70907e-15
1.79302e-15
5.62814e-16
1.76159e-16
5.51948e-17
1.75068e-17
5.76698e-18
2.07967e-18
8.96746e-19
5.15519e-19
4.06781e-19
4.06161e-19
)
;

boundaryField
{
    wall
    {
        type            zeroGradient;
    }
    fuel
    {
        type            fixedValue;
        value           uniform 0;
    }
    outlet
    {
        type            inletOutlet;
        inletValue      nonuniform 0();
        value           nonuniform 0();
    }
    procBoundary0to1
    {
        type            processor;
        value           uniform 4.64369e-19;
    }
}


// ************************************************************************* //
