/*--------------------------------*- C++ -*----------------------------------*\
| =========                 |                                                 |
| \\      /  F ield         | OpenFOAM: The Open Source CFD Toolbox           |
|  \\    /   O peration     | Version:  dev                                   |
|   \\  /    A nd           | Web:      www.OpenFOAM.org                      |
|    \\/     M anipulation  |                                                 |
\*---------------------------------------------------------------------------*/
FoamFile
{
    version     2.0;
    format      ascii;
    class       volScalarField;
    location    "0.055";
    object      CH;
}
// * * * * * * * * * * * * * * * * * * * * * * * * * * * * * * * * * * * * * //

dimensions      [0 0 0 0 0 0 0];

internalField   nonuniform List<scalar> 
250
(
6.5943e-09
6.64269e-09
6.58242e-09
6.71445e-09
6.56343e-09
6.92392e-09
6.26759e-09
6.26399e-09
3.02506e-09
1.48437e-09
5.78543e-09
5.83801e-09
5.7737e-09
5.90997e-09
5.75659e-09
6.12498e-09
5.50368e-09
5.65182e-09
2.75834e-09
1.31294e-09
7.17806e-10
2.29627e-09
4.34478e-09
4.98474e-09
5.04542e-09
5.03426e-09
5.03261e-09
4.99512e-09
5.02192e-09
4.99356e-09
4.98052e-09
5.0349e-09
4.96924e-09
5.10554e-09
4.95411e-09
5.32164e-09
4.74292e-09
5.02297e-09
2.47301e-09
1.17104e-09
6.69023e-10
2.07991e-09
3.75041e-09
4.232e-09
4.26304e-09
4.24707e-09
4.24554e-09
4.20811e-09
4.23528e-09
4.20618e-09
4.19359e-09
4.24756e-09
4.18297e-09
4.31521e-09
4.16984e-09
4.52694e-09
3.99813e-09
4.38281e-09
2.16796e-09
1.07029e-09
6.27736e-10
1.83201e-09
3.16072e-09
3.50407e-09
3.51112e-09
3.4919e-09
3.49072e-09
3.45475e-09
3.48122e-09
3.45269e-09
3.441e-09
3.49255e-09
3.43122e-09
3.55553e-09
3.42002e-09
3.75704e-09
3.28446e-09
3.74068e-09
1.86623e-09
9.60985e-10
5.85842e-10
1.58332e-09
2.58856e-09
2.81782e-09
2.80764e-09
2.78679e-09
2.78612e-09
2.7529e-09
2.77765e-09
2.75088e-09
2.74051e-09
2.78784e-09
2.73176e-09
2.84461e-09
2.72239e-09
3.03019e-09
2.61863e-09
3.10958e-09
1.55868e-09
8.56687e-10
5.35945e-10
1.31987e-09
2.05106e-09
2.19086e-09
2.17042e-09
2.14947e-09
2.14936e-09
2.12017e-09
2.14214e-09
2.11825e-09
2.10956e-09
2.15105e-09
2.10209e-09
2.20043e-09
2.09449e-09
2.3652e-09
2.0172e-09
2.50555e-09
1.25801e-09
7.52207e-10
4.76243e-10
1.05711e-09
1.5652e-09
1.63935e-09
1.61518e-09
1.59528e-09
1.59569e-09
1.56951e-09
1.58985e-09
1.56877e-09
1.56026e-09
1.59748e-09
1.55267e-09
1.63878e-09
1.54582e-09
1.7794e-09
1.49494e-09
1.94642e-09
9.76618e-10
6.61427e-10
4.0408e-10
8.0821e-10
1.14555e-09
1.16154e-09
1.1246e-09
1.11185e-09
1.11249e-09
1.09136e-09
1.10765e-09
1.08988e-09
1.08379e-09
1.11261e-09
1.07875e-09
1.14374e-09
1.07513e-09
1.24661e-09
1.04331e-09
1.45073e-09
7.2482e-10
5.62016e-10
3.26598e-10
5.85966e-10
7.72278e-10
7.8979e-10
7.58579e-10
7.48292e-10
7.49105e-10
7.3304e-10
7.4559e-10
7.31926e-10
7.27449e-10
7.49295e-10
7.23656e-10
7.72397e-10
7.21081e-10
8.49519e-10
7.01596e-10
1.03674e-09
5.04516e-10
4.42631e-10
2.4839e-10
4.01111e-10
5.06183e-10
5.08179e-10
4.84245e-10
4.76568e-10
4.77396e-10
4.65869e-10
4.75004e-10
4.65098e-10
4.61982e-10
4.77588e-10
4.59274e-10
4.93673e-10
4.57519e-10
5.47965e-10
4.46168e-10
6.68578e-10
3.36179e-10
3.43856e-10
1.76389e-10
2.57745e-10
3.12115e-10
3.07808e-10
2.91077e-10
2.85773e-10
2.86495e-10
2.78756e-10
2.84981e-10
2.78262e-10
2.76228e-10
2.86653e-10
2.74419e-10
2.97091e-10
2.73305e-10
3.32708e-10
2.67138e-10
4.23455e-10
2.10573e-10
2.5173e-10
1.16169e-10
1.5464e-10
1.80089e-10
1.74675e-10
1.63964e-10
1.60597e-10
1.61152e-10
1.5632e-10
1.60265e-10
1.56027e-10
1.54794e-10
1.61263e-10
1.53673e-10
1.67535e-10
1.53024e-10
1.89156e-10
1.4991e-10
2.50307e-10
1.23455e-10
1.71952e-10
8.09605e-11
8.46662e-11
8.03219e-11
8.81335e-11
7.99807e-11
1.00198e-10
7.85227e-11
1.37239e-10
6.74416e-11
1.0852e-10
)
;

boundaryField
{
    fuel
    {
        type            fixedValue;
        value           nonuniform 0();
    }
    wall
    {
        type            zeroGradient;
    }
    outlet
    {
        type            zeroGradient;
    }
    frontAndBack
    {
        type            empty;
    }
    procBoundary0to1
    {
        type            processor;
        value           nonuniform List<scalar> 
21
(
7.05185e-11
8.61574e-11
9.67773e-11
9.24342e-11
8.61777e-11
8.42158e-11
8.45992e-11
8.18101e-11
8.41205e-11
8.16503e-11
8.16503e-11
3.93686e-11
4.13264e-11
3.90316e-11
4.30902e-11
3.88629e-11
4.92675e-11
3.82145e-11
6.95568e-11
3.41728e-11
6.27978e-11
)
;
    }
    procBoundary0to2
    {
        type            processor;
        value           nonuniform List<scalar> 
12
(
6.60775e-09
7.85253e-10
2.48105e-09
4.92705e-09
5.74727e-09
5.84198e-09
5.83686e-09
5.83548e-09
5.7996e-09
5.82468e-09
5.79873e-09
5.79873e-09
)
;
    }
    procBoundary0to3
    {
        type            processor;
        value           nonuniform List<scalar> 10(7.39577e-09 7.43788e-09 7.38393e-09 7.50883e-09 7.36271e-09 7.71102e-09 7.02331e-09 6.97625e-09 3.27991e-09 1.71903e-09);
    }
}


// ************************************************************************* //
