/*--------------------------------*- C++ -*----------------------------------*\
| =========                 |                                                 |
| \\      /  F ield         | OpenFOAM: The Open Source CFD Toolbox           |
|  \\    /   O peration     | Version:  dev                                   |
|   \\  /    A nd           | Web:      www.OpenFOAM.org                      |
|    \\/     M anipulation  |                                                 |
\*---------------------------------------------------------------------------*/
FoamFile
{
    version     2.0;
    format      ascii;
    class       volScalarField;
    location    "0.055";
    object      CH2(S);
}
// * * * * * * * * * * * * * * * * * * * * * * * * * * * * * * * * * * * * * //

dimensions      [0 0 0 0 0 0 0];

internalField   nonuniform List<scalar> 
250
(
2.2443e-08
2.25661e-08
2.24125e-08
2.27488e-08
2.23656e-08
2.329e-08
2.16542e-08
2.18398e-08
1.3047e-08
8.50024e-09
2.03411e-08
2.04793e-08
2.031e-08
2.06683e-08
2.02665e-08
2.12391e-08
1.96375e-08
2.02016e-08
1.21233e-08
7.69851e-09
4.18376e-09
1.04056e-08
1.65414e-08
1.82225e-08
1.83592e-08
1.83221e-08
1.83166e-08
1.82143e-08
1.82875e-08
1.82106e-08
1.8175e-08
1.83234e-08
1.8144e-08
1.85158e-08
1.81039e-08
1.91087e-08
1.7558e-08
1.84741e-08
1.11215e-08
7.00361e-09
3.99962e-09
9.63325e-09
1.47972e-08
1.61087e-08
1.61729e-08
1.61217e-08
1.61165e-08
1.60099e-08
1.60874e-08
1.60048e-08
1.59689e-08
1.61227e-08
1.59384e-08
1.63151e-08
1.59021e-08
1.69193e-08
1.5438e-08
1.66608e-08
1.00298e-08
6.48986e-09
3.832e-09
8.73031e-09
1.29973e-08
1.39707e-08
1.3972e-08
1.39097e-08
1.39055e-08
1.37977e-08
1.38771e-08
1.37918e-08
1.37567e-08
1.39113e-08
1.37273e-08
1.40995e-08
1.36947e-08
1.47018e-08
1.3309e-08
1.4775e-08
8.92153e-09
5.91458e-09
3.64724e-09
7.79786e-09
1.11683e-08
1.18476e-08
1.17995e-08
1.17296e-08
1.1727e-08
1.16214e-08
1.17001e-08
1.16152e-08
1.15822e-08
1.17327e-08
1.15543e-08
1.19123e-08
1.15254e-08
1.24977e-08
1.12122e-08
1.28409e-08
7.75424e-09
5.35514e-09
3.41153e-09
6.7741e-09
9.35459e-09
9.78822e-09
9.70681e-09
9.63294e-09
9.63219e-09
9.53306e-09
9.60777e-09
9.5267e-09
9.49713e-09
9.6381e-09
9.47168e-09
9.80488e-09
9.44656e-09
1.0358e-08
9.19693e-09
1.08951e-08
6.56427e-09
4.7884e-09
3.1149e-09
5.70495e-09
7.60897e-09
7.8482e-09
7.75068e-09
7.67605e-09
7.67727e-09
7.58146e-09
7.65599e-09
7.57879e-09
7.54762e-09
7.68391e-09
7.51983e-09
7.83409e-09
7.49535e-09
8.3408e-09
7.31858e-09
8.98581e-09
5.39167e-09
4.29239e-09
2.7402e-09
4.63311e-09
5.98832e-09
6.0302e-09
5.87737e-09
5.82491e-09
5.82731e-09
5.74271e-09
5.80803e-09
5.73681e-09
5.71238e-09
5.82791e-09
5.69219e-09
5.95173e-09
5.67807e-09
6.35677e-09
5.55722e-09
7.17497e-09
4.27509e-09
3.74367e-09
2.31826e-09
3.6083e-09
4.42067e-09
4.48215e-09
4.34192e-09
4.29562e-09
4.29913e-09
4.22827e-09
4.28372e-09
4.22337e-09
4.20358e-09
4.30007e-09
4.18682e-09
4.4012e-09
4.17571e-09
4.73477e-09
4.09407e-09
5.54044e-09
3.22264e-09
3.0724e-09
1.86772e-09
2.6839e-09
3.1864e-09
3.18633e-09
3.06772e-09
3.02947e-09
3.03352e-09
2.97687e-09
3.02185e-09
2.97308e-09
2.95772e-09
3.03453e-09
2.94439e-09
3.1129e-09
2.93591e-09
3.37376e-09
2.88276e-09
3.94846e-09
2.34476e-09
2.49801e-09
1.42344e-09
1.8964e-09
2.1849e-09
2.15574e-09
2.06302e-09
2.03338e-09
2.03739e-09
1.99452e-09
2.02908e-09
1.99178e-09
1.98048e-09
2.03832e-09
1.97044e-09
2.09558e-09
1.96435e-09
2.28794e-09
1.93164e-09
2.76759e-09
1.62188e-09
1.93764e-09
1.01976e-09
1.26601e-09
1.41768e-09
1.38119e-09
1.31394e-09
1.29258e-09
1.29612e-09
1.2656e-09
1.29057e-09
1.26374e-09
1.25593e-09
1.29686e-09
1.24883e-09
1.33606e-09
1.24477e-09
1.46889e-09
1.22578e-09
1.8327e-09
1.0616e-09
1.42171e-09
7.50488e-10
7.77538e-10
7.45824e-10
8.02516e-10
7.43341e-10
8.87825e-10
7.32945e-10
1.13943e-09
6.53984e-10
9.77893e-10
)
;

boundaryField
{
    fuel
    {
        type            fixedValue;
        value           nonuniform 0();
    }
    wall
    {
        type            zeroGradient;
    }
    outlet
    {
        type            zeroGradient;
    }
    frontAndBack
    {
        type            empty;
    }
    procBoundary0to1
    {
        type            processor;
        value           nonuniform List<scalar> 
21
(
6.82289e-10
7.93731e-10
8.65773e-10
8.33527e-10
7.88486e-10
7.74189e-10
7.77022e-10
7.56708e-10
7.73577e-10
7.55534e-10
7.55534e-10
4.20165e-10
4.36832e-10
4.17293e-10
4.5164e-10
4.15842e-10
5.02487e-10
4.10322e-10
6.61863e-10
3.76737e-10
6.25529e-10
)
;
    }
    procBoundary0to2
    {
        type            processor;
        value           nonuniform List<scalar> 
12
(
2.24774e-08
4.42689e-09
1.10566e-08
1.81945e-08
2.02826e-08
2.04979e-08
2.04768e-08
2.0472e-08
2.03778e-08
2.04438e-08
2.03762e-08
2.03762e-08
)
;
    }
    procBoundary0to3
    {
        type            processor;
        value           nonuniform List<scalar> 10(2.44642e-08 2.45685e-08 2.44345e-08 2.47443e-08 2.43836e-08 2.52552e-08 2.35908e-08 2.36951e-08 1.39201e-08 9.54892e-09);
    }
}


// ************************************************************************* //
