/*--------------------------------*- C++ -*----------------------------------*\
| =========                 |                                                 |
| \\      /  F ield         | OpenFOAM: The Open Source CFD Toolbox           |
|  \\    /   O peration     | Version:  dev                                   |
|   \\  /    A nd           | Web:      www.OpenFOAM.org                      |
|    \\/     M anipulation  |                                                 |
\*---------------------------------------------------------------------------*/
FoamFile
{
    version     2.0;
    format      ascii;
    class       volScalarField;
    location    "0.055";
    object      CH2CO;
}
// * * * * * * * * * * * * * * * * * * * * * * * * * * * * * * * * * * * * * //

dimensions      [0 0 0 0 0 0 0];

internalField   nonuniform List<scalar> 
250
(
1.96422e-05
1.96606e-05
1.96351e-05
1.96746e-05
1.97197e-05
1.97903e-05
2.02417e-05
2.06433e-05
2.16505e-05
2.11343e-05
1.89391e-05
1.89579e-05
1.89327e-05
1.89726e-05
1.90176e-05
1.90858e-05
1.95302e-05
1.99026e-05
2.09541e-05
2.01013e-05
1.95759e-05
2.05889e-05
1.92907e-05
1.88849e-05
1.84697e-05
1.83236e-05
1.8324e-05
1.82283e-05
1.82947e-05
1.82363e-05
1.82483e-05
1.82676e-05
1.82425e-05
1.82829e-05
1.83276e-05
1.83931e-05
1.88285e-05
1.918e-05
2.02702e-05
1.93552e-05
1.91935e-05
1.98799e-05
1.85714e-05
1.81826e-05
1.77815e-05
1.76401e-05
1.76413e-05
1.7545e-05
1.76126e-05
1.75524e-05
1.75648e-05
1.75847e-05
1.75596e-05
1.76004e-05
1.76447e-05
1.77071e-05
1.81315e-05
1.8462e-05
1.95028e-05
1.8763e-05
1.87592e-05
1.91539e-05
1.78473e-05
1.748e-05
1.70952e-05
1.69587e-05
1.69607e-05
1.68639e-05
1.69328e-05
1.68707e-05
1.68835e-05
1.69041e-05
1.6879e-05
1.69201e-05
1.6964e-05
1.7023e-05
1.74343e-05
1.77434e-05
1.87983e-05
1.8233e-05
1.82506e-05
1.8406e-05
1.71133e-05
1.67726e-05
1.64062e-05
1.62748e-05
1.62778e-05
1.61804e-05
1.62509e-05
1.61868e-05
1.62002e-05
1.62215e-05
1.61962e-05
1.62375e-05
1.6281e-05
1.63363e-05
1.67321e-05
1.70189e-05
1.80731e-05
1.77035e-05
1.76618e-05
1.7634e-05
1.63652e-05
1.60563e-05
1.5711e-05
1.55852e-05
1.5589e-05
1.54913e-05
1.55633e-05
1.54973e-05
1.55111e-05
1.55332e-05
1.55078e-05
1.5549e-05
1.5592e-05
1.56435e-05
1.60208e-05
1.62846e-05
1.7326e-05
1.71394e-05
1.6996e-05
1.68371e-05
1.56002e-05
1.53279e-05
1.50073e-05
1.48874e-05
1.48922e-05
1.47943e-05
1.48679e-05
1.47999e-05
1.48142e-05
1.4837e-05
1.48114e-05
1.48524e-05
1.48949e-05
1.49425e-05
1.52954e-05
1.55379e-05
1.65562e-05
1.65238e-05
1.62618e-05
1.60167e-05
1.48203e-05
1.45858e-05
1.42374e-05
1.41277e-05
1.41342e-05
1.4038e-05
1.41119e-05
1.40426e-05
1.40571e-05
1.40808e-05
1.40557e-05
1.4096e-05
1.41363e-05
1.4175e-05
1.45568e-05
1.47529e-05
1.57637e-05
1.58521e-05
1.54708e-05
1.51762e-05
1.4033e-05
1.38317e-05
1.3504e-05
1.34011e-05
1.34086e-05
1.33136e-05
1.33881e-05
1.33177e-05
1.33325e-05
1.33566e-05
1.33316e-05
1.3371e-05
1.34102e-05
1.34444e-05
1.38064e-05
1.39766e-05
1.49515e-05
1.51279e-05
1.46372e-05
1.4321e-05
1.32385e-05
1.30696e-05
1.27621e-05
1.26666e-05
1.26751e-05
1.25818e-05
1.26565e-05
1.25855e-05
1.26005e-05
1.26247e-05
1.26001e-05
1.26381e-05
1.26762e-05
1.27058e-05
1.30471e-05
1.31919e-05
1.41237e-05
1.43608e-05
1.37762e-05
1.34581e-05
1.24419e-05
1.23038e-05
1.20155e-05
1.19281e-05
1.19374e-05
1.18465e-05
1.19208e-05
1.18497e-05
1.18648e-05
1.1889e-05
1.18649e-05
1.19013e-05
1.1938e-05
1.19632e-05
1.22831e-05
1.24035e-05
1.32864e-05
1.35484e-05
1.2903e-05
1.25951e-05
1.16483e-05
1.15371e-05
1.12698e-05
1.11892e-05
1.11996e-05
1.11112e-05
1.11849e-05
1.11141e-05
1.11292e-05
1.11533e-05
1.11297e-05
1.11643e-05
1.11996e-05
1.12205e-05
1.15188e-05
1.16166e-05
1.24466e-05
1.27271e-05
1.03963e-05
1.04201e-05
1.03972e-05
1.04298e-05
1.04635e-05
1.04806e-05
1.07573e-05
1.0835e-05
1.16103e-05
1.18963e-05
)
;

boundaryField
{
    fuel
    {
        type            fixedValue;
        value           nonuniform 0();
    }
    wall
    {
        type            zeroGradient;
    }
    outlet
    {
        type            zeroGradient;
    }
    frontAndBack
    {
        type            empty;
    }
    procBoundary0to1
    {
        type            processor;
        value           nonuniform List<scalar> 
21
(
1.20301e-05
1.17379e-05
1.08613e-05
1.07729e-05
1.05271e-05
1.0453e-05
1.0464e-05
1.03789e-05
1.04516e-05
1.03813e-05
1.03813e-05
9.66849e-06
9.69209e-06
9.66999e-06
9.70008e-06
9.73216e-06
9.74571e-06
1.00006e-05
1.00614e-05
1.07805e-05
1.10648e-05
)
;
    }
    procBoundary0to2
    {
        type            processor;
        value           nonuniform List<scalar> 
12
(
1.96321e-05
1.99461e-05
2.13114e-05
2.00095e-05
1.95924e-05
1.91645e-05
1.90147e-05
1.90142e-05
1.89194e-05
1.89845e-05
1.89279e-05
1.89279e-05
)
;
    }
    procBoundary0to3
    {
        type            processor;
        value           nonuniform List<scalar> 10(2.03629e-05 2.0381e-05 2.03553e-05 2.03941e-05 2.04391e-05 2.05115e-05 2.10261e-05 2.13873e-05 2.23672e-05 2.27418e-05);
    }
}


// ************************************************************************* //
