/*--------------------------------*- C++ -*----------------------------------*\
| =========                 |                                                 |
| \\      /  F ield         | OpenFOAM: The Open Source CFD Toolbox           |
|  \\    /   O peration     | Version:  dev                                   |
|   \\  /    A nd           | Web:      www.OpenFOAM.org                      |
|    \\/     M anipulation  |                                                 |
\*---------------------------------------------------------------------------*/
FoamFile
{
    version     2.0;
    format      ascii;
    class       volScalarField;
    location    "0.055";
    object      CH2OH;
}
// * * * * * * * * * * * * * * * * * * * * * * * * * * * * * * * * * * * * * //

dimensions      [0 0 0 0 0 0 0];

internalField   nonuniform List<scalar> 
250
(
1.24762e-08
1.25081e-08
1.24739e-08
1.2529e-08
1.2574e-08
1.25809e-08
1.27798e-08
1.18888e-08
8.74297e-09
3.69927e-09
1.14601e-08
1.14937e-08
1.14583e-08
1.15154e-08
1.15628e-08
1.15706e-08
1.1809e-08
1.10416e-08
8.53981e-09
3.99304e-09
5.08299e-09
8.78237e-09
1.02573e-08
1.08385e-08
1.0616e-08
1.0507e-08
1.05235e-08
1.03863e-08
1.04856e-08
1.03907e-08
1.04071e-08
1.04421e-08
1.04058e-08
1.04642e-08
1.05136e-08
1.05219e-08
1.07925e-08
1.01479e-08
8.23767e-09
4.25261e-09
5.25968e-09
8.2987e-09
9.2952e-09
9.77792e-09
9.53575e-09
9.42622e-09
9.44292e-09
9.30339e-09
9.40613e-09
9.30748e-09
9.32489e-09
9.36091e-09
9.32405e-09
9.38303e-09
9.43349e-09
9.44187e-09
9.73583e-09
9.20224e-09
7.77434e-09
4.43172e-09
5.26753e-09
7.69814e-09
8.28964e-09
8.68736e-09
8.4345e-09
8.32627e-09
8.34325e-09
8.20357e-09
8.30824e-09
8.20736e-09
8.22554e-09
8.262e-09
8.22512e-09
8.28358e-09
8.33426e-09
8.34218e-09
8.64927e-09
8.21391e-09
7.24306e-09
4.49589e-09
5.09563e-09
6.99195e-09
7.25562e-09
7.58199e-09
7.32846e-09
7.22393e-09
7.24097e-09
7.10394e-09
7.20849e-09
7.10744e-09
7.12601e-09
7.16216e-09
7.12594e-09
7.1826e-09
7.23246e-09
7.23951e-09
7.54802e-09
7.19794e-09
6.60674e-09
4.4228e-09
4.75753e-09
6.20254e-09
6.21368e-09
6.48199e-09
6.23901e-09
6.14072e-09
6.15747e-09
6.02623e-09
6.12821e-09
6.02945e-09
6.04793e-09
6.08289e-09
6.04811e-09
6.10161e-09
6.14954e-09
6.1555e-09
6.45243e-09
6.17545e-09
5.88541e-09
4.20735e-09
4.28383e-09
5.36009e-09
5.19016e-09
5.41195e-09
5.19195e-09
5.10243e-09
5.11845e-09
4.99612e-09
5.09295e-09
4.99911e-09
5.01695e-09
5.04981e-09
5.01723e-09
5.06628e-09
5.11122e-09
5.11619e-09
5.38476e-09
5.17272e-09
5.10638e-09
3.86181e-09
3.71656e-09
4.50044e-09
4.2165e-09
4.39905e-09
4.14326e-09
4.06884e-09
4.08464e-09
3.97682e-09
4.06394e-09
3.97853e-09
3.99489e-09
4.02498e-09
3.99638e-09
4.03943e-09
4.07786e-09
4.07618e-09
4.37568e-09
4.18951e-09
4.3024e-09
3.41361e-09
3.10322e-09
3.66153e-09
3.32729e-09
3.47202e-09
3.25133e-09
3.18858e-09
3.20284e-09
3.10946e-09
3.18631e-09
3.11084e-09
3.12549e-09
3.15183e-09
3.12696e-09
3.16357e-09
3.19693e-09
3.19446e-09
3.45298e-09
3.30938e-09
3.51109e-09
2.90107e-09
2.4908e-09
2.87935e-09
2.54192e-09
2.65484e-09
2.47165e-09
2.42102e-09
2.4334e-09
2.35571e-09
2.42082e-09
2.35678e-09
2.36935e-09
2.39149e-09
2.37072e-09
2.40058e-09
2.42843e-09
2.42538e-09
2.63956e-09
2.53043e-09
2.76802e-09
2.36768e-09
1.92006e-09
2.18402e-09
1.87677e-09
1.96324e-09
1.81691e-09
1.77814e-09
1.78845e-09
1.7265e-09
1.77936e-09
1.7273e-09
1.73763e-09
1.75546e-09
1.73884e-09
1.76213e-09
1.78443e-09
1.78111e-09
1.95106e-09
1.86956e-09
2.10369e-09
1.84573e-09
1.42103e-09
1.59597e-09
1.33823e-09
1.40234e-09
1.2913e-09
1.2626e-09
1.27087e-09
1.22356e-09
1.26464e-09
1.22414e-09
1.23226e-09
1.246e-09
1.23327e-09
1.25063e-09
1.26772e-09
1.26446e-09
1.39335e-09
1.33378e-09
1.53944e-09
1.38338e-09
8.45779e-10
8.55924e-10
8.46585e-10
8.58947e-10
8.71474e-10
8.68558e-10
9.61897e-10
9.1945e-10
1.08488e-09
9.94061e-10
)
;

boundaryField
{
    fuel
    {
        type            fixedValue;
        value           nonuniform 0();
    }
    wall
    {
        type            zeroGradient;
    }
    outlet
    {
        type            zeroGradient;
    }
    frontAndBack
    {
        type            empty;
    }
    procBoundary0to1
    {
        type            processor;
        value           nonuniform List<scalar> 
21
(
1.0105e-09
1.12349e-09
9.22189e-10
9.68069e-10
8.87928e-10
8.6751e-10
8.73834e-10
8.39293e-10
8.69838e-10
8.39684e-10
8.39684e-10
5.63267e-10
5.7049e-10
5.63922e-10
5.72298e-10
5.81095e-10
5.78678e-10
6.43267e-10
6.13916e-10
7.37423e-10
6.86387e-10
)
;
    }
    procBoundary0to2
    {
        type            processor;
        value           nonuniform List<scalar> 
12
(
1.24625e-08
4.74566e-09
9.146e-09
1.11638e-08
1.1859e-08
1.16631e-08
1.15573e-08
1.15731e-08
1.14403e-08
1.15349e-08
1.1445e-08
1.1445e-08
)
;
    }
    procBoundary0to3
    {
        type            processor;
        value           nonuniform List<scalar> 10(1.34512e-08 1.34814e-08 1.34485e-08 1.3501e-08 1.35433e-08 1.35486e-08 1.37765e-08 1.26639e-08 8.84804e-09 3.40672e-09);
    }
}


// ************************************************************************* //
