/*--------------------------------*- C++ -*----------------------------------*\
| =========                 |                                                 |
| \\      /  F ield         | OpenFOAM: The Open Source CFD Toolbox           |
|  \\    /   O peration     | Version:  dev                                   |
|   \\  /    A nd           | Web:      www.OpenFOAM.org                      |
|    \\/     M anipulation  |                                                 |
\*---------------------------------------------------------------------------*/
FoamFile
{
    version     2.0;
    format      ascii;
    class       volScalarField;
    location    "0.055";
    object      CH3O;
}
// * * * * * * * * * * * * * * * * * * * * * * * * * * * * * * * * * * * * * //

dimensions      [0 0 0 0 0 0 0];

internalField   nonuniform List<scalar> 
2014
(
6.73333e-10
6.75842e-10
6.78445e-10
6.7984e-10
6.80447e-10
6.80763e-10
6.80729e-10
6.80745e-10
6.80639e-10
6.80617e-10
6.80537e-10
6.80522e-10
6.80472e-10
6.80466e-10
6.80435e-10
6.80435e-10
6.80415e-10
6.80419e-10
6.80408e-10
6.8041e-10
6.80403e-10
6.80404e-10
6.804e-10
6.80401e-10
6.804e-10
6.804e-10
6.80401e-10
6.804e-10
6.80404e-10
6.80403e-10
6.8041e-10
6.80408e-10
6.80419e-10
6.80416e-10
6.80435e-10
6.80435e-10
6.80466e-10
6.80472e-10
6.80523e-10
6.80538e-10
6.80617e-10
6.80639e-10
6.80746e-10
6.8073e-10
6.80764e-10
6.80448e-10
6.79842e-10
6.78447e-10
6.75844e-10
6.73335e-10
6.63755e-10
6.66204e-10
6.68723e-10
6.70066e-10
6.7065e-10
6.70952e-10
6.70913e-10
6.70923e-10
6.70815e-10
6.70789e-10
6.70708e-10
6.70691e-10
6.7064e-10
6.70632e-10
6.70601e-10
6.706e-10
6.70581e-10
6.70584e-10
6.70573e-10
6.70575e-10
6.70568e-10
6.70569e-10
6.70565e-10
6.70565e-10
6.70564e-10
6.70564e-10
6.70565e-10
6.70565e-10
6.70569e-10
6.70568e-10
6.70575e-10
6.70573e-10
6.70584e-10
6.70581e-10
6.70601e-10
6.70601e-10
6.70632e-10
6.7064e-10
6.70691e-10
6.70709e-10
6.7079e-10
6.70816e-10
6.70924e-10
6.70914e-10
6.70953e-10
6.70651e-10
6.70068e-10
6.68725e-10
6.66207e-10
6.63758e-10
6.54497e-10
6.56894e-10
6.59326e-10
6.60619e-10
6.6118e-10
6.61467e-10
6.61423e-10
6.61427e-10
6.61317e-10
6.61286e-10
6.61205e-10
6.61184e-10
6.61133e-10
6.61124e-10
6.61093e-10
6.61091e-10
6.61072e-10
6.61074e-10
6.61063e-10
6.61065e-10
6.61058e-10
6.61059e-10
6.61054e-10
6.61055e-10
6.61054e-10
6.61054e-10
6.61055e-10
6.61054e-10
6.61059e-10
6.61058e-10
6.61065e-10
6.61063e-10
6.61074e-10
6.61072e-10
6.61091e-10
6.61093e-10
6.61124e-10
6.61133e-10
6.61185e-10
6.61205e-10
6.61287e-10
6.61318e-10
6.61427e-10
6.61424e-10
6.61468e-10
6.61181e-10
6.60621e-10
6.59328e-10
6.56897e-10
6.545e-10
6.45501e-10
6.47854e-10
6.50197e-10
6.51442e-10
6.51979e-10
6.52251e-10
6.52202e-10
6.52199e-10
6.52087e-10
6.52052e-10
6.51969e-10
6.51946e-10
6.51894e-10
6.51883e-10
6.51852e-10
6.5185e-10
6.5183e-10
6.51832e-10
6.51821e-10
6.51823e-10
6.51815e-10
6.51816e-10
6.51812e-10
6.51813e-10
6.51812e-10
6.51812e-10
6.51813e-10
6.51812e-10
6.51816e-10
6.51815e-10
6.51823e-10
6.51821e-10
6.51832e-10
6.5183e-10
6.5185e-10
6.51852e-10
6.51884e-10
6.51894e-10
6.51946e-10
6.5197e-10
6.52053e-10
6.52088e-10
6.522e-10
6.52203e-10
6.52252e-10
6.5198e-10
6.51444e-10
6.50199e-10
6.47857e-10
6.45505e-10
6.36724e-10
6.39033e-10
6.41294e-10
6.42488e-10
6.43e-10
6.43258e-10
6.43202e-10
6.43192e-10
6.43078e-10
6.43039e-10
6.42954e-10
6.42928e-10
6.42875e-10
6.42864e-10
6.42832e-10
6.42829e-10
6.42809e-10
6.42811e-10
6.428e-10
6.42801e-10
6.42794e-10
6.42794e-10
6.4279e-10
6.42791e-10
6.4279e-10
6.4279e-10
6.42791e-10
6.4279e-10
6.42795e-10
6.42794e-10
6.42801e-10
6.42799e-10
6.42811e-10
6.4281e-10
6.42829e-10
6.42832e-10
6.42864e-10
6.42876e-10
6.42929e-10
6.42955e-10
6.4304e-10
6.43079e-10
6.43193e-10
6.43203e-10
6.43259e-10
6.43001e-10
6.4249e-10
6.41297e-10
6.39036e-10
6.36727e-10
6.28125e-10
6.30394e-10
6.32573e-10
6.33718e-10
6.34204e-10
6.34446e-10
6.34384e-10
6.34367e-10
6.3425e-10
6.34207e-10
6.3412e-10
6.34092e-10
6.34038e-10
6.34025e-10
6.33993e-10
6.33989e-10
6.3397e-10
6.33971e-10
6.33959e-10
6.3396e-10
6.33953e-10
6.33954e-10
6.33949e-10
6.3395e-10
6.33949e-10
6.33949e-10
6.3395e-10
6.33949e-10
6.33954e-10
6.33953e-10
6.3396e-10
6.33959e-10
6.33971e-10
6.3397e-10
6.33989e-10
6.33993e-10
6.34025e-10
6.34039e-10
6.34092e-10
6.34121e-10
6.34208e-10
6.34251e-10
6.34368e-10
6.34385e-10
6.34447e-10
6.34205e-10
6.3372e-10
6.32576e-10
6.30398e-10
6.28129e-10
6.19675e-10
6.21905e-10
6.24001e-10
6.25097e-10
6.25556e-10
6.25784e-10
6.25714e-10
6.2569e-10
6.2557e-10
6.25523e-10
6.25434e-10
6.25403e-10
6.25348e-10
6.25334e-10
6.25302e-10
6.25297e-10
6.25277e-10
6.25278e-10
6.25266e-10
6.25267e-10
6.2526e-10
6.25261e-10
6.25256e-10
6.25257e-10
6.25256e-10
6.25256e-10
6.25257e-10
6.25256e-10
6.25261e-10
6.2526e-10
6.25267e-10
6.25266e-10
6.25278e-10
6.25277e-10
6.25297e-10
6.25302e-10
6.25335e-10
6.25349e-10
6.25404e-10
6.25434e-10
6.25524e-10
6.25571e-10
6.25691e-10
6.25715e-10
6.25785e-10
6.25558e-10
6.251e-10
6.24004e-10
6.21909e-10
6.19679e-10
6.11344e-10
6.13536e-10
6.15549e-10
6.16598e-10
6.1703e-10
6.17241e-10
6.17164e-10
6.17133e-10
6.1701e-10
6.16958e-10
6.16867e-10
6.16834e-10
6.16778e-10
6.16763e-10
6.16729e-10
6.16724e-10
6.16704e-10
6.16705e-10
6.16693e-10
6.16694e-10
6.16686e-10
6.16687e-10
6.16682e-10
6.16683e-10
6.16682e-10
6.16682e-10
6.16683e-10
6.16682e-10
6.16687e-10
6.16686e-10
6.16693e-10
6.16693e-10
6.16704e-10
6.16704e-10
6.16724e-10
6.1673e-10
6.16763e-10
6.16778e-10
6.16834e-10
6.16867e-10
6.16959e-10
6.17011e-10
6.17134e-10
6.17165e-10
6.17243e-10
6.17032e-10
6.16601e-10
6.15552e-10
6.13541e-10
6.11349e-10
6.0311e-10
6.05263e-10
6.07194e-10
6.08196e-10
6.086e-10
6.08795e-10
6.08709e-10
6.08672e-10
6.08545e-10
6.08489e-10
6.08395e-10
6.0836e-10
6.08303e-10
6.08286e-10
6.08252e-10
6.08246e-10
6.08226e-10
6.08226e-10
6.08214e-10
6.08215e-10
6.08207e-10
6.08208e-10
6.08203e-10
6.08204e-10
6.08203e-10
6.08203e-10
6.08204e-10
6.08203e-10
6.08208e-10
6.08207e-10
6.08215e-10
6.08214e-10
6.08226e-10
6.08226e-10
6.08246e-10
6.08252e-10
6.08286e-10
6.08303e-10
6.0836e-10
6.08396e-10
6.0849e-10
6.08546e-10
6.08673e-10
6.0871e-10
6.08797e-10
6.08602e-10
6.08199e-10
6.07197e-10
6.05269e-10
6.03115e-10
5.94953e-10
5.97065e-10
5.98914e-10
5.9987e-10
6.00246e-10
6.00424e-10
6.0033e-10
6.00285e-10
6.00154e-10
6.00094e-10
5.99997e-10
5.99959e-10
5.99901e-10
5.99883e-10
5.99849e-10
5.99842e-10
5.99822e-10
5.99822e-10
5.99809e-10
5.9981e-10
5.99802e-10
5.99803e-10
5.99798e-10
5.99799e-10
5.99797e-10
5.99797e-10
5.99799e-10
5.99798e-10
5.99803e-10
5.99802e-10
5.9981e-10
5.99809e-10
5.99821e-10
5.99822e-10
5.99843e-10
5.99849e-10
5.99884e-10
5.99902e-10
5.9996e-10
5.99998e-10
6.00095e-10
6.00155e-10
6.00286e-10
6.00331e-10
6.00426e-10
6.00248e-10
5.99873e-10
5.98917e-10
5.97072e-10
5.94959e-10
5.86855e-10
5.88923e-10
5.9069e-10
5.91602e-10
5.91949e-10
5.9211e-10
5.92006e-10
5.91955e-10
5.9182e-10
5.91755e-10
5.91655e-10
5.91615e-10
5.91555e-10
5.91536e-10
5.91502e-10
5.91494e-10
5.91474e-10
5.91473e-10
5.9146e-10
5.91461e-10
5.91453e-10
5.91453e-10
5.91449e-10
5.91449e-10
5.91448e-10
5.91448e-10
5.91449e-10
5.91449e-10
5.91453e-10
5.91453e-10
5.91461e-10
5.9146e-10
5.91473e-10
5.91474e-10
5.91494e-10
5.91502e-10
5.91537e-10
5.91556e-10
5.91615e-10
5.91656e-10
5.91756e-10
5.91821e-10
5.91956e-10
5.92007e-10
5.92112e-10
5.91951e-10
5.91605e-10
5.90694e-10
5.88931e-10
5.86862e-10
5.78801e-10
5.80821e-10
5.82508e-10
5.83375e-10
5.83693e-10
5.83837e-10
5.83723e-10
5.83664e-10
5.83525e-10
5.83456e-10
5.83353e-10
5.8331e-10
5.83249e-10
5.83229e-10
5.83194e-10
5.83186e-10
5.83165e-10
5.83163e-10
5.83151e-10
5.83151e-10
5.83143e-10
5.83143e-10
5.83139e-10
5.83139e-10
5.83138e-10
5.83138e-10
5.83139e-10
5.83139e-10
5.83143e-10
5.83143e-10
5.83151e-10
5.83151e-10
5.83163e-10
5.83165e-10
5.83186e-10
5.83194e-10
5.83229e-10
5.8325e-10
5.8331e-10
5.83353e-10
5.83457e-10
5.83526e-10
5.83665e-10
5.83724e-10
5.83838e-10
5.83695e-10
5.83378e-10
5.82511e-10
5.80829e-10
5.78808e-10
5.70776e-10
5.72743e-10
5.74352e-10
5.75175e-10
5.75464e-10
5.7559e-10
5.75466e-10
5.75399e-10
5.75256e-10
5.75182e-10
5.75076e-10
5.7503e-10
5.74968e-10
5.74947e-10
5.74911e-10
5.74902e-10
5.74881e-10
5.74879e-10
5.74867e-10
5.74867e-10
5.74859e-10
5.74859e-10
5.74854e-10
5.74855e-10
5.74853e-10
5.74853e-10
5.74855e-10
5.74854e-10
5.74859e-10
5.74859e-10
5.74866e-10
5.74866e-10
5.74879e-10
5.74881e-10
5.74902e-10
5.74911e-10
5.74947e-10
5.74969e-10
5.7503e-10
5.75076e-10
5.75183e-10
5.75257e-10
5.754e-10
5.75467e-10
5.75591e-10
5.75466e-10
5.75178e-10
5.74356e-10
5.72753e-10
5.70784e-10
5.62768e-10
5.64678e-10
5.6621e-10
5.66989e-10
5.67248e-10
5.67355e-10
5.67222e-10
5.67147e-10
5.66999e-10
5.66921e-10
5.66811e-10
5.66763e-10
5.667e-10
5.66677e-10
5.6664e-10
5.66631e-10
5.66609e-10
5.66607e-10
5.66595e-10
5.66594e-10
5.66586e-10
5.66586e-10
5.66582e-10
5.66582e-10
5.66581e-10
5.66581e-10
5.66582e-10
5.66582e-10
5.66586e-10
5.66586e-10
5.66594e-10
5.66594e-10
5.66607e-10
5.66609e-10
5.66631e-10
5.6664e-10
5.66677e-10
5.667e-10
5.66763e-10
5.66811e-10
5.66922e-10
5.67e-10
5.67148e-10
5.67223e-10
5.67357e-10
5.6725e-10
5.66992e-10
5.66213e-10
5.6469e-10
5.62776e-10
5.54763e-10
5.56614e-10
5.5807e-10
5.58806e-10
5.59034e-10
5.59123e-10
5.58979e-10
5.58896e-10
5.58744e-10
5.58661e-10
5.58547e-10
5.58496e-10
5.58431e-10
5.58408e-10
5.5837e-10
5.5836e-10
5.58338e-10
5.58336e-10
5.58323e-10
5.58323e-10
5.58314e-10
5.58314e-10
5.5831e-10
5.5831e-10
5.58309e-10
5.58309e-10
5.5831e-10
5.5831e-10
5.58314e-10
5.58314e-10
5.58322e-10
5.58323e-10
5.58336e-10
5.58338e-10
5.5836e-10
5.5837e-10
5.58408e-10
5.58432e-10
5.58496e-10
5.58547e-10
5.58661e-10
5.58744e-10
5.58897e-10
5.5898e-10
5.59124e-10
5.59036e-10
5.5881e-10
5.58073e-10
5.56627e-10
5.54772e-10
5.46752e-10
5.48541e-10
5.4992e-10
5.50615e-10
5.5081e-10
5.50881e-10
5.50726e-10
5.50636e-10
5.50478e-10
5.5039e-10
5.50272e-10
5.50219e-10
5.50153e-10
5.50128e-10
5.5009e-10
5.5008e-10
5.50057e-10
5.50054e-10
5.50041e-10
5.50041e-10
5.50032e-10
5.50032e-10
5.50028e-10
5.50028e-10
5.50027e-10
5.50027e-10
5.50028e-10
5.50028e-10
5.50032e-10
5.50032e-10
5.5004e-10
5.50041e-10
5.50054e-10
5.50057e-10
5.50079e-10
5.5009e-10
5.50128e-10
5.50153e-10
5.50219e-10
5.50273e-10
5.50391e-10
5.50479e-10
5.50636e-10
5.50727e-10
5.50882e-10
5.50812e-10
5.50619e-10
5.49923e-10
5.48556e-10
5.46762e-10
5.38723e-10
5.40449e-10
5.41751e-10
5.42405e-10
5.42568e-10
5.4262e-10
5.42454e-10
5.42355e-10
5.42193e-10
5.421e-10
5.41977e-10
5.41921e-10
5.41854e-10
5.41828e-10
5.41789e-10
5.41779e-10
5.41756e-10
5.41753e-10
5.41739e-10
5.41738e-10
5.4173e-10
5.4173e-10
5.41725e-10
5.41726e-10
5.41724e-10
5.41724e-10
5.41726e-10
5.41725e-10
5.4173e-10
5.4173e-10
5.41738e-10
5.41739e-10
5.41752e-10
5.41755e-10
5.41778e-10
5.41789e-10
5.41828e-10
5.41855e-10
5.41922e-10
5.41978e-10
5.421e-10
5.42193e-10
5.42356e-10
5.42455e-10
5.42621e-10
5.4257e-10
5.42409e-10
5.41754e-10
5.40466e-10
5.38733e-10
5.30666e-10
5.32329e-10
5.33554e-10
5.34167e-10
5.34297e-10
5.3433e-10
5.34153e-10
5.34045e-10
5.33878e-10
5.3378e-10
5.33653e-10
5.33595e-10
5.33526e-10
5.33499e-10
5.33459e-10
5.33448e-10
5.33425e-10
5.33421e-10
5.33408e-10
5.33407e-10
5.33398e-10
5.33398e-10
5.33393e-10
5.33394e-10
5.33392e-10
5.33392e-10
5.33394e-10
5.33393e-10
5.33398e-10
5.33398e-10
5.33406e-10
5.33407e-10
5.33421e-10
5.33424e-10
5.33448e-10
5.33459e-10
5.33499e-10
5.33526e-10
5.33595e-10
5.33654e-10
5.33781e-10
5.33879e-10
5.34046e-10
5.34154e-10
5.34331e-10
5.34299e-10
5.34171e-10
5.33556e-10
5.32348e-10
5.30678e-10
5.22573e-10
5.24173e-10
5.25319e-10
5.25892e-10
5.25989e-10
5.26003e-10
5.25814e-10
5.25698e-10
5.25526e-10
5.25423e-10
5.25291e-10
5.2523e-10
5.2516e-10
5.25131e-10
5.25091e-10
5.25079e-10
5.25056e-10
5.25052e-10
5.25038e-10
5.25037e-10
5.25028e-10
5.25028e-10
5.25023e-10
5.25023e-10
5.25022e-10
5.25022e-10
5.25023e-10
5.25023e-10
5.25028e-10
5.25028e-10
5.25036e-10
5.25037e-10
5.25051e-10
5.25055e-10
5.25079e-10
5.25091e-10
5.25131e-10
5.2516e-10
5.2523e-10
5.25291e-10
5.25423e-10
5.25526e-10
5.25699e-10
5.25815e-10
5.26004e-10
5.25991e-10
5.25896e-10
5.25322e-10
5.24193e-10
5.22585e-10
5.14435e-10
5.1597e-10
5.17041e-10
5.17572e-10
5.17636e-10
5.17629e-10
5.17429e-10
5.17304e-10
5.17127e-10
5.17019e-10
5.16882e-10
5.16818e-10
5.16747e-10
5.16717e-10
5.16676e-10
5.16664e-10
5.1664e-10
5.16636e-10
5.16622e-10
5.1662e-10
5.16612e-10
5.16611e-10
5.16607e-10
5.16607e-10
5.16605e-10
5.16605e-10
5.16607e-10
5.16607e-10
5.16611e-10
5.16611e-10
5.1662e-10
5.16621e-10
5.16635e-10
5.16639e-10
5.16664e-10
5.16676e-10
5.16717e-10
5.16747e-10
5.16818e-10
5.16882e-10
5.17019e-10
5.17128e-10
5.17305e-10
5.1743e-10
5.1763e-10
5.17637e-10
5.17576e-10
5.17044e-10
5.15991e-10
5.14447e-10
5.06243e-10
5.07716e-10
5.08708e-10
5.09198e-10
5.09228e-10
5.09202e-10
5.0899e-10
5.08857e-10
5.08674e-10
5.08561e-10
5.08419e-10
5.08352e-10
5.08279e-10
5.08249e-10
5.08207e-10
5.08194e-10
5.0817e-10
5.08165e-10
5.08151e-10
5.08149e-10
5.08141e-10
5.0814e-10
5.08135e-10
5.08136e-10
5.08134e-10
5.08134e-10
5.08136e-10
5.08135e-10
5.0814e-10
5.0814e-10
5.08149e-10
5.0815e-10
5.08165e-10
5.08169e-10
5.08194e-10
5.08207e-10
5.08249e-10
5.08279e-10
5.08352e-10
5.08419e-10
5.08561e-10
5.08675e-10
5.08857e-10
5.08991e-10
5.09203e-10
5.0923e-10
5.09202e-10
5.08712e-10
5.07736e-10
5.06255e-10
4.97989e-10
4.99401e-10
5.00313e-10
5.00763e-10
5.0076e-10
5.00714e-10
5.0049e-10
5.00347e-10
5.0016e-10
5.00041e-10
4.99893e-10
4.99824e-10
4.9975e-10
4.99718e-10
4.99676e-10
4.99662e-10
4.99637e-10
4.99633e-10
4.99618e-10
4.99617e-10
4.99608e-10
4.99607e-10
4.99602e-10
4.99602e-10
4.99601e-10
4.99601e-10
4.99602e-10
4.99602e-10
4.99607e-10
4.99607e-10
4.99616e-10
4.99618e-10
4.99632e-10
4.99637e-10
4.99662e-10
4.99676e-10
4.99718e-10
4.9975e-10
4.99824e-10
4.99893e-10
5.00042e-10
5.0016e-10
5.00348e-10
5.0049e-10
5.00715e-10
5.00762e-10
5.00767e-10
5.00319e-10
4.99422e-10
4.98002e-10
4.89667e-10
4.91019e-10
4.9185e-10
4.92259e-10
4.92223e-10
4.92156e-10
4.9192e-10
4.91769e-10
4.91576e-10
4.91453e-10
4.91298e-10
4.91226e-10
4.91151e-10
4.91118e-10
4.91075e-10
4.91061e-10
4.91036e-10
4.91031e-10
4.91016e-10
4.91014e-10
4.91005e-10
4.91005e-10
4.91e-10
4.91e-10
4.90998e-10
4.90998e-10
4.91e-10
4.91e-10
4.91005e-10
4.91005e-10
4.91014e-10
4.91015e-10
4.9103e-10
4.91035e-10
4.91061e-10
4.91075e-10
4.91118e-10
4.91151e-10
4.91226e-10
4.91298e-10
4.91453e-10
4.91577e-10
4.91769e-10
4.91921e-10
4.92157e-10
4.92225e-10
4.92264e-10
4.91856e-10
4.91039e-10
4.8968e-10
4.81269e-10
4.82561e-10
4.8331e-10
4.83679e-10
4.8361e-10
4.83522e-10
4.83274e-10
4.83114e-10
4.82917e-10
4.82788e-10
4.82626e-10
4.82552e-10
4.82476e-10
4.82442e-10
4.82398e-10
4.82383e-10
4.82358e-10
4.82352e-10
4.82337e-10
4.82336e-10
4.82326e-10
4.82326e-10
4.82321e-10
4.82321e-10
4.82319e-10
4.82319e-10
4.82321e-10
4.82321e-10
4.82326e-10
4.82326e-10
4.82335e-10
4.82337e-10
4.82352e-10
4.82357e-10
4.82383e-10
4.82398e-10
4.82442e-10
4.82475e-10
4.82552e-10
4.82626e-10
4.82788e-10
4.82917e-10
4.83114e-10
4.83275e-10
4.83523e-10
4.83611e-10
4.83684e-10
4.83316e-10
4.8258e-10
4.81281e-10
4.72788e-10
4.74019e-10
4.74686e-10
4.75016e-10
4.74913e-10
4.74805e-10
4.74545e-10
4.74376e-10
4.74174e-10
4.7404e-10
4.73871e-10
4.73794e-10
4.73717e-10
4.73682e-10
4.73637e-10
4.73622e-10
4.73596e-10
4.73591e-10
4.73575e-10
4.73573e-10
4.73564e-10
4.73564e-10
4.73559e-10
4.73559e-10
4.73557e-10
4.73557e-10
4.73558e-10
4.73558e-10
4.73563e-10
4.73564e-10
4.73573e-10
4.73575e-10
4.7359e-10
4.73596e-10
4.73622e-10
4.73637e-10
4.73681e-10
4.73716e-10
4.73794e-10
4.73871e-10
4.7404e-10
4.74174e-10
4.74376e-10
4.74546e-10
4.74806e-10
4.74915e-10
4.7502e-10
4.74693e-10
4.74038e-10
4.728e-10
4.64511e-10
4.65692e-10
4.66277e-10
4.66572e-10
4.66436e-10
4.66308e-10
4.66036e-10
4.65858e-10
4.65651e-10
4.65513e-10
4.65335e-10
4.65256e-10
4.65177e-10
4.65141e-10
4.65096e-10
4.65081e-10
4.65054e-10
4.65048e-10
4.65033e-10
4.65031e-10
4.65022e-10
4.65021e-10
4.65016e-10
4.65016e-10
4.65014e-10
4.65014e-10
4.65016e-10
4.65016e-10
4.65021e-10
4.65021e-10
4.6503e-10
4.65032e-10
4.65048e-10
4.65054e-10
4.6508e-10
4.65096e-10
4.65141e-10
4.65177e-10
4.65256e-10
4.65335e-10
4.65513e-10
4.65652e-10
4.65858e-10
4.66036e-10
4.66309e-10
4.66437e-10
4.66576e-10
4.66285e-10
4.6571e-10
4.64523e-10
4.56143e-10
4.5729e-10
4.57759e-10
4.57995e-10
4.57794e-10
4.57628e-10
4.57326e-10
4.5713e-10
4.5691e-10
4.56761e-10
4.56567e-10
4.56483e-10
4.56401e-10
4.56363e-10
4.56316e-10
4.56299e-10
4.56272e-10
4.56265e-10
4.56249e-10
4.56247e-10
4.56237e-10
4.56236e-10
4.56231e-10
4.56231e-10
4.56229e-10
4.56229e-10
4.56231e-10
4.56231e-10
4.56236e-10
4.56237e-10
4.56246e-10
4.56248e-10
4.56265e-10
4.56271e-10
4.56299e-10
4.56316e-10
4.56363e-10
4.56401e-10
4.56483e-10
4.56567e-10
4.56762e-10
4.5691e-10
4.5713e-10
4.57327e-10
4.57629e-10
4.57795e-10
4.58e-10
4.57769e-10
4.57307e-10
4.56155e-10
4.47425e-10
4.48518e-10
4.48894e-10
4.49087e-10
4.48851e-10
4.48664e-10
4.48349e-10
4.48143e-10
4.47918e-10
4.47765e-10
4.47559e-10
4.47474e-10
4.4739e-10
4.47352e-10
4.47304e-10
4.47286e-10
4.47259e-10
4.47252e-10
4.47235e-10
4.47233e-10
4.47223e-10
4.47223e-10
4.47217e-10
4.47217e-10
4.47215e-10
4.47215e-10
4.47217e-10
4.47217e-10
4.47222e-10
4.47223e-10
4.47233e-10
4.47235e-10
4.47251e-10
4.47258e-10
4.47286e-10
4.47303e-10
4.47351e-10
4.4739e-10
4.47474e-10
4.47559e-10
4.47766e-10
4.47919e-10
4.48143e-10
4.48349e-10
4.48664e-10
4.48852e-10
4.49092e-10
4.48905e-10
4.48535e-10
4.47437e-10
4.38599e-10
4.39633e-10
4.39926e-10
4.40077e-10
4.39806e-10
4.39597e-10
4.3927e-10
4.39054e-10
4.38825e-10
4.38668e-10
4.38449e-10
4.38361e-10
4.38277e-10
4.38238e-10
4.38189e-10
4.38171e-10
4.38143e-10
4.38136e-10
4.38119e-10
4.38117e-10
4.38107e-10
4.38106e-10
4.38101e-10
4.38101e-10
4.38099e-10
4.38099e-10
4.38101e-10
4.38101e-10
4.38106e-10
4.38107e-10
4.38116e-10
4.38119e-10
4.38135e-10
4.38142e-10
4.38171e-10
4.38189e-10
4.38237e-10
4.38277e-10
4.38361e-10
4.38449e-10
4.38668e-10
4.38826e-10
4.39055e-10
4.3927e-10
4.39598e-10
4.39807e-10
4.40081e-10
4.39936e-10
4.39648e-10
4.38611e-10
4.29667e-10
4.30639e-10
4.30851e-10
4.3096e-10
4.30654e-10
4.30424e-10
4.30084e-10
4.29859e-10
4.29626e-10
4.29464e-10
4.29231e-10
4.29141e-10
4.29056e-10
4.29016e-10
4.28967e-10
4.28949e-10
4.2892e-10
4.28913e-10
4.28896e-10
4.28893e-10
4.28884e-10
4.28883e-10
4.28877e-10
4.28877e-10
4.28875e-10
4.28875e-10
4.28877e-10
4.28877e-10
4.28882e-10
4.28883e-10
4.28893e-10
4.28896e-10
4.28912e-10
4.28919e-10
4.28948e-10
4.28967e-10
4.29015e-10
4.29056e-10
4.29141e-10
4.29231e-10
4.29465e-10
4.29626e-10
4.29859e-10
4.30084e-10
4.30424e-10
4.30656e-10
4.30964e-10
4.30862e-10
4.30652e-10
4.29678e-10
4.20623e-10
4.21532e-10
4.21664e-10
4.2173e-10
4.2139e-10
4.21138e-10
4.20786e-10
4.20551e-10
4.20315e-10
4.2015e-10
4.19899e-10
4.19809e-10
4.19723e-10
4.19682e-10
4.19632e-10
4.19614e-10
4.19585e-10
4.19577e-10
4.1956e-10
4.19558e-10
4.19548e-10
4.19547e-10
4.19541e-10
4.19541e-10
4.19539e-10
4.19539e-10
4.19541e-10
4.19541e-10
4.19546e-10
4.19547e-10
4.19557e-10
4.1956e-10
4.19577e-10
4.19584e-10
4.19613e-10
4.19632e-10
4.19681e-10
4.19723e-10
4.19809e-10
4.19899e-10
4.20151e-10
4.20315e-10
4.20552e-10
4.20786e-10
4.21138e-10
4.21392e-10
4.21734e-10
4.21675e-10
4.21544e-10
4.20633e-10
4.11768e-10
4.12625e-10
4.12678e-10
4.12704e-10
4.12329e-10
4.12057e-10
4.11692e-10
4.11448e-10
4.11208e-10
4.11042e-10
4.1077e-10
4.10679e-10
4.10593e-10
4.1055e-10
4.10501e-10
4.10481e-10
4.10452e-10
4.10445e-10
4.10428e-10
4.10425e-10
4.10415e-10
4.10414e-10
4.10408e-10
4.10408e-10
4.10406e-10
4.10406e-10
4.10408e-10
4.10408e-10
4.10413e-10
4.10414e-10
4.10424e-10
4.10427e-10
4.10444e-10
4.10452e-10
4.10481e-10
4.105e-10
4.1055e-10
4.10592e-10
4.10679e-10
4.1077e-10
4.11042e-10
4.11208e-10
4.11448e-10
4.11692e-10
4.12057e-10
4.12331e-10
4.12708e-10
4.12689e-10
4.12635e-10
4.11778e-10
4.02817e-10
4.0362e-10
4.03595e-10
4.03581e-10
4.03172e-10
4.02879e-10
4.02501e-10
4.02249e-10
4.01994e-10
4.0182e-10
4.01515e-10
4.0142e-10
4.01329e-10
4.01285e-10
4.01232e-10
4.01212e-10
4.01181e-10
4.01173e-10
4.01155e-10
4.01152e-10
4.01141e-10
4.0114e-10
4.01134e-10
4.01134e-10
4.01132e-10
4.01132e-10
4.01134e-10
4.01134e-10
4.0114e-10
4.01141e-10
4.01151e-10
4.01154e-10
4.01172e-10
4.01181e-10
4.01211e-10
4.01232e-10
4.01285e-10
4.01329e-10
4.0142e-10
4.01515e-10
4.0182e-10
4.01995e-10
4.02249e-10
4.02502e-10
4.02879e-10
4.03174e-10
4.03584e-10
4.03607e-10
4.03629e-10
4.02826e-10
3.93498e-10
3.94249e-10
3.94142e-10
3.94079e-10
3.93625e-10
3.93305e-10
3.92909e-10
3.92644e-10
3.92383e-10
3.92206e-10
3.9187e-10
3.91774e-10
3.91682e-10
3.91636e-10
3.91582e-10
3.91561e-10
3.9153e-10
3.91521e-10
3.91503e-10
3.91499e-10
3.91488e-10
3.91487e-10
3.91481e-10
3.91481e-10
3.91479e-10
3.91479e-10
3.91481e-10
3.91481e-10
3.91487e-10
3.91488e-10
3.91499e-10
3.91502e-10
3.9152e-10
3.91529e-10
3.9156e-10
3.91582e-10
3.91636e-10
3.91681e-10
3.91774e-10
3.9187e-10
3.92207e-10
3.92383e-10
3.92644e-10
3.9291e-10
3.93306e-10
3.93627e-10
3.94082e-10
3.94153e-10
3.94256e-10
3.93507e-10
3.84019e-10
3.84703e-10
3.84523e-10
3.84415e-10
3.83928e-10
3.83588e-10
3.8318e-10
3.82906e-10
3.82642e-10
3.82468e-10
3.82421e-10
3.82327e-10
3.82233e-10
3.82187e-10
3.82133e-10
3.82111e-10
3.8208e-10
3.82071e-10
3.82052e-10
3.82049e-10
3.82038e-10
3.82037e-10
3.82031e-10
3.82031e-10
3.82029e-10
3.82029e-10
3.82031e-10
3.82031e-10
3.82036e-10
3.82037e-10
3.82048e-10
3.82052e-10
3.8207e-10
3.82079e-10
3.82111e-10
3.82132e-10
3.82187e-10
3.82233e-10
3.82327e-10
3.82421e-10
3.82468e-10
3.82642e-10
3.82906e-10
3.83181e-10
3.83588e-10
3.8393e-10
3.84417e-10
3.84534e-10
3.84709e-10
3.84026e-10
3.74731e-10
3.75358e-10
3.75105e-10
3.74956e-10
3.74434e-10
3.74076e-10
3.73656e-10
3.73373e-10
3.73106e-10
3.72934e-10
3.72872e-10
3.72779e-10
3.72685e-10
3.72638e-10
3.72583e-10
3.72562e-10
3.7253e-10
3.72521e-10
3.72502e-10
3.72499e-10
3.72488e-10
3.72486e-10
3.7248e-10
3.7248e-10
3.72478e-10
3.72478e-10
3.7248e-10
3.7248e-10
3.72486e-10
3.72487e-10
3.72498e-10
3.72502e-10
3.7252e-10
3.72529e-10
3.72561e-10
3.72583e-10
3.72638e-10
3.72685e-10
3.72779e-10
3.72873e-10
3.72935e-10
3.73107e-10
3.73374e-10
3.73657e-10
3.74076e-10
3.74437e-10
3.74958e-10
3.75115e-10
3.75363e-10
3.74738e-10
3.65299e-10
3.65895e-10
3.65561e-10
3.65353e-10
3.64763e-10
3.6437e-10
3.63921e-10
3.63619e-10
3.63341e-10
3.63163e-10
3.63084e-10
3.62989e-10
3.62892e-10
3.62843e-10
3.62786e-10
3.62764e-10
3.62731e-10
3.62722e-10
3.62702e-10
3.62699e-10
3.62687e-10
3.62686e-10
3.6268e-10
3.6268e-10
3.62678e-10
3.62678e-10
3.6268e-10
3.6268e-10
3.62686e-10
3.62687e-10
3.62698e-10
3.62702e-10
3.62721e-10
3.62731e-10
3.62764e-10
3.62787e-10
3.62843e-10
3.62892e-10
3.62989e-10
3.63084e-10
3.63165e-10
3.63342e-10
3.6362e-10
3.63922e-10
3.64371e-10
3.64766e-10
3.65354e-10
3.65564e-10
3.65904e-10
3.65304e-10
3.55804e-10
3.56344e-10
3.55939e-10
3.5569e-10
3.55064e-10
3.54653e-10
3.54193e-10
3.53882e-10
3.53601e-10
3.53423e-10
3.53331e-10
3.53236e-10
3.53139e-10
3.5309e-10
3.53033e-10
3.5301e-10
3.52977e-10
3.52967e-10
3.52948e-10
3.52944e-10
3.52933e-10
3.52931e-10
3.52925e-10
3.52925e-10
3.52923e-10
3.52923e-10
3.52925e-10
3.52925e-10
3.52931e-10
3.52932e-10
3.52944e-10
3.52948e-10
3.52967e-10
3.52977e-10
3.5301e-10
3.53033e-10
3.5309e-10
3.5314e-10
3.53237e-10
3.53332e-10
3.53425e-10
3.53602e-10
3.53883e-10
3.54194e-10
3.54654e-10
3.55068e-10
3.55691e-10
3.55942e-10
3.56351e-10
3.55809e-10
3.46211e-10
3.46693e-10
3.4622e-10
3.45932e-10
3.45269e-10
3.44841e-10
3.44369e-10
3.4405e-10
3.43767e-10
3.43587e-10
3.43485e-10
3.4339e-10
3.43293e-10
3.43243e-10
3.43186e-10
3.43163e-10
3.43129e-10
3.43119e-10
3.431e-10
3.43096e-10
3.43085e-10
3.43083e-10
3.43077e-10
3.43077e-10
3.43075e-10
3.43075e-10
3.43077e-10
3.43077e-10
3.43083e-10
3.43084e-10
3.43096e-10
3.431e-10
3.4312e-10
3.43129e-10
3.43163e-10
3.43186e-10
3.43244e-10
3.43293e-10
3.43391e-10
3.43486e-10
3.4359e-10
3.43768e-10
3.44052e-10
3.4437e-10
3.44843e-10
3.45273e-10
3.45932e-10
3.46222e-10
3.46698e-10
3.46214e-10
3.33163e-10
3.33159e-10
3.33148e-10
3.33147e-10
3.3314e-10
3.3314e-10
3.33138e-10
3.33138e-10
3.3314e-10
3.3314e-10
3.33147e-10
3.33148e-10
3.33159e-10
3.33163e-10
3.33183e-10
3.33193e-10
3.33227e-10
3.3325e-10
3.33308e-10
3.33358e-10
3.33456e-10
3.33551e-10
3.33664e-10
3.33844e-10
3.34129e-10
3.34456e-10
3.34939e-10
3.35387e-10
3.36077e-10
3.36408e-10
3.3695e-10
3.36524e-10
3.23126e-10
3.23128e-10
3.23139e-10
3.23143e-10
3.23163e-10
3.23173e-10
3.23207e-10
3.23231e-10
3.23289e-10
3.23339e-10
3.23437e-10
3.23532e-10
3.23653e-10
3.23835e-10
3.24122e-10
3.24456e-10
3.2495e-10
3.25417e-10
3.26134e-10
3.26505e-10
3.27112e-10
3.26744e-10
3.13565e-10
3.13748e-10
3.14036e-10
3.14377e-10
3.14882e-10
3.15367e-10
3.16107e-10
3.16519e-10
3.17189e-10
3.16879e-10
)
;

boundaryField
{
    fuel
    {
        type            fixedValue;
        value           nonuniform 0();
    }
    wall
    {
        type            zeroGradient;
    }
    outlet
    {
        type            zeroGradient;
    }
    frontAndBack
    {
        type            empty;
    }
    procBoundary0to1
    {
        type            processor;
        value           nonuniform List<scalar> 
50
(
6.83296e-10
6.85874e-10
6.88562e-10
6.9001e-10
6.90639e-10
6.90969e-10
6.90939e-10
6.90962e-10
6.90856e-10
6.90839e-10
6.9076e-10
6.90748e-10
6.90698e-10
6.90693e-10
6.90662e-10
6.90663e-10
6.90644e-10
6.90648e-10
6.90636e-10
6.90639e-10
6.90632e-10
6.90633e-10
6.90629e-10
6.9063e-10
6.90629e-10
6.90629e-10
6.9063e-10
6.90629e-10
6.90633e-10
6.90632e-10
6.90639e-10
6.90636e-10
6.90648e-10
6.90644e-10
6.90663e-10
6.90662e-10
6.90693e-10
6.90698e-10
6.90748e-10
6.90761e-10
6.90839e-10
6.90857e-10
6.90963e-10
6.9094e-10
6.9097e-10
6.9064e-10
6.90012e-10
6.88564e-10
6.85876e-10
6.83299e-10
)
;
    }
    procBoundary0to2
    {
        type            processor;
        value           nonuniform List<scalar> 
53
(
3.36522e-10
3.36947e-10
3.36407e-10
3.36078e-10
3.35383e-10
3.34938e-10
3.34454e-10
3.34128e-10
3.33842e-10
3.33662e-10
3.3355e-10
3.33455e-10
3.33357e-10
3.33307e-10
3.3325e-10
3.33226e-10
3.33193e-10
3.33183e-10
3.33183e-10
3.23143e-10
3.2314e-10
3.23128e-10
3.23127e-10
3.23121e-10
3.2312e-10
3.23118e-10
3.23118e-10
3.2312e-10
3.2312e-10
3.2312e-10
3.1303e-10
3.13032e-10
3.13044e-10
3.13047e-10
3.13067e-10
3.13077e-10
3.13111e-10
3.13135e-10
3.13193e-10
3.13244e-10
3.13342e-10
3.13437e-10
3.13437e-10
3.03408e-10
3.03591e-10
3.03881e-10
3.04228e-10
3.04743e-10
3.05247e-10
3.06005e-10
3.06458e-10
3.07188e-10
3.06936e-10
)
;
    }
}


// ************************************************************************* //
