/*--------------------------------*- C++ -*----------------------------------*\
| =========                 |                                                 |
| \\      /  F ield         | OpenFOAM: The Open Source CFD Toolbox           |
|  \\    /   O peration     | Version:  dev                                   |
|   \\  /    A nd           | Web:      www.OpenFOAM.org                      |
|    \\/     M anipulation  |                                                 |
\*---------------------------------------------------------------------------*/
FoamFile
{
    version     2.0;
    format      ascii;
    class       volScalarField;
    location    "0.185";
    object      A1C2H3*;
}
// * * * * * * * * * * * * * * * * * * * * * * * * * * * * * * * * * * * * * //

dimensions      [0 0 0 0 0 0 0];

internalField   nonuniform List<scalar> 
250
(
3.50574e-10
1.59104e-08
1.28078e-08
1.23899e-08
1.23341e-08
1.23247e-08
1.23226e-08
1.23242e-08
1.23199e-08
4.08203e-10
4.5387e-09
3.53712e-09
3.39999e-09
3.38162e-09
3.3779e-09
3.37676e-09
3.37743e-09
3.37636e-09
2.44466e-10
1.67606e-09
1.18858e-09
1.12826e-09
1.12038e-09
1.11868e-09
1.11796e-09
1.11832e-09
1.11808e-09
1.53621e-10
8.22012e-10
4.88421e-10
4.54881e-10
4.50629e-10
4.49413e-10
4.48902e-10
4.49134e-10
4.49135e-10
3.06052e-10
5.1988e-10
2.4863e-10
2.2637e-10
2.23225e-10
2.22015e-10
2.21665e-10
2.2181e-10
2.21876e-10
2.4602e-09
3.82093e-10
1.49877e-10
1.31151e-10
1.29014e-10
1.28935e-10
1.28806e-10
1.28851e-10
1.28862e-10
1.68294e-08
3.05354e-10
1.01838e-10
8.60924e-11
8.39456e-11
8.37846e-11
8.3692e-11
8.37394e-11
8.37339e-11
1.30097e-08
2.38538e-10
7.36066e-11
6.14739e-11
5.94555e-11
5.91108e-11
5.88539e-11
5.90617e-11
5.9058e-11
8.82702e-09
1.8967e-10
5.52418e-11
4.53648e-11
4.42478e-11
4.39755e-11
4.40825e-11
4.39262e-11
4.39375e-11
6.51529e-09
1.56305e-10
4.49353e-11
3.47701e-11
3.37447e-11
3.34594e-11
3.34106e-11
3.34088e-11
3.34218e-11
4.97175e-09
1.32762e-10
3.70082e-11
2.85092e-11
2.75901e-11
2.73068e-11
2.71831e-11
2.72573e-11
2.72769e-11
2.72557e-11
3.84495e-09
1.14957e-10
3.12837e-11
2.37232e-11
2.27374e-11
2.24724e-11
2.22436e-11
2.24249e-11
2.24503e-11
2.24502e-11
2.99629e-09
9.98446e-11
2.69734e-11
2.01578e-11
1.9234e-11
1.89999e-11
1.9123e-11
1.89507e-11
1.89798e-11
1.89905e-11
2.34107e-09
8.73464e-11
2.41019e-11
1.74868e-11
1.66149e-11
1.64057e-11
1.64868e-11
1.63534e-11
1.6387e-11
1.63982e-11
1.82061e-09
7.77461e-11
2.15533e-11
1.54147e-11
1.45905e-11
1.43999e-11
1.44539e-11
1.43418e-11
1.43815e-11
1.43882e-11
1.41085e-09
6.90335e-11
1.93783e-11
1.37578e-11
1.29792e-11
1.28028e-11
1.28381e-11
1.27347e-11
1.27841e-11
1.27855e-11
1.083e-09
6.16343e-11
1.7513e-11
1.23995e-11
1.16659e-11
1.15007e-11
1.15227e-11
1.14169e-11
1.14815e-11
1.14795e-11
8.22883e-10
5.44962e-11
1.61233e-11
1.12649e-11
1.05759e-11
1.04206e-11
1.04334e-11
1.03117e-11
1.04014e-11
1.03979e-11
6.19709e-10
4.80052e-11
1.48259e-11
1.03021e-11
9.66018e-12
9.51465e-12
9.52192e-12
9.49523e-12
9.49602e-12
9.4922e-12
4.63877e-10
4.27628e-11
1.36154e-11
9.47445e-12
8.88553e-12
8.75025e-12
8.75342e-12
8.71864e-12
8.73234e-12
8.7293e-12
3.46418e-10
3.74893e-11
1.25525e-11
8.84804e-12
8.22853e-12
8.10452e-12
8.10491e-12
8.05799e-12
8.0875e-12
8.08574e-12
2.59219e-10
3.31207e-11
1.16194e-11
8.26211e-12
7.67073e-12
7.56028e-12
7.5593e-12
7.56709e-12
7.54442e-12
7.54399e-12
1.95188e-10
2.92757e-11
1.08051e-11
7.81653e-12
7.26123e-12
7.16325e-12
7.16173e-12
7.16717e-12
7.14872e-12
7.14936e-12
1.48418e-10
2.60871e-11
1.00988e-11
7.43448e-12
6.93233e-12
6.82104e-12
6.81866e-12
6.8223e-12
6.80707e-12
6.80845e-12
1.14218e-10
2.32057e-11
9.48933e-12
7.14786e-12
6.68028e-12
6.57859e-12
6.57562e-12
6.5789e-12
6.5657e-12
6.56816e-12
8.90646e-11
2.06565e-11
9.043e-12
6.93193e-12
6.5016e-12
6.40921e-12
6.40569e-12
6.40923e-12
6.39739e-12
6.40089e-12
)
;

boundaryField
{
    fuel
    {
        type            fixedValue;
        value           uniform 0;
    }
    wall
    {
        type            zeroGradient;
    }
    outlet
    {
        type            zeroGradient;
    }
    frontAndBack
    {
        type            empty;
    }
    procBoundary2to0
    {
        type            processor;
        value           nonuniform List<scalar> 
12
(
6.56372e-12
7.0421e-11
1.8488e-11
8.68555e-12
6.79207e-12
6.39358e-12
6.31019e-12
6.3061e-12
6.31039e-12
6.29938e-12
6.3968e-12
6.30389e-12
)
;
    }
    procBoundary2to3
    {
        type            processor;
        value           nonuniform List<scalar> 
25
(
1.23187e-08
3.37632e-09
1.11799e-09
4.48952e-10
2.21681e-10
1.28786e-10
8.36953e-11
5.90107e-11
4.3877e-11
3.33825e-11
3.33825e-11
2.72789e-11
2.2452e-11
1.89809e-11
1.63874e-11
1.43814e-11
1.27834e-11
1.14803e-11
1.03996e-11
9.49338e-12
8.72922e-12
8.08421e-12
7.54114e-12
7.14578e-12
6.80406e-12
)
;
    }
}


// ************************************************************************* //
