/*--------------------------------*- C++ -*----------------------------------*\
| =========                 |                                                 |
| \\      /  F ield         | OpenFOAM: The Open Source CFD Toolbox           |
|  \\    /   O peration     | Version:  dev                                   |
|   \\  /    A nd           | Web:      www.OpenFOAM.org                      |
|    \\/     M anipulation  |                                                 |
\*---------------------------------------------------------------------------*/
FoamFile
{
    version     2.0;
    format      ascii;
    class       volScalarField;
    location    "0.185";
    object      A2C2HA;
}
// * * * * * * * * * * * * * * * * * * * * * * * * * * * * * * * * * * * * * //

dimensions      [0 0 0 0 0 0 0];

internalField   nonuniform List<scalar> 
250
(
9.85717e-10
5.85915e-08
3.46472e-08
3.25597e-08
3.23447e-08
3.23294e-08
3.23237e-08
3.23328e-08
3.23643e-08
1.8956e-09
5.25755e-08
2.25178e-08
2.03958e-08
2.01886e-08
2.01674e-08
2.01624e-08
2.01658e-08
2.018e-08
2.52314e-09
4.49296e-08
1.39976e-08
1.21312e-08
1.19532e-08
1.19341e-08
1.19314e-08
1.19252e-08
1.19373e-08
2.87021e-09
4.09376e-08
9.5345e-09
7.86193e-09
7.70551e-09
7.68739e-09
7.68579e-09
7.67102e-09
7.687e-09
2.99744e-09
3.86876e-08
7.06432e-09
5.53557e-09
5.39568e-09
5.37894e-09
5.37748e-09
5.34328e-09
5.37743e-09
2.98237e-09
3.67914e-08
5.53848e-09
4.08664e-09
3.93786e-09
3.91678e-09
3.91384e-09
3.93023e-09
3.91383e-09
2.90067e-09
3.45934e-08
4.51574e-09
3.17684e-09
3.03595e-09
3.01554e-09
3.00984e-09
3.01284e-09
3.01223e-09
2.83038e-09
3.18625e-08
3.7789e-09
2.55427e-09
2.41751e-09
2.39734e-09
2.38606e-09
2.38474e-09
2.39328e-09
2.84948e-09
2.8732e-08
3.18142e-09
2.08545e-09
1.97752e-09
1.96101e-09
1.94046e-09
1.9356e-09
1.95398e-09
2.91186e-09
2.53797e-08
2.67357e-09
1.71678e-09
1.61763e-09
1.60212e-09
1.61541e-09
1.61129e-09
1.59205e-09
2.987e-09
2.19906e-08
2.30745e-09
1.47519e-09
1.3827e-09
1.36796e-09
1.37636e-09
1.37342e-09
1.35308e-09
1.35904e-09
3.07225e-09
1.83459e-08
1.99318e-09
1.27418e-09
1.18362e-09
1.16877e-09
1.17336e-09
1.17178e-09
1.16243e-09
1.17362e-09
3.169e-09
1.45565e-08
1.73605e-09
1.11266e-09
1.02907e-09
1.0148e-09
1.01691e-09
1.01587e-09
1.02281e-09
1.01657e-09
3.2842e-09
1.17257e-08
1.51363e-09
9.83975e-10
9.06745e-10
8.93013e-10
8.93723e-10
8.92449e-10
8.98967e-10
8.92151e-10
3.40635e-09
9.3231e-09
1.31954e-09
8.79108e-10
8.07675e-10
7.94443e-10
7.9444e-10
7.92398e-10
7.98385e-10
8.00732e-10
3.51359e-09
7.34214e-09
1.15864e-09
7.91884e-10
7.2572e-10
7.1295e-10
7.12634e-10
7.09457e-10
7.15162e-10
7.15645e-10
3.57744e-09
5.75127e-09
1.0249e-09
7.18018e-10
6.56661e-10
6.44324e-10
6.43913e-10
6.39281e-10
6.45238e-10
6.44633e-10
3.57217e-09
4.50091e-09
9.13299e-10
6.54521e-10
5.97584e-10
5.8567e-10
5.85288e-10
5.78779e-10
5.85687e-10
5.8454e-10
3.48309e-09
3.47099e-09
8.19619e-10
5.99285e-10
5.46463e-10
5.34979e-10
5.34724e-10
5.32463e-10
5.34418e-10
5.32999e-10
3.31491e-09
2.73716e-09
7.40948e-10
5.50793e-10
5.01866e-10
4.90834e-10
4.90693e-10
4.87427e-10
4.89893e-10
4.88366e-10
3.08403e-09
2.15322e-09
6.74472e-10
5.07916e-10
4.6276e-10
4.52213e-10
4.5217e-10
4.47836e-10
4.51033e-10
4.49493e-10
2.8182e-09
1.75576e-09
6.18162e-10
4.69762e-10
4.2837e-10
4.18349e-10
4.18407e-10
4.17033e-10
4.17037e-10
4.15547e-10
2.5462e-09
1.46533e-09
5.70157e-10
4.40202e-10
4.0173e-10
3.92238e-10
3.92331e-10
3.90746e-10
3.90847e-10
3.89444e-10
2.29253e-09
1.25291e-09
5.33733e-10
4.13844e-10
3.77598e-10
3.68496e-10
3.68646e-10
3.66855e-10
3.67098e-10
3.65717e-10
2.0733e-09
1.09724e-09
5.02002e-10
3.92343e-10
3.58685e-10
3.50155e-10
3.5026e-10
3.48543e-10
3.48744e-10
3.47552e-10
1.89562e-09
9.83398e-10
4.77209e-10
3.74917e-10
3.43689e-10
3.35789e-10
3.35805e-10
3.34302e-10
3.34378e-10
3.33448e-10
)
;

boundaryField
{
    fuel
    {
        type            fixedValue;
        value           uniform 0;
    }
    wall
    {
        type            zeroGradient;
    }
    outlet
    {
        type            zeroGradient;
    }
    frontAndBack
    {
        type            empty;
    }
    procBoundary2to0
    {
        type            processor;
        value           nonuniform List<scalar> 
12
(
3.47652e-10
1.76072e-09
8.90688e-10
4.58055e-10
3.61777e-10
3.32805e-10
3.25623e-10
3.25497e-10
3.24359e-10
3.24215e-10
3.33553e-10
3.23638e-10
)
;
    }
    procBoundary2to3
    {
        type            processor;
        value           nonuniform List<scalar> 
25
(
3.23245e-08
2.01628e-08
1.1926e-08
7.67231e-09
5.34401e-09
3.93412e-09
3.01608e-09
2.38775e-09
1.94523e-09
1.59617e-09
1.59617e-09
1.36084e-09
1.15535e-09
1.01253e-09
8.98365e-10
7.95437e-10
7.11573e-10
6.41784e-10
5.826e-10
5.31706e-10
4.8754e-10
4.4901e-10
4.15315e-10
3.89365e-10
3.65762e-10
)
;
    }
}


// ************************************************************************* //
