/*--------------------------------*- C++ -*----------------------------------*\
| =========                 |                                                 |
| \\      /  F ield         | OpenFOAM: The Open Source CFD Toolbox           |
|  \\    /   O peration     | Version:  dev                                   |
|   \\  /    A nd           | Web:      www.OpenFOAM.org                      |
|    \\/     M anipulation  |                                                 |
\*---------------------------------------------------------------------------*/
FoamFile
{
    version     2.0;
    format      ascii;
    class       volScalarField;
    location    "0.185";
    object      A2R5-;
}
// * * * * * * * * * * * * * * * * * * * * * * * * * * * * * * * * * * * * * //

dimensions      [0 0 0 0 0 0 0];

internalField   nonuniform List<scalar> 
250
(
4.17153e-10
3.96345e-08
2.41424e-08
2.23852e-08
2.22208e-08
2.2185e-08
2.21761e-08
2.21807e-08
2.21775e-08
6.66624e-10
5.55523e-08
3.02026e-08
2.73888e-08
2.70858e-08
2.70616e-08
2.70546e-08
2.70317e-08
2.70603e-08
6.77854e-10
5.65871e-08
3.00248e-08
2.68029e-08
2.6467e-08
2.64216e-08
2.64165e-08
2.63947e-08
2.64171e-08
5.3296e-10
5.14773e-08
2.80375e-08
2.47803e-08
2.44238e-08
2.43674e-08
2.43634e-08
2.4328e-08
2.43595e-08
3.63273e-10
4.45546e-08
2.56364e-08
2.25527e-08
2.21873e-08
2.21238e-08
2.21187e-08
2.2049e-08
2.21129e-08
2.32119e-10
3.78455e-08
2.33434e-08
2.04526e-08
2.00432e-08
1.99634e-08
1.99525e-08
1.99605e-08
1.99471e-08
1.46402e-10
3.20768e-08
2.13584e-08
1.87493e-08
1.83263e-08
1.8239e-08
1.82171e-08
1.82011e-08
1.82176e-08
1.00551e-10
2.72945e-08
1.96741e-08
1.73389e-08
1.68957e-08
1.68003e-08
1.6758e-08
1.67327e-08
1.67711e-08
9.4361e-11
2.34681e-08
1.8128e-08
1.60716e-08
1.56781e-08
1.55851e-08
1.55112e-08
1.54757e-08
1.55401e-08
1.05659e-10
2.04664e-08
1.66629e-08
1.4878e-08
1.4476e-08
1.43776e-08
1.44228e-08
1.43893e-08
1.43132e-08
1.4425e-10
1.81383e-08
1.54965e-08
1.39443e-08
1.35317e-08
1.34288e-08
1.34596e-08
1.34294e-08
1.33383e-08
1.33541e-08
2.15058e-10
1.61287e-08
1.43936e-08
1.30099e-08
1.256e-08
1.24481e-08
1.24663e-08
1.24397e-08
1.23996e-08
1.24437e-08
3.25565e-10
1.43411e-08
1.34016e-08
1.21102e-08
1.16505e-08
1.15341e-08
1.15434e-08
1.15154e-08
1.15779e-08
1.1516e-08
4.89784e-10
1.31282e-08
1.24483e-08
1.1262e-08
1.07949e-08
1.06748e-08
1.0679e-08
1.06444e-08
1.071e-08
1.06423e-08
7.12377e-10
1.21462e-08
1.15183e-08
1.04573e-08
9.98612e-09
9.86305e-09
9.86481e-09
9.81915e-09
9.88713e-09
9.89442e-09
9.89645e-10
1.13351e-08
1.06566e-08
9.6916e-09
9.21984e-09
9.09456e-09
9.0957e-09
9.035e-09
9.10744e-09
9.09873e-09
1.31789e-09
1.06493e-08
9.85616e-09
8.96201e-09
8.49348e-09
8.36678e-09
8.36839e-09
8.28868e-09
8.37024e-09
8.3514e-09
1.69924e-09
1.00509e-08
9.11023e-09
8.26655e-09
7.80531e-09
7.67809e-09
7.68098e-09
7.57688e-09
7.67442e-09
7.64966e-09
2.13938e-09
9.46674e-09
8.41179e-09
7.60361e-09
7.15397e-09
7.02726e-09
7.03236e-09
6.98128e-09
7.0187e-09
6.9901e-09
2.64064e-09
8.9618e-09
7.75486e-09
6.9715e-09
6.5381e-09
6.41302e-09
6.42003e-09
6.35427e-09
6.40103e-09
6.37003e-09
3.19148e-09
8.44705e-09
7.13336e-09
6.36807e-09
5.95599e-09
5.83374e-09
5.84244e-09
5.76043e-09
5.81956e-09
5.78706e-09
3.76503e-09
7.99076e-09
6.54222e-09
5.78975e-09
5.40491e-09
5.28665e-09
5.2972e-09
5.2615e-09
5.27146e-09
5.23805e-09
4.3206e-09
7.54531e-09
5.97604e-09
5.30431e-09
4.9417e-09
4.82842e-09
4.83985e-09
4.79911e-09
4.81266e-09
4.77878e-09
4.813e-09
7.10362e-09
5.49023e-09
4.83137e-09
4.4818e-09
4.37091e-09
4.38394e-09
4.33717e-09
4.35578e-09
4.31945e-09
5.20179e-09
6.65989e-09
5.00602e-09
4.40088e-09
4.07593e-09
3.97125e-09
3.98432e-09
3.93574e-09
3.95652e-09
3.92032e-09
5.45786e-09
6.21242e-09
4.56159e-09
3.99684e-09
3.69686e-09
3.59921e-09
3.61202e-09
3.56287e-09
3.58523e-09
3.54945e-09
)
;

boundaryField
{
    fuel
    {
        type            fixedValue;
        value           uniform 0;
    }
    wall
    {
        type            zeroGradient;
    }
    outlet
    {
        type            zeroGradient;
    }
    frontAndBack
    {
        type            empty;
    }
    procBoundary2to0
    {
        type            processor;
        value           nonuniform List<scalar> 
12
(
3.92796e-09
5.56295e-09
5.70059e-09
4.13729e-09
3.61749e-09
3.34218e-09
3.25245e-09
3.26477e-09
3.21604e-09
3.23947e-09
3.55819e-09
3.20433e-09
)
;
    }
    procBoundary2to3
    {
        type            processor;
        value           nonuniform List<scalar> 
25
(
2.21931e-08
2.70594e-08
2.64028e-08
2.43327e-08
2.20523e-08
1.99701e-08
1.82086e-08
1.67385e-08
1.54989e-08
1.43207e-08
1.43207e-08
1.33718e-08
1.23518e-08
1.15017e-08
1.06984e-08
9.85523e-09
9.06795e-09
8.32963e-09
7.63505e-09
6.98107e-09
6.36546e-09
5.78612e-09
5.2401e-09
4.7829e-09
4.32568e-09
)
;
    }
}


// ************************************************************************* //
