/*--------------------------------*- C++ -*----------------------------------*\
| =========                 |                                                 |
| \\      /  F ield         | OpenFOAM: The Open Source CFD Toolbox           |
|  \\    /   O peration     | Version:  dev                                   |
|   \\  /    A nd           | Web:      www.OpenFOAM.org                      |
|    \\/     M anipulation  |                                                 |
\*---------------------------------------------------------------------------*/
FoamFile
{
    version     2.0;
    format      ascii;
    class       volScalarField;
    location    "0.185";
    object      A3C2H;
}
// * * * * * * * * * * * * * * * * * * * * * * * * * * * * * * * * * * * * * //

dimensions      [0 0 0 0 0 0 0];

internalField   nonuniform List<scalar> 
250
(
2.35731e-11
1.57535e-09
8.35008e-10
7.68023e-10
7.61513e-10
7.60769e-10
7.60849e-10
7.60385e-10
7.61152e-10
5.03973e-11
2.39245e-09
9.72855e-10
8.59844e-10
8.49025e-10
8.4774e-10
8.47562e-10
8.47206e-10
8.47831e-10
7.38028e-11
2.80941e-09
9.11258e-10
7.70035e-10
7.56704e-10
7.55114e-10
7.54943e-10
7.54115e-10
7.5499e-10
9.03429e-11
2.96548e-09
8.00391e-10
6.44531e-10
6.29913e-10
6.28112e-10
6.27978e-10
6.26399e-10
6.27871e-10
9.95085e-11
2.93649e-09
6.85772e-10
5.25742e-10
5.10706e-10
5.08824e-10
5.08668e-10
5.05515e-10
5.08542e-10
1.02951e-10
2.78878e-09
5.809e-10
4.20431e-10
4.03606e-10
4.01231e-10
4.0088e-10
4.01789e-10
4.00845e-10
1.03104e-10
2.57097e-09
4.90955e-10
3.3845e-10
3.21733e-10
3.19343e-10
3.18622e-10
3.18575e-10
3.18918e-10
1.03081e-10
2.31129e-09
4.1537e-10
2.7416e-10
2.57595e-10
2.55206e-10
2.53784e-10
2.53449e-10
2.54688e-10
1.06308e-10
2.03839e-09
3.47892e-10
2.21205e-10
2.07927e-10
2.05976e-10
2.03454e-10
2.02794e-10
2.05098e-10
1.08035e-10
1.77073e-09
2.87371e-10
1.77166e-10
1.6502e-10
1.63224e-10
1.64841e-10
1.6432e-10
1.61971e-10
1.06066e-10
1.51983e-09
2.4281e-10
1.47489e-10
1.36268e-10
1.34599e-10
1.35646e-10
1.35304e-10
1.3277e-10
1.33561e-10
1.01567e-10
1.26565e-09
2.04389e-10
1.22479e-10
1.11647e-10
1.10005e-10
1.10587e-10
1.1044e-10
1.09261e-10
1.10708e-10
9.66563e-11
1.01194e-09
1.73178e-10
1.02448e-10
9.26682e-11
9.11404e-11
9.14143e-11
9.13542e-11
9.2161e-11
9.14686e-11
9.40879e-11
8.26598e-10
1.46446e-10
8.67632e-11
7.79635e-11
7.65427e-11
7.66411e-11
7.65737e-11
7.7297e-11
7.65531e-11
9.53748e-11
6.70412e-10
1.23474e-10
7.43437e-11
6.64415e-11
6.51187e-11
6.51265e-11
6.49904e-11
6.56176e-11
6.59394e-11
1.00564e-10
5.40885e-10
1.04823e-10
6.43927e-11
5.72993e-11
5.60645e-11
5.60309e-11
5.57889e-11
5.63513e-11
5.64575e-11
1.08289e-10
4.35071e-10
8.96918e-11
5.6322e-11
4.99509e-11
4.8795e-11
4.87465e-11
4.83702e-11
4.8928e-11
4.89121e-11
1.16723e-10
3.49621e-10
7.7398e-11
4.9698e-11
4.39699e-11
4.28855e-11
4.28367e-11
4.22886e-11
4.29159e-11
4.28416e-11
1.2435e-10
2.76661e-10
6.73697e-11
4.41995e-11
3.90451e-11
3.80271e-11
3.79886e-11
3.78497e-11
3.79938e-11
3.78919e-11
1.30479e-10
2.22738e-10
5.91815e-11
3.95862e-11
3.49478e-11
3.39928e-11
3.39637e-11
3.3733e-11
3.39196e-11
3.38073e-11
1.3472e-10
1.78006e-10
5.24553e-11
3.56748e-11
3.15072e-11
3.06134e-11
3.05926e-11
3.02684e-11
3.05163e-11
3.04025e-11
1.37128e-10
1.46355e-10
4.69038e-11
3.23187e-11
2.85915e-11
2.7758e-11
2.7746e-11
2.76651e-11
2.76484e-11
2.7538e-11
1.37841e-10
1.22342e-10
4.22725e-11
2.97851e-11
2.63907e-11
2.56122e-11
2.56041e-11
2.54989e-11
2.54959e-11
2.53908e-11
1.37114e-10
1.04147e-10
3.87989e-11
2.75587e-11
2.44239e-11
2.36862e-11
2.36844e-11
2.35547e-11
2.357e-11
2.34627e-11
1.3525e-10
9.03417e-11
3.57598e-11
2.57334e-11
2.28672e-11
2.21805e-11
2.21782e-11
2.20444e-11
2.20645e-11
2.19656e-11
1.32534e-10
7.98504e-11
3.33041e-11
2.41956e-11
2.15687e-11
2.0933e-11
2.09286e-11
2.0797e-11
2.08189e-11
2.07294e-11
)
;

boundaryField
{
    fuel
    {
        type            fixedValue;
        value           uniform 0;
    }
    wall
    {
        type            zeroGradient;
    }
    outlet
    {
        type            zeroGradient;
    }
    frontAndBack
    {
        type            empty;
    }
    procBoundary2to0
    {
        type            processor;
        value           nonuniform List<scalar> 
12
(
2.19739e-11
1.29157e-10
7.0835e-11
3.12326e-11
2.2906e-11
2.04895e-11
1.99063e-11
1.98986e-11
1.97736e-11
1.97952e-11
2.0743e-11
1.97153e-11
)
;
    }
    procBoundary2to3
    {
        type            processor;
        value           nonuniform List<scalar> 
25
(
7.60502e-10
8.47265e-10
7.5426e-10
6.26572e-10
5.05638e-10
4.02213e-10
3.18935e-10
2.53823e-10
2.03961e-10
1.62506e-10
1.62506e-10
1.33701e-10
1.08372e-10
9.09097e-11
7.72313e-11
6.5294e-11
5.59706e-11
4.85766e-11
4.26159e-11
3.77423e-11
3.37111e-11
3.03444e-11
2.75073e-11
2.5377e-11
2.34629e-11
)
;
    }
}


// ************************************************************************* //
