/*--------------------------------*- C++ -*----------------------------------*\
| =========                 |                                                 |
| \\      /  F ield         | OpenFOAM: The Open Source CFD Toolbox           |
|  \\    /   O peration     | Version:  dev                                   |
|   \\  /    A nd           | Web:      www.OpenFOAM.org                      |
|    \\/     M anipulation  |                                                 |
\*---------------------------------------------------------------------------*/
FoamFile
{
    version     2.0;
    format      ascii;
    class       volScalarField;
    location    "0.185";
    object      A4-;
}
// * * * * * * * * * * * * * * * * * * * * * * * * * * * * * * * * * * * * * //

dimensions      [0 0 0 0 0 0 0];

internalField   nonuniform List<scalar> 
50
(
1.93041e-19
1.71902e-19
1.53176e-19
1.36611e-19
1.22187e-19
1.09378e-19
9.79853e-20
8.79309e-20
7.90462e-20
7.11825e-20
6.42089e-20
5.80094e-20
5.2569e-20
4.77161e-20
4.33849e-20
3.95003e-20
3.59874e-20
3.2887e-20
3.01037e-20
2.76033e-20
2.53558e-20
2.33199e-20
2.14701e-20
1.98263e-20
1.83399e-20
1.69948e-20
1.57764e-20
1.46717e-20
1.3669e-20
1.27537e-20
1.19245e-20
1.11689e-20
1.04758e-20
9.84604e-21
9.26161e-21
8.73281e-21
8.24707e-21
7.79532e-21
7.37673e-21
6.9962e-21
6.63912e-21
6.30895e-21
6.00386e-21
5.71485e-21
5.4438e-21
5.19333e-21
4.9572e-21
4.73042e-21
4.51863e-21
4.31657e-21
)
;

boundaryField
{
    wall
    {
        type            zeroGradient;
    }
    fuel
    {
        type            fixedValue;
        value           nonuniform 0();
    }
    outlet
    {
        type            inletOutlet;
        inletValue      nonuniform 0();
        value           nonuniform 0();
    }
    procBoundary2to1
    {
        type            processor;
        value           uniform 2.17226e-19;
    }
    procBoundary2to3
    {
        type            processor;
        value           uniform 4.12263e-21;
    }
}


// ************************************************************************* //
