/*--------------------------------*- C++ -*----------------------------------*\
| =========                 |                                                 |
| \\      /  F ield         | OpenFOAM: The Open Source CFD Toolbox           |
|  \\    /   O peration     | Version:  dev                                   |
|   \\  /    A nd           | Web:      www.OpenFOAM.org                      |
|    \\/     M anipulation  |                                                 |
\*---------------------------------------------------------------------------*/
FoamFile
{
    version     2.0;
    format      ascii;
    class       volScalarField;
    location    "0.185";
    object      c-C6H4;
}
// * * * * * * * * * * * * * * * * * * * * * * * * * * * * * * * * * * * * * //

dimensions      [0 0 0 0 0 0 0];

internalField   nonuniform List<scalar> 
250
(
2.07373e-07
2.3818e-06
2.50412e-06
2.51161e-06
2.51222e-06
2.51242e-06
2.5114e-06
2.51196e-06
2.51204e-06
5.9804e-07
6.43547e-06
6.3577e-06
6.30119e-06
6.28973e-06
6.28905e-06
6.28609e-06
6.28753e-06
6.28779e-06
9.69595e-07
8.41659e-06
8.13549e-06
7.98754e-06
7.96198e-06
7.95808e-06
7.953e-06
7.95543e-06
7.95645e-06
1.26294e-06
8.63873e-06
8.27901e-06
8.04486e-06
8.00886e-06
7.99852e-06
7.99077e-06
7.99461e-06
7.99689e-06
1.42916e-06
7.97348e-06
7.5705e-06
7.26539e-06
7.21709e-06
7.19854e-06
7.18965e-06
7.19396e-06
7.1971e-06
1.34978e-06
7.06536e-06
6.56951e-06
6.17157e-06
6.11427e-06
6.11274e-06
6.10752e-06
6.10994e-06
6.11156e-06
7.45341e-07
6.23589e-06
5.58251e-06
5.13025e-06
5.05885e-06
5.05214e-06
5.04685e-06
5.0499e-06
5.05079e-06
3.49391e-07
5.57032e-06
4.66678e-06
4.24714e-06
4.16732e-06
4.15171e-06
4.13809e-06
4.1489e-06
4.14956e-06
2.67416e-07
5.03553e-06
3.85877e-06
3.46947e-06
3.4267e-06
3.41363e-06
3.41856e-06
3.41059e-06
3.41177e-06
2.78314e-07
4.59467e-06
3.31137e-06
2.84651e-06
2.80359e-06
2.7885e-06
2.78511e-06
2.7852e-06
2.78637e-06
3.13812e-07
4.2213e-06
2.83371e-06
2.43084e-06
2.3912e-06
2.37516e-06
2.36686e-06
2.37179e-06
2.37342e-06
2.37182e-06
3.51021e-07
3.89218e-06
2.45932e-06
2.08716e-06
2.03894e-06
2.02324e-06
2.00685e-06
2.01986e-06
2.02195e-06
2.0219e-06
3.85326e-07
3.57651e-06
2.16273e-06
1.81781e-06
1.77101e-06
1.75689e-06
1.76723e-06
1.75325e-06
1.75569e-06
1.7565e-06
4.19117e-07
3.29183e-06
1.95864e-06
1.60925e-06
1.56374e-06
1.55098e-06
1.55806e-06
1.54699e-06
1.54984e-06
1.55072e-06
4.56733e-07
3.06017e-06
1.7746e-06
1.44371e-06
1.39957e-06
1.38784e-06
1.39275e-06
1.38327e-06
1.38668e-06
1.3872e-06
5.00397e-07
2.83928e-06
1.61594e-06
1.30882e-06
1.26619e-06
1.2552e-06
1.25857e-06
1.24972e-06
1.25397e-06
1.25406e-06
5.52946e-07
2.64311e-06
1.47849e-06
1.19614e-06
1.15517e-06
1.14474e-06
1.14698e-06
1.13785e-06
1.14343e-06
1.14319e-06
6.15252e-07
2.44372e-06
1.37441e-06
1.09994e-06
1.0608e-06
1.05083e-06
1.05227e-06
1.04165e-06
1.04945e-06
1.04905e-06
6.87226e-07
2.25178e-06
1.27592e-06
1.01613e-06
9.7917e-07
9.69682e-07
9.70618e-07
9.68065e-07
9.68294e-07
9.67821e-07
7.67305e-07
2.08748e-06
1.18231e-06
9.4166e-07
9.0762e-07
8.98675e-07
8.99234e-07
8.95839e-07
8.97284e-07
8.96835e-07
8.5175e-07
1.90998e-06
1.09789e-06
8.82528e-07
8.44226e-07
8.35933e-07
8.36228e-07
8.31613e-07
8.34554e-07
8.34171e-07
9.36132e-07
1.75244e-06
1.02106e-06
8.24518e-07
7.87312e-07
7.79902e-07
7.80053e-07
7.80572e-07
7.78554e-07
7.78241e-07
1.01482e-06
1.60377e-06
9.50854e-07
7.76906e-07
7.41792e-07
7.35282e-07
7.3537e-07
7.35492e-07
7.33989e-07
7.33724e-07
1.08165e-06
1.47117e-06
8.86253e-07
7.32132e-07
7.01074e-07
6.92653e-07
6.92643e-07
6.92468e-07
6.91323e-07
6.91061e-07
1.1304e-06
1.34156e-06
8.26016e-07
6.93447e-07
6.64643e-07
6.56906e-07
6.56833e-07
6.56502e-07
6.55602e-07
6.55377e-07
1.15617e-06
1.2168e-06
7.76297e-07
6.57699e-07
6.3179e-07
6.24651e-07
6.24523e-07
6.24068e-07
6.23365e-07
6.23163e-07
)
;

boundaryField
{
    fuel
    {
        type            fixedValue;
        value           uniform 0;
    }
    wall
    {
        type            zeroGradient;
    }
    outlet
    {
        type            zeroGradient;
    }
    frontAndBack
    {
        type            empty;
    }
    procBoundary2to0
    {
        type            processor;
        value           nonuniform List<scalar> 
12
(
6.54588e-07
1.15652e-06
1.10064e-06
7.29858e-07
6.25238e-07
6.01699e-07
5.95103e-07
5.94927e-07
5.94364e-07
5.93829e-07
6.22314e-07
5.93632e-07
)
;
    }
    procBoundary2to3
    {
        type            processor;
        value           nonuniform List<scalar> 
25
(
2.5123e-06
6.28713e-06
7.95419e-06
7.99214e-06
7.19063e-06
6.10732e-06
5.04736e-06
4.1457e-06
3.40737e-06
2.78345e-06
2.78345e-06
2.37347e-06
2.02198e-06
1.75567e-06
1.54976e-06
1.38654e-06
1.25377e-06
1.14314e-06
1.04908e-06
9.67796e-07
8.96682e-07
8.33862e-07
7.77774e-07
7.33145e-07
6.90344e-07
)
;
    }
}


// ************************************************************************* //
