/*--------------------------------*- C++ -*----------------------------------*\
| =========                 |                                                 |
| \\      /  F ield         | OpenFOAM: The Open Source CFD Toolbox           |
|  \\    /   O peration     | Version:  dev                                   |
|   \\  /    A nd           | Web:      www.OpenFOAM.org                      |
|    \\/     M anipulation  |                                                 |
\*---------------------------------------------------------------------------*/
FoamFile
{
    version     2.0;
    format      ascii;
    class       volScalarField;
    location    "0.185";
    object      C2O;
}
// * * * * * * * * * * * * * * * * * * * * * * * * * * * * * * * * * * * * * //

dimensions      [0 0 0 0 0 0 0];

internalField   nonuniform List<scalar> 
250
(
3.32019e-09
6.99451e-06
7.78945e-06
7.90411e-06
7.92274e-06
7.92314e-06
7.92206e-06
7.92267e-06
7.92373e-06
5.73024e-09
6.82584e-06
7.2304e-06
7.2912e-06
7.29946e-06
7.30207e-06
7.30041e-06
7.30127e-06
7.30178e-06
4.5397e-09
4.19731e-06
4.34559e-06
4.3773e-06
4.38239e-06
4.38402e-06
4.38206e-06
4.38295e-06
4.38319e-06
3.28838e-09
2.54624e-06
2.53092e-06
2.54807e-06
2.55184e-06
2.55147e-06
2.54962e-06
2.55038e-06
2.55075e-06
2.61667e-09
1.70773e-06
1.60259e-06
1.61417e-06
1.61553e-06
1.61295e-06
1.61145e-06
1.61202e-06
1.61252e-06
3.95036e-09
1.26799e-06
1.1321e-06
1.13083e-06
1.13332e-06
1.13578e-06
1.13512e-06
1.13535e-06
1.1356e-06
4.39383e-08
1.00376e-06
8.80784e-07
8.78203e-07
8.78351e-07
8.79732e-07
8.7911e-07
8.79472e-07
8.79646e-07
2.71776e-07
8.18109e-07
7.26458e-07
7.33511e-07
7.32991e-07
7.32855e-07
7.31126e-07
7.3254e-07
7.32758e-07
3.31892e-07
6.78602e-07
6.22092e-07
6.35114e-07
6.39212e-07
6.3923e-07
6.39643e-07
6.38875e-07
6.3923e-07
2.96979e-07
5.73059e-07
5.60073e-07
5.66554e-07
5.70747e-07
5.70482e-07
5.69793e-07
5.70071e-07
5.70489e-07
2.39347e-07
4.93054e-07
5.08437e-07
5.22467e-07
5.27171e-07
5.26794e-07
5.25496e-07
5.26338e-07
5.26849e-07
5.26441e-07
1.8793e-07
4.30721e-07
4.67183e-07
4.84752e-07
4.88693e-07
4.88331e-07
4.86139e-07
4.87812e-07
4.88423e-07
4.88212e-07
1.49453e-07
3.78056e-07
4.32497e-07
4.52622e-07
4.56869e-07
4.56649e-07
4.57784e-07
4.56012e-07
4.5672e-07
4.56624e-07
1.22645e-07
3.35914e-07
4.06765e-07
4.24841e-07
4.29318e-07
4.29203e-07
4.30059e-07
4.2841e-07
4.29248e-07
4.29176e-07
1.04494e-07
3.05076e-07
3.81485e-07
3.99967e-07
4.04616e-07
4.04561e-07
4.05232e-07
4.03555e-07
4.04569e-07
4.04468e-07
9.27177e-08
2.7847e-07
3.57828e-07
3.77127e-07
3.81879e-07
3.81848e-07
3.8238e-07
3.80549e-07
3.81815e-07
3.81669e-07
8.51252e-08
2.57016e-07
3.35803e-07
3.55742e-07
3.60528e-07
3.60495e-07
3.60915e-07
3.58787e-07
3.60418e-07
3.60237e-07
8.03587e-08
2.37211e-07
3.18087e-07
3.35398e-07
3.40144e-07
3.40097e-07
3.40433e-07
3.3777e-07
3.39981e-07
3.39775e-07
7.75088e-08
2.19787e-07
3.00288e-07
3.15721e-07
3.20404e-07
3.20341e-07
3.2063e-07
3.19821e-07
3.20194e-07
3.19966e-07
7.59563e-08
2.0601e-07
2.82321e-07
2.96328e-07
3.01029e-07
3.00958e-07
3.01204e-07
3.00027e-07
3.00777e-07
3.00537e-07
7.52432e-08
1.92137e-07
2.65085e-07
2.79277e-07
2.81757e-07
2.81702e-07
2.81913e-07
2.80235e-07
2.81484e-07
2.81234e-07
7.50743e-08
1.80393e-07
2.48259e-07
2.606e-07
2.62263e-07
2.62294e-07
2.62488e-07
2.62575e-07
2.62039e-07
2.61776e-07
7.52089e-08
1.69541e-07
2.31616e-07
2.43513e-07
2.44733e-07
2.44869e-07
2.45057e-07
2.44941e-07
2.44589e-07
2.44309e-07
7.54229e-08
1.59792e-07
2.14862e-07
2.25463e-07
2.27004e-07
2.25907e-07
2.26062e-07
2.25757e-07
2.25554e-07
2.25235e-07
7.54629e-08
1.49917e-07
1.9768e-07
2.08011e-07
2.09072e-07
2.07952e-07
2.08082e-07
2.07656e-07
2.07562e-07
2.07229e-07
7.50723e-08
1.39791e-07
1.8217e-07
1.90009e-07
1.90917e-07
1.89753e-07
1.8986e-07
1.89334e-07
1.8933e-07
1.88986e-07
)
;

boundaryField
{
    fuel
    {
        type            fixedValue;
        value           uniform 0;
    }
    wall
    {
        type            zeroGradient;
    }
    outlet
    {
        type            zeroGradient;
    }
    frontAndBack
    {
        type            empty;
    }
    procBoundary2to0
    {
        type            processor;
        value           nonuniform List<scalar> 
12
(
2.06735e-07
7.4072e-08
1.29468e-07
1.66366e-07
1.72094e-07
1.72586e-07
1.7137e-07
1.71455e-07
1.70851e-07
1.70923e-07
1.8846e-07
1.7057e-07
)
;
    }
    procBoundary2to3
    {
        type            processor;
        value           nonuniform List<scalar> 
25
(
7.92543e-06
7.30183e-06
4.38266e-06
2.54982e-06
1.61149e-06
1.13505e-06
8.79236e-07
7.32245e-07
6.38589e-07
5.69947e-07
5.69947e-07
5.26832e-07
4.88391e-07
4.56667e-07
4.29169e-07
4.04459e-07
3.81667e-07
3.60225e-07
3.39732e-07
3.19873e-07
3.00382e-07
2.81011e-07
2.61482e-07
2.43956e-07
2.24796e-07
)
;
    }
}


// ************************************************************************* //
