/*--------------------------------*- C++ -*----------------------------------*\
| =========                 |                                                 |
| \\      /  F ield         | OpenFOAM: The Open Source CFD Toolbox           |
|  \\    /   O peration     | Version:  dev                                   |
|   \\  /    A nd           | Web:      www.OpenFOAM.org                      |
|    \\/     M anipulation  |                                                 |
\*---------------------------------------------------------------------------*/
FoamFile
{
    version     2.0;
    format      ascii;
    class       volScalarField;
    location    "0.185";
    object      CH;
}
// * * * * * * * * * * * * * * * * * * * * * * * * * * * * * * * * * * * * * //

dimensions      [0 0 0 0 0 0 0];

internalField   nonuniform List<scalar> 
250
(
1.18211e-09
2.92052e-06
3.56687e-06
3.6304e-06
3.63734e-06
3.63686e-06
3.6456e-06
3.63358e-06
3.63904e-06
5.53224e-10
1.63951e-06
1.96071e-06
1.99802e-06
1.99692e-06
1.99918e-06
2.00132e-06
1.99611e-06
2.00002e-06
2.39579e-10
6.48118e-07
7.9786e-07
8.19014e-07
8.20122e-07
8.2032e-07
8.21174e-07
8.19683e-07
8.20791e-07
1.02119e-10
2.39009e-07
3.06705e-07
3.18938e-07
3.19923e-07
3.19824e-07
3.20234e-07
3.19432e-07
3.20072e-07
4.40888e-11
9.24604e-08
1.2706e-07
1.3521e-07
1.36084e-07
1.3606e-07
1.36265e-07
1.34931e-07
1.36196e-07
2.06702e-11
3.9674e-08
6.12783e-08
6.59922e-08
6.60722e-08
6.59373e-08
6.6021e-08
6.68332e-08
6.59797e-08
1.1013e-11
1.93622e-08
3.57809e-08
3.98333e-08
3.99809e-08
3.99125e-08
3.99357e-08
4.01645e-08
3.99342e-08
7.57858e-12
1.07548e-08
2.48117e-08
2.85241e-08
2.86526e-08
2.86074e-08
2.85688e-08
2.86285e-08
2.86163e-08
8.79566e-12
6.81283e-09
1.92382e-08
2.279e-08
2.31459e-08
2.31443e-08
2.30169e-08
2.29999e-08
2.31251e-08
1.4003e-11
4.8559e-09
1.60611e-08
1.95047e-08
1.98476e-08
1.98503e-08
1.99903e-08
1.9962e-08
1.98117e-08
2.38432e-11
3.83214e-09
1.4364e-08
1.77492e-08
1.80831e-08
1.80872e-08
1.81722e-08
1.8141e-08
1.80157e-08
1.80569e-08
3.17481e-11
3.24021e-09
1.32118e-08
1.64629e-08
1.67574e-08
1.67556e-08
1.68078e-08
1.67758e-08
1.6735e-08
1.67979e-08
3.97784e-11
2.91244e-09
1.2409e-08
1.54732e-08
1.57582e-08
1.57539e-08
1.57883e-08
1.5751e-08
1.5818e-08
1.57657e-08
5.24149e-11
2.80001e-09
1.17688e-08
1.46604e-08
1.49296e-08
1.49214e-08
1.49473e-08
1.48997e-08
1.49689e-08
1.49081e-08
7.10286e-11
2.80228e-09
1.12188e-08
1.39396e-08
1.41875e-08
1.41743e-08
1.41965e-08
1.41343e-08
1.42079e-08
1.42118e-08
9.64826e-11
2.88856e-09
1.07399e-08
1.32639e-08
1.34857e-08
1.34663e-08
1.34877e-08
1.34065e-08
1.34883e-08
1.34739e-08
1.31269e-10
3.03733e-09
1.02967e-08
1.26054e-08
1.27973e-08
1.27705e-08
1.27926e-08
1.26876e-08
1.27835e-08
1.27564e-08
1.80354e-10
3.23075e-09
9.86441e-09
1.19461e-08
1.21053e-08
1.20703e-08
1.20941e-08
1.19581e-08
1.20766e-08
1.20401e-08
2.5126e-10
3.46495e-09
9.42411e-09
1.12733e-08
1.13982e-08
1.13543e-08
1.1381e-08
1.12973e-08
1.13559e-08
1.13114e-08
3.52745e-10
3.69005e-09
8.96053e-09
1.05772e-08
1.06677e-08
1.06146e-08
1.0644e-08
1.05357e-08
1.06126e-08
1.05609e-08
4.93219e-10
3.91295e-09
8.46178e-09
9.84909e-09
9.90695e-09
9.84463e-09
9.87673e-09
9.74026e-09
9.84009e-09
9.78154e-09
6.76703e-10
4.07959e-09
7.91875e-09
9.0801e-09
9.10974e-09
9.0385e-09
9.07372e-09
9.00068e-09
9.0325e-09
8.96734e-09
8.99291e-10
4.18562e-09
7.32477e-09
8.36836e-09
8.36802e-09
8.29037e-09
8.32731e-09
8.24073e-09
8.28313e-09
8.21233e-09
1.14533e-09
4.21546e-09
6.74811e-09
7.60302e-09
7.55274e-09
7.46257e-09
7.50275e-09
7.39991e-09
7.45578e-09
7.37524e-09
1.3879e-09
4.15738e-09
6.10437e-09
6.83909e-09
6.76317e-09
6.66875e-09
6.70935e-09
6.59863e-09
6.66182e-09
6.57702e-09
1.59602e-09
4.00899e-09
5.45426e-09
6.05912e-09
5.96179e-09
5.86516e-09
5.90562e-09
5.78998e-09
5.85871e-09
5.77091e-09
)
;

boundaryField
{
    fuel
    {
        type            fixedValue;
        value           uniform 0;
    }
    wall
    {
        type            zeroGradient;
    }
    outlet
    {
        type            zeroGradient;
    }
    frontAndBack
    {
        type            empty;
    }
    procBoundary2to0
    {
        type            processor;
        value           nonuniform List<scalar> 
12
(
6.59897e-09
1.73179e-09
3.73762e-09
4.78289e-09
5.27303e-09
5.15891e-09
5.06307e-09
5.10254e-09
4.98543e-09
5.05742e-09
5.79527e-09
4.96839e-09
)
;
    }
    procBoundary2to3
    {
        type            processor;
        value           nonuniform List<scalar> 
25
(
3.63813e-06
2.00196e-06
8.21011e-07
3.1972e-07
1.34963e-07
6.69106e-08
4.02118e-08
2.86564e-08
2.30923e-08
1.98502e-08
1.98502e-08
1.80615e-08
1.66823e-08
1.57441e-08
1.49588e-08
1.41785e-08
1.34505e-08
1.27422e-08
1.20331e-08
1.131e-08
1.05643e-08
9.7893e-09
8.97921e-09
8.22749e-09
7.39434e-09
)
;
    }
}


// ************************************************************************* //
