/*--------------------------------*- C++ -*----------------------------------*\
| =========                 |                                                 |
| \\      /  F ield         | OpenFOAM: The Open Source CFD Toolbox           |
|  \\    /   O peration     | Version:  dev                                   |
|   \\  /    A nd           | Web:      www.OpenFOAM.org                      |
|    \\/     M anipulation  |                                                 |
\*---------------------------------------------------------------------------*/
FoamFile
{
    version     2.0;
    format      ascii;
    class       volScalarField;
    location    "0.185";
    object      CH2(S);
}
// * * * * * * * * * * * * * * * * * * * * * * * * * * * * * * * * * * * * * //

dimensions      [0 0 0 0 0 0 0];

internalField   nonuniform List<scalar> 
250
(
7.99631e-10
1.97434e-06
2.20359e-06
2.22469e-06
2.22673e-06
2.22685e-06
2.23087e-06
2.22539e-06
2.22826e-06
3.94343e-10
1.1706e-06
1.30314e-06
1.31746e-06
1.31678e-06
1.31781e-06
1.31884e-06
1.3164e-06
1.31833e-06
2.05104e-10
5.62046e-07
6.47509e-07
6.58952e-07
6.59581e-07
6.59601e-07
6.6008e-07
6.59274e-07
6.59902e-07
1.1146e-10
2.66217e-07
3.21404e-07
3.30805e-07
3.31578e-07
3.31457e-07
3.31749e-07
3.31119e-07
3.31642e-07
6.26555e-11
1.34654e-07
1.74357e-07
1.82809e-07
1.83695e-07
1.83653e-07
1.8384e-07
1.8249e-07
1.83779e-07
3.80065e-11
7.46549e-08
1.07326e-07
1.13623e-07
1.13748e-07
1.13576e-07
1.13667e-07
1.14579e-07
1.13621e-07
2.57579e-11
4.55347e-08
7.54901e-08
8.18335e-08
8.20651e-08
8.19599e-08
8.19827e-08
8.22614e-08
8.19847e-08
2.38624e-11
3.03226e-08
5.92783e-08
6.5717e-08
6.59371e-08
6.58573e-08
6.57845e-08
6.58578e-08
6.58647e-08
4.20347e-11
2.20513e-08
4.98943e-08
5.64934e-08
5.71157e-08
5.71046e-08
5.6878e-08
5.68374e-08
5.70641e-08
8.69233e-11
1.73703e-08
4.40145e-08
5.07241e-08
5.13498e-08
5.13458e-08
5.15996e-08
5.1541e-08
5.12668e-08
1.48763e-10
1.4686e-08
4.06677e-08
4.74527e-08
4.80758e-08
4.80734e-08
4.82329e-08
4.81687e-08
4.79294e-08
4.80053e-08
1.97362e-10
1.30396e-08
3.82868e-08
4.49425e-08
4.54969e-08
4.54819e-08
4.55826e-08
4.55153e-08
4.54363e-08
4.55578e-08
2.4951e-10
1.21082e-08
3.65673e-08
4.29376e-08
4.34778e-08
4.34565e-08
4.35246e-08
4.3445e-08
4.35851e-08
4.34739e-08
3.28769e-10
1.181e-08
3.51549e-08
4.12406e-08
4.17519e-08
4.17216e-08
4.17736e-08
4.1671e-08
4.18182e-08
4.1688e-08
4.44713e-10
1.1866e-08
3.39108e-08
3.96993e-08
4.01693e-08
4.01271e-08
4.01727e-08
4.00371e-08
4.01962e-08
4.02034e-08
6.05748e-10
1.21833e-08
3.28049e-08
3.82266e-08
3.86446e-08
3.8588e-08
3.86324e-08
3.8454e-08
3.86332e-08
3.86008e-08
8.28091e-10
1.26904e-08
3.17648e-08
3.67688e-08
3.71262e-08
3.70526e-08
3.70992e-08
3.68664e-08
3.70787e-08
3.70182e-08
1.13787e-09
1.33257e-08
3.07376e-08
3.52896e-08
3.55798e-08
3.54872e-08
3.55383e-08
3.52336e-08
3.54987e-08
3.54169e-08
1.56879e-09
1.40722e-08
2.96806e-08
3.37613e-08
3.39803e-08
3.38668e-08
3.39252e-08
3.37354e-08
3.38679e-08
3.37671e-08
2.15294e-09
1.47746e-08
2.85576e-08
3.21599e-08
3.23069e-08
3.21713e-08
3.22368e-08
3.19881e-08
3.21642e-08
3.20456e-08
2.91094e-09
1.54565e-08
2.73377e-08
3.04626e-08
3.05404e-08
3.0382e-08
3.0455e-08
3.0137e-08
3.03689e-08
3.02324e-08
3.83687e-09
1.596e-08
2.59942e-08
2.86424e-08
2.86599e-08
2.84785e-08
2.85603e-08
2.83865e-08
2.84616e-08
2.83069e-08
4.88963e-09
1.62786e-08
2.45036e-08
2.69267e-08
2.68769e-08
2.66776e-08
2.67652e-08
2.65549e-08
2.66575e-08
2.6486e-08
5.98811e-09
1.63702e-08
2.30301e-08
2.50456e-08
2.4877e-08
2.46433e-08
2.47411e-08
2.44855e-08
2.46239e-08
2.4424e-08
7.02223e-09
1.6202e-08
2.13511e-08
2.31233e-08
2.2891e-08
2.26416e-08
2.27432e-08
2.24606e-08
2.26214e-08
2.24052e-08
7.88258e-09
1.57644e-08
1.96115e-08
2.11065e-08
2.08167e-08
2.05551e-08
2.06598e-08
2.03552e-08
2.05358e-08
2.03046e-08
)
;

boundaryField
{
    fuel
    {
        type            fixedValue;
        value           uniform 0;
    }
    wall
    {
        type            zeroGradient;
    }
    outlet
    {
        type            zeroGradient;
    }
    frontAndBack
    {
        type            empty;
    }
    procBoundary2to0
    {
        type            processor;
        value           nonuniform List<scalar> 
12
(
2.24613e-08
8.44194e-09
1.49511e-08
1.77598e-08
1.90078e-08
1.86677e-08
1.84001e-08
1.85062e-08
1.81862e-08
1.83826e-08
2.0369e-08
1.81392e-08
)
;
    }
    procBoundary2to3
    {
        type            processor;
        value           nonuniform List<scalar> 
25
(
2.22702e-06
1.31878e-06
6.59848e-07
3.31246e-07
1.82484e-07
1.14673e-07
8.23281e-08
6.59019e-08
5.69948e-08
5.13355e-08
5.13355e-08
4.80165e-08
4.53293e-08
4.34318e-08
4.17961e-08
4.01323e-08
3.85503e-08
3.69871e-08
3.54011e-08
3.37638e-08
3.20532e-08
3.02504e-08
2.83351e-08
2.65227e-08
2.44715e-08
)
;
    }
}


// ************************************************************************* //
