/*--------------------------------*- C++ -*----------------------------------*\
| =========                 |                                                 |
| \\      /  F ield         | OpenFOAM: The Open Source CFD Toolbox           |
|  \\    /   O peration     | Version:  dev                                   |
|   \\  /    A nd           | Web:      www.OpenFOAM.org                      |
|    \\/     M anipulation  |                                                 |
\*---------------------------------------------------------------------------*/
FoamFile
{
    version     2.0;
    format      ascii;
    class       volScalarField;
    location    "0.185";
    object      CH3;
}
// * * * * * * * * * * * * * * * * * * * * * * * * * * * * * * * * * * * * * //

dimensions      [0 0 0 0 0 0 0];

internalField   nonuniform List<scalar> 
250
(
1.3311e-06
0.000746431
0.000740521
0.000739741
0.000739426
0.00073963
0.000739635
0.000739636
0.000739639
1.4774e-06
0.000551814
0.000541238
0.000539752
0.000539576
0.000539559
0.000539531
0.000539545
0.000539538
1.37858e-06
0.000387154
0.00037484
0.000373584
0.000373462
0.00037345
0.000373393
0.000373414
0.000373408
1.43814e-06
0.000287209
0.000269164
0.000268287
0.000268251
0.000268177
0.000268106
0.000268127
0.00026813
3.45525e-06
0.000230501
0.000205328
0.000204965
0.000204908
0.000204701
0.000204634
0.000204649
0.000204663
3.12258e-05
0.000197845
0.000167279
0.000166489
0.000166662
0.000166892
0.00016688
0.000166872
0.00016687
0.000308347
0.000176959
0.000144605
0.000144087
0.000144158
0.00014432
0.000144314
0.000144314
0.000144307
0.000554999
0.000160762
0.000129977
0.00013065
0.000130718
0.000130753
0.000130649
0.000130741
0.000130742
0.000530967
0.00014686
0.000120106
0.00012159
0.000122107
0.000122159
0.000122248
0.000122142
0.000122159
0.00046134
0.000134997
0.000114427
0.000115553
0.000116103
0.000116131
0.000116115
0.000116107
0.000116132
0.000391715
0.000125034
0.000109931
0.000111866
0.000112476
0.000112496
0.000112423
0.000112466
0.000112501
0.000112481
0.000331497
0.000116573
0.000106481
0.000108849
0.000109419
0.00010944
0.000109288
0.000109402
0.000109449
0.000109438
0.000281818
0.000108857
0.000103623
0.000106321
0.000106931
0.000106961
0.00010706
0.00010691
0.000106969
0.000106964
0.000241382
0.000102233
0.000101477
0.000104099
0.000104738
0.000104775
0.000104848
0.000104706
0.000104781
0.000104775
0.000208187
9.70887e-05
9.93046e-05
0.000102026
0.000102686
0.000102724
0.000102782
0.000102631
0.000102727
0.000102717
0.000181222
9.24278e-05
9.71737e-05
0.000100009
0.000100682
0.000100718
0.000100766
0.000100592
0.000100717
0.000100702
0.000158642
8.85227e-05
9.5071e-05
9.79945e-05
9.8672e-05
9.87036e-05
9.87427e-05
9.85281e-05
9.86967e-05
9.86781e-05
0.000139428
8.48083e-05
9.32735e-05
9.59433e-05
9.66183e-05
9.66433e-05
9.66762e-05
9.63928e-05
9.66311e-05
9.66088e-05
0.000122886
8.14677e-05
9.13488e-05
9.38193e-05
9.44907e-05
9.45086e-05
9.45389e-05
9.44476e-05
9.44917e-05
9.44653e-05
0.000108564
7.87853e-05
8.92725e-05
9.158e-05
9.22599e-05
9.22718e-05
9.22991e-05
9.21556e-05
9.22492e-05
9.22197e-05
9.61689e-05
7.60524e-05
8.71407e-05
8.94838e-05
8.9892e-05
8.99012e-05
8.99261e-05
8.97094e-05
8.98722e-05
8.98395e-05
8.5529e-05
7.37066e-05
8.49121e-05
8.70342e-05
8.73361e-05
8.73534e-05
8.73777e-05
8.739e-05
8.73172e-05
8.72805e-05
7.65119e-05
7.14981e-05
8.25501e-05
8.46503e-05
8.48922e-05
8.49224e-05
8.49473e-05
8.49285e-05
8.48803e-05
8.48389e-05
6.89803e-05
6.94651e-05
7.99985e-05
8.19631e-05
8.22603e-05
8.20982e-05
8.21196e-05
8.20692e-05
8.2042e-05
8.19916e-05
6.27629e-05
6.73391e-05
7.71832e-05
7.91877e-05
7.94181e-05
7.9242e-05
7.92613e-05
7.91872e-05
7.91764e-05
7.91204e-05
5.76663e-05
6.50682e-05
7.44564e-05
7.61154e-05
7.63335e-05
7.61371e-05
7.6154e-05
7.60572e-05
7.60616e-05
7.59994e-05
)
;

boundaryField
{
    fuel
    {
        type            fixedValue;
        value           uniform 0;
    }
    wall
    {
        type            zeroGradient;
    }
    outlet
    {
        type            zeroGradient;
    }
    frontAndBack
    {
        type            empty;
    }
    procBoundary2to0
    {
        type            processor;
        value           nonuniform List<scalar> 
12
(
7.90398e-05
5.34908e-05
6.2636e-05
7.14639e-05
7.28182e-05
7.29737e-05
7.27525e-05
7.27672e-05
7.2648e-05
7.26669e-05
7.59053e-05
7.2598e-05
)
;
    }
    procBoundary2to3
    {
        type            processor;
        value           nonuniform List<scalar> 
25
(
0.000739544
0.000539475
0.000373377
0.000268098
0.000204624
0.000166863
0.000144312
0.000130735
0.000122134
0.000116109
0.000116109
0.000112498
0.000109445
0.000106963
0.000104772
0.000102715
0.0001007
9.86745e-05
9.66014e-05
9.44519e-05
9.21982e-05
8.98084e-05
8.72382e-05
8.47863e-05
8.19239e-05
)
;
    }
}


// ************************************************************************* //
