/*--------------------------------*- C++ -*----------------------------------*\
| =========                 |                                                 |
| \\      /  F ield         | OpenFOAM: The Open Source CFD Toolbox           |
|  \\    /   O peration     | Version:  dev                                   |
|   \\  /    A nd           | Web:      www.OpenFOAM.org                      |
|    \\/     M anipulation  |                                                 |
\*---------------------------------------------------------------------------*/
FoamFile
{
    version     2.0;
    format      ascii;
    class       volScalarField;
    location    "0.185";
    object      n-A1C2H2;
}
// * * * * * * * * * * * * * * * * * * * * * * * * * * * * * * * * * * * * * //

dimensions      [0 0 0 0 0 0 0];

internalField   nonuniform List<scalar> 
12
(
9.28943e-16
1.0697e-15
1.22189e-15
1.38501e-15
1.55891e-15
1.74379e-15
1.94031e-15
2.14949e-15
2.37278e-15
2.61203e-15
2.86953e-15
3.14798e-15
)
;

boundaryField
{
    wall
    {
        type            zeroGradient;
    }
    fuel
    {
        type            fixedValue;
        value           nonuniform 0();
    }
    outlet
    {
        type            inletOutlet;
        inletValue      nonuniform 0();
        value           nonuniform 0();
    }
    procBoundary2to1
    {
        type            processor;
        value           uniform 7.99633e-16;
    }
    procBoundary2to3
    {
        type            processor;
        value           uniform 3.45054e-15;
    }
}


// ************************************************************************* //
