/*--------------------------------*- C++ -*----------------------------------*\
| =========                 |                                                 |
| \\      /  F ield         | OpenFOAM: The Open Source CFD Toolbox           |
|  \\    /   O peration     | Version:  dev                                   |
|   \\  /    A nd           | Web:      www.OpenFOAM.org                      |
|    \\/     M anipulation  |                                                 |
\*---------------------------------------------------------------------------*/
FoamFile
{
    version     2.0;
    format      ascii;
    class       volScalarField;
    location    "0.185";
    object      PC3H4;
}
// * * * * * * * * * * * * * * * * * * * * * * * * * * * * * * * * * * * * * //

dimensions      [0 0 0 0 0 0 0];

internalField   nonuniform List<scalar> 
50
(
3.32612e-23
3.01396e-23
2.73651e-23
2.48984e-23
2.27369e-23
2.08035e-23
1.90702e-23
1.75281e-23
1.61545e-23
1.49296e-23
1.3836e-23
1.28582e-23
1.19964e-23
1.12256e-23
1.05372e-23
9.92091e-24
9.36635e-24
8.88126e-24
8.45172e-24
8.0733e-24
7.74223e-24
7.45307e-24
7.20297e-24
6.99487e-24
6.82271e-24
6.68479e-24
6.57974e-24
6.50647e-24
6.46418e-24
6.45229e-24
6.47066e-24
6.51924e-24
6.59879e-24
6.70901e-24
6.85331e-24
7.02902e-24
7.23959e-24
7.48981e-24
7.7815e-24
8.11106e-24
8.49191e-24
8.92246e-24
9.40606e-24
9.96087e-24
1.05894e-23
1.12893e-23
1.2084e-23
1.30044e-23
1.40431e-23
1.52447e-23
)
;

boundaryField
{
    wall
    {
        type            zeroGradient;
    }
    fuel
    {
        type            fixedValue;
        value           nonuniform 0();
    }
    outlet
    {
        type            inletOutlet;
        inletValue      nonuniform 0();
        value           nonuniform 0();
    }
    procBoundary2to1
    {
        type            processor;
        value           uniform 3.68818e-23;
    }
    procBoundary2to3
    {
        type            processor;
        value           uniform 1.66351e-23;
    }
}


// ************************************************************************* //
