/*--------------------------------*- C++ -*----------------------------------*\
| =========                 |                                                 |
| \\      /  F ield         | OpenFOAM: The Open Source CFD Toolbox           |
|  \\    /   O peration     | Version:  dev                                   |
|   \\  /    A nd           | Web:      www.OpenFOAM.org                      |
|    \\/     M anipulation  |                                                 |
\*---------------------------------------------------------------------------*/
FoamFile
{
    version     2.0;
    format      ascii;
    class       volScalarField;
    location    "0.07";
    object      A1C2H*;
}
// * * * * * * * * * * * * * * * * * * * * * * * * * * * * * * * * * * * * * //

dimensions      [0 0 0 0 0 0 0];

internalField   nonuniform List<scalar> 
250
(
3.24241e-09
3.24469e-09
3.23713e-09
3.24648e-09
3.25827e-09
3.29704e-09
3.52466e-09
4.28709e-09
8.00643e-09
7.61662e-09
3.025e-09
3.02687e-09
3.02013e-09
3.02883e-09
3.04002e-09
3.0758e-09
3.28139e-09
3.93494e-09
7.04084e-09
7.06259e-09
6.03964e-09
5.65561e-09
3.58779e-09
3.1232e-09
2.91261e-09
2.85549e-09
2.85144e-09
2.82743e-09
2.84483e-09
2.83039e-09
2.83345e-09
2.83505e-09
2.82903e-09
2.83719e-09
2.84778e-09
2.88072e-09
3.06572e-09
3.62249e-09
6.20808e-09
6.50605e-09
5.8163e-09
5.01877e-09
3.33316e-09
2.92434e-09
2.73419e-09
2.68243e-09
2.67871e-09
2.65641e-09
2.67259e-09
2.65892e-09
2.66199e-09
2.66348e-09
2.65803e-09
2.6658e-09
2.67583e-09
2.70604e-09
2.87216e-09
3.34302e-09
5.41412e-09
5.94627e-09
5.53941e-09
4.53715e-09
3.09983e-09
2.74164e-09
2.57046e-09
2.52339e-09
2.52006e-09
2.49898e-09
2.51432e-09
2.50106e-09
2.50422e-09
2.50579e-09
2.50075e-09
2.5083e-09
2.51781e-09
2.54538e-09
2.69453e-09
3.08949e-09
4.70691e-09
5.38669e-09
5.21905e-09
4.11608e-09
2.87978e-09
2.56826e-09
2.41436e-09
2.37145e-09
2.36858e-09
2.34818e-09
2.36312e-09
2.34981e-09
2.35315e-09
2.35498e-09
2.35017e-09
2.3577e-09
2.36678e-09
2.39173e-09
2.52596e-09
2.85417e-09
4.15468e-09
4.83617e-09
4.86148e-09
3.73476e-09
2.66481e-09
2.39679e-09
2.25846e-09
2.21928e-09
2.21699e-09
2.19666e-09
2.21173e-09
2.19784e-09
2.20147e-09
2.20375e-09
2.19898e-09
2.20668e-09
2.2154e-09
2.23772e-09
2.35911e-09
2.6284e-09
3.65043e-09
4.30153e-09
4.46848e-09
3.37546e-09
2.44745e-09
2.21989e-09
2.09566e-09
2.06001e-09
2.0584e-09
2.03766e-09
2.0533e-09
2.0384e-09
2.0424e-09
2.04528e-09
2.04036e-09
2.0484e-09
2.05683e-09
2.07637e-09
2.18282e-09
2.40378e-09
3.21197e-09
3.7894e-09
4.04019e-09
3.02401e-09
2.21525e-09
2.03222e-09
1.91414e-09
1.879e-09
1.87829e-09
1.85636e-09
1.87293e-09
1.85637e-09
1.86093e-09
1.86474e-09
1.85969e-09
1.86829e-09
1.87636e-09
1.89393e-09
1.99715e-09
2.17337e-09
2.8096e-09
3.30267e-09
3.5788e-09
2.67111e-09
1.96169e-09
1.82191e-09
1.72015e-09
1.68835e-09
1.6885e-09
1.66578e-09
1.68332e-09
1.66535e-09
1.67037e-09
1.67489e-09
1.66956e-09
1.67853e-09
1.68626e-09
1.70109e-09
1.79545e-09
1.93296e-09
2.43243e-09
2.84179e-09
3.09185e-09
2.31389e-09
1.7077e-09
1.60244e-09
1.50998e-09
1.48166e-09
1.48262e-09
1.45946e-09
1.47774e-09
1.45867e-09
1.46404e-09
1.46914e-09
1.46361e-09
1.47273e-09
1.48001e-09
1.49219e-09
1.57799e-09
1.68247e-09
2.0737e-09
2.40642e-09
2.59323e-09
1.95528e-09
1.44639e-09
1.37128e-09
1.28903e-09
1.26441e-09
1.26606e-09
1.24319e-09
1.26162e-09
1.24215e-09
1.24765e-09
1.25307e-09
1.24752e-09
1.25645e-09
1.26313e-09
1.27279e-09
1.34952e-09
1.4265e-09
1.73167e-09
1.99744e-09
2.10446e-09
1.60431e-09
1.18761e-09
1.13757e-09
1.06634e-09
1.04557e-09
1.04771e-09
1.02606e-09
1.04386e-09
1.02489e-09
1.03028e-09
1.03569e-09
1.03035e-09
1.0387e-09
1.04462e-09
1.05198e-09
1.11879e-09
1.17354e-09
1.40953e-09
1.61819e-09
8.2244e-10
8.27509e-10
8.22632e-10
8.30035e-10
8.35089e-10
8.40446e-10
8.96685e-10
9.34056e-10
1.11388e-09
1.27443e-09
)
;

boundaryField
{
    fuel
    {
        type            fixedValue;
        value           nonuniform 0();
    }
    wall
    {
        type            zeroGradient;
    }
    outlet
    {
        type            zeroGradient;
    }
    frontAndBack
    {
        type            empty;
    }
    procBoundary0to1
    {
        type            processor;
        value           nonuniform List<scalar> 
21
(
1.64609e-09
1.2731e-09
9.42782e-10
9.12311e-10
8.52608e-10
8.35758e-10
8.38123e-10
8.18611e-10
8.34957e-10
8.17441e-10
8.17441e-10
6.33668e-10
6.38144e-10
6.33912e-10
6.40134e-10
6.44275e-10
6.47983e-10
6.93494e-10
7.17849e-10
8.51753e-10
9.72161e-10
)
;
    }
    procBoundary0to2
    {
        type            processor;
        value           nonuniform List<scalar> 
12
(
3.23973e-09
6.17809e-09
6.34587e-09
3.87104e-09
3.34475e-09
3.112e-09
3.04905e-09
3.04462e-09
3.01866e-09
3.03745e-09
3.02205e-09
3.02205e-09
)
;
    }
    procBoundary0to3
    {
        type            processor;
        value           nonuniform List<scalar> 10(3.49121e-09 3.49405e-09 3.48555e-09 3.49562e-09 3.50796e-09 3.54988e-09 3.82504e-09 4.73006e-09 9.17747e-09 8.19833e-09);
    }
}


// ************************************************************************* //
