/*--------------------------------*- C++ -*----------------------------------*\
| =========                 |                                                 |
| \\      /  F ield         | OpenFOAM: The Open Source CFD Toolbox           |
|  \\    /   O peration     | Version:  dev                                   |
|   \\  /    A nd           | Web:      www.OpenFOAM.org                      |
|    \\/     M anipulation  |                                                 |
\*---------------------------------------------------------------------------*/
FoamFile
{
    version     2.0;
    format      ascii;
    class       volScalarField;
    location    "0.07";
    object      A1C2H22;
}
// * * * * * * * * * * * * * * * * * * * * * * * * * * * * * * * * * * * * * //

dimensions      [0 0 0 0 0 0 0];

internalField   nonuniform List<scalar> 
250
(
1.9232e-09
1.92241e-09
1.91893e-09
1.92202e-09
1.92914e-09
1.96109e-09
2.14368e-09
2.95902e-09
8.56364e-09
1.23839e-08
1.84188e-09
1.84052e-09
1.83778e-09
1.84012e-09
1.84669e-09
1.87666e-09
2.04043e-09
2.75014e-09
7.36146e-09
1.16562e-08
7.85981e-09
5.03988e-09
2.48735e-09
1.99175e-09
1.83428e-09
1.79505e-09
1.78992e-09
1.78333e-09
1.78848e-09
1.78659e-09
1.78661e-09
1.78471e-09
1.78269e-09
1.78426e-09
1.79029e-09
1.81854e-09
1.96502e-09
2.58396e-09
6.38281e-09
1.07014e-08
7.28602e-09
4.45763e-09
2.39059e-09
1.93951e-09
1.79799e-09
1.76221e-09
1.75701e-09
1.75279e-09
1.75613e-09
1.75596e-09
1.75569e-09
1.75328e-09
1.75195e-09
1.75277e-09
1.75828e-09
1.78505e-09
1.91571e-09
2.45649e-09
5.51149e-09
9.62696e-09
6.78239e-09
4.0734e-09
2.32516e-09
1.91143e-09
1.78471e-09
1.7519e-09
1.74656e-09
1.74463e-09
1.74618e-09
1.74774e-09
1.74713e-09
1.74427e-09
1.74358e-09
1.7437e-09
1.74872e-09
1.77423e-09
1.89053e-09
2.36399e-09
4.79547e-09
8.53404e-09
6.35733e-09
3.78971e-09
2.28617e-09
1.90471e-09
1.79156e-09
1.76124e-09
1.75573e-09
1.75583e-09
1.75575e-09
1.75887e-09
1.75794e-09
1.75471e-09
1.75459e-09
1.75413e-09
1.75873e-09
1.78314e-09
1.88662e-09
2.30198e-09
4.2862e-09
7.50103e-09
6.00139e-09
3.57973e-09
2.26701e-09
1.91483e-09
1.81376e-09
1.78543e-09
1.77979e-09
1.78136e-09
1.78006e-09
1.78429e-09
1.78313e-09
1.7797e-09
1.78001e-09
1.77917e-09
1.78349e-09
1.80691e-09
1.89939e-09
2.26386e-09
3.87005e-09
6.57275e-09
5.69276e-09
3.41921e-09
2.2584e-09
1.93447e-09
1.84361e-09
1.81678e-09
1.81112e-09
1.81321e-09
1.81143e-09
1.81597e-09
1.81478e-09
1.81141e-09
1.81192e-09
1.81105e-09
1.81525e-09
1.83772e-09
1.92214e-09
2.24034e-09
3.54859e-09
5.76681e-09
5.4016e-09
3.28415e-09
2.24778e-09
1.95287e-09
1.87053e-09
1.84593e-09
1.84047e-09
1.84185e-09
1.84069e-09
1.84439e-09
1.84346e-09
1.8405e-09
1.84081e-09
1.84038e-09
1.84472e-09
1.8658e-09
1.9417e-09
2.21836e-09
3.28346e-09
5.07749e-09
5.09418e-09
3.14948e-09
2.21735e-09
1.95554e-09
1.87629e-09
1.85239e-09
1.84752e-09
1.84652e-09
1.84727e-09
1.84862e-09
1.84837e-09
1.84634e-09
1.84611e-09
1.8467e-09
1.85137e-09
1.87117e-09
1.94356e-09
2.1815e-09
3.04862e-09
4.48388e-09
4.73862e-09
2.99026e-09
2.14963e-09
1.92385e-09
1.84575e-09
1.82205e-09
1.81817e-09
1.81339e-09
1.81727e-09
1.81491e-09
1.81572e-09
1.81506e-09
1.81392e-09
1.81601e-09
1.82118e-09
1.83939e-09
1.91103e-09
2.11212e-09
2.81862e-09
3.95751e-09
4.31193e-09
2.78548e-09
2.03056e-09
1.84366e-09
1.76556e-09
1.74204e-09
1.73945e-09
1.73012e-09
1.7379e-09
1.73098e-09
1.73309e-09
1.73406e-09
1.73177e-09
1.73558e-09
1.74129e-09
1.75754e-09
1.82978e-09
1.99573e-09
2.5719e-09
3.4697e-09
3.80897e-09
2.52356e-09
1.85507e-09
1.70773e-09
1.63016e-09
1.6073e-09
1.60616e-09
1.59248e-09
1.60411e-09
1.59269e-09
1.59608e-09
1.59864e-09
1.59523e-09
1.60059e-09
1.60667e-09
1.62066e-09
1.69295e-09
1.82593e-09
2.29514e-09
2.99841e-09
1.411e-09
1.41482e-09
1.41056e-09
1.41694e-09
1.4231e-09
1.43461e-09
1.50468e-09
1.60764e-09
1.98692e-09
2.53319e-09
)
;

boundaryField
{
    fuel
    {
        type            fixedValue;
        value           nonuniform 0();
    }
    wall
    {
        type            zeroGradient;
    }
    outlet
    {
        type            zeroGradient;
    }
    frontAndBack
    {
        type            empty;
    }
    procBoundary0to1
    {
        type            processor;
        value           nonuniform List<scalar> 
21
(
3.24356e-09
2.2067e-09
1.62951e-09
1.51967e-09
1.44492e-09
1.42359e-09
1.42377e-09
1.40695e-09
1.42152e-09
1.40664e-09
1.40664e-09
1.19344e-09
1.19796e-09
1.1933e-09
1.19998e-09
1.20585e-09
1.21485e-09
1.27957e-09
1.35623e-09
1.65782e-09
2.07671e-09
)
;
    }
    procBoundary0to2
    {
        type            processor;
        value           nonuniform List<scalar> 
12
(
1.92281e-09
8.4659e-09
5.74043e-09
2.61908e-09
2.07016e-09
1.89553e-09
1.85233e-09
1.8472e-09
1.83825e-09
1.84517e-09
1.84163e-09
1.84163e-09
)
;
    }
    procBoundary0to3
    {
        type            processor;
        value           nonuniform List<scalar> 10(2.03244e-09 2.03225e-09 2.02799e-09 2.03185e-09 2.0395e-09 2.07373e-09 2.28845e-09 3.24268e-09 1.00893e-08 1.27792e-08);
    }
}


// ************************************************************************* //
