/*--------------------------------*- C++ -*----------------------------------*\
| =========                 |                                                 |
| \\      /  F ield         | OpenFOAM: The Open Source CFD Toolbox           |
|  \\    /   O peration     | Version:  dev                                   |
|   \\  /    A nd           | Web:      www.OpenFOAM.org                      |
|    \\/     M anipulation  |                                                 |
\*---------------------------------------------------------------------------*/
FoamFile
{
    version     2.0;
    format      ascii;
    class       volScalarField;
    location    "0.07";
    object      A2C2HA;
}
// * * * * * * * * * * * * * * * * * * * * * * * * * * * * * * * * * * * * * //

dimensions      [0 0 0 0 0 0 0];

internalField   nonuniform List<scalar> 
2014
(
1.47847e-09
1.48705e-09
1.49474e-09
1.49857e-09
1.49947e-09
1.50019e-09
1.49958e-09
1.49978e-09
1.49931e-09
1.49947e-09
1.4992e-09
1.49933e-09
1.49916e-09
1.49926e-09
1.49915e-09
1.49923e-09
1.49915e-09
1.49921e-09
1.49916e-09
1.4992e-09
1.49917e-09
1.4992e-09
1.49918e-09
1.49919e-09
1.49918e-09
1.49918e-09
1.49919e-09
1.49918e-09
1.4992e-09
1.49917e-09
1.4992e-09
1.49916e-09
1.49921e-09
1.49915e-09
1.49923e-09
1.49915e-09
1.49926e-09
1.49916e-09
1.49933e-09
1.4992e-09
1.49947e-09
1.49931e-09
1.49978e-09
1.49958e-09
1.50019e-09
1.49947e-09
1.49857e-09
1.49474e-09
1.48705e-09
1.47847e-09
1.41351e-09
1.42177e-09
1.42906e-09
1.43271e-09
1.43358e-09
1.43427e-09
1.4337e-09
1.43388e-09
1.43344e-09
1.43357e-09
1.43332e-09
1.43344e-09
1.43328e-09
1.43337e-09
1.43327e-09
1.43334e-09
1.43327e-09
1.43333e-09
1.43328e-09
1.43332e-09
1.43329e-09
1.43331e-09
1.43329e-09
1.43331e-09
1.4333e-09
1.4333e-09
1.43331e-09
1.43329e-09
1.43331e-09
1.43329e-09
1.43332e-09
1.43328e-09
1.43333e-09
1.43327e-09
1.43334e-09
1.43327e-09
1.43337e-09
1.43328e-09
1.43344e-09
1.43332e-09
1.43357e-09
1.43344e-09
1.43388e-09
1.4337e-09
1.43427e-09
1.43358e-09
1.43271e-09
1.42906e-09
1.42177e-09
1.41351e-09
1.3534e-09
1.36136e-09
1.36825e-09
1.37173e-09
1.37258e-09
1.37324e-09
1.3727e-09
1.37286e-09
1.37244e-09
1.37257e-09
1.37233e-09
1.37243e-09
1.37229e-09
1.37237e-09
1.37227e-09
1.37234e-09
1.37227e-09
1.37233e-09
1.37229e-09
1.37232e-09
1.37229e-09
1.37231e-09
1.3723e-09
1.37231e-09
1.3723e-09
1.3723e-09
1.37231e-09
1.3723e-09
1.37231e-09
1.37229e-09
1.37232e-09
1.37229e-09
1.37233e-09
1.37228e-09
1.37234e-09
1.37228e-09
1.37237e-09
1.37229e-09
1.37243e-09
1.37233e-09
1.37257e-09
1.37244e-09
1.37286e-09
1.3727e-09
1.37323e-09
1.37258e-09
1.37173e-09
1.36825e-09
1.36136e-09
1.3534e-09
1.29769e-09
1.30537e-09
1.31188e-09
1.31519e-09
1.31601e-09
1.31664e-09
1.31613e-09
1.31628e-09
1.31589e-09
1.31599e-09
1.31577e-09
1.31587e-09
1.31573e-09
1.3158e-09
1.31571e-09
1.31578e-09
1.31571e-09
1.31576e-09
1.31572e-09
1.31576e-09
1.31573e-09
1.31575e-09
1.31573e-09
1.31574e-09
1.31574e-09
1.31574e-09
1.31574e-09
1.31573e-09
1.31575e-09
1.31573e-09
1.31576e-09
1.31572e-09
1.31576e-09
1.31571e-09
1.31578e-09
1.31571e-09
1.3158e-09
1.31573e-09
1.31587e-09
1.31577e-09
1.31599e-09
1.31588e-09
1.31628e-09
1.31613e-09
1.31663e-09
1.31601e-09
1.31519e-09
1.31188e-09
1.30537e-09
1.29769e-09
1.24598e-09
1.25339e-09
1.25955e-09
1.26269e-09
1.26348e-09
1.26407e-09
1.2636e-09
1.26373e-09
1.26336e-09
1.26345e-09
1.26324e-09
1.26333e-09
1.2632e-09
1.26327e-09
1.26319e-09
1.26324e-09
1.26319e-09
1.26323e-09
1.2632e-09
1.26323e-09
1.2632e-09
1.26322e-09
1.26321e-09
1.26322e-09
1.26321e-09
1.26321e-09
1.26322e-09
1.26321e-09
1.26322e-09
1.2632e-09
1.26323e-09
1.2632e-09
1.26323e-09
1.26319e-09
1.26324e-09
1.26319e-09
1.26327e-09
1.2632e-09
1.26333e-09
1.26325e-09
1.26345e-09
1.26336e-09
1.26373e-09
1.2636e-09
1.26407e-09
1.26348e-09
1.26269e-09
1.25955e-09
1.25339e-09
1.24598e-09
1.19791e-09
1.20506e-09
1.21089e-09
1.21386e-09
1.21461e-09
1.21518e-09
1.21473e-09
1.21485e-09
1.2145e-09
1.21459e-09
1.21439e-09
1.21447e-09
1.21435e-09
1.21441e-09
1.21433e-09
1.21439e-09
1.21433e-09
1.21438e-09
1.21434e-09
1.21437e-09
1.21435e-09
1.21436e-09
1.21435e-09
1.21436e-09
1.21435e-09
1.21435e-09
1.21436e-09
1.21435e-09
1.21436e-09
1.21435e-09
1.21437e-09
1.21434e-09
1.21438e-09
1.21433e-09
1.21439e-09
1.21433e-09
1.21441e-09
1.21435e-09
1.21447e-09
1.21439e-09
1.21459e-09
1.2145e-09
1.21485e-09
1.21473e-09
1.21518e-09
1.21461e-09
1.21386e-09
1.21089e-09
1.20506e-09
1.19791e-09
1.15316e-09
1.16006e-09
1.16556e-09
1.16838e-09
1.1691e-09
1.16964e-09
1.16922e-09
1.16932e-09
1.169e-09
1.16907e-09
1.16888e-09
1.16896e-09
1.16884e-09
1.1689e-09
1.16883e-09
1.16888e-09
1.16883e-09
1.16887e-09
1.16883e-09
1.16886e-09
1.16884e-09
1.16886e-09
1.16884e-09
1.16885e-09
1.16885e-09
1.16885e-09
1.16885e-09
1.16884e-09
1.16886e-09
1.16884e-09
1.16886e-09
1.16883e-09
1.16887e-09
1.16883e-09
1.16888e-09
1.16883e-09
1.1689e-09
1.16884e-09
1.16896e-09
1.16889e-09
1.16907e-09
1.169e-09
1.16932e-09
1.16922e-09
1.16964e-09
1.1691e-09
1.16838e-09
1.16556e-09
1.16006e-09
1.15316e-09
1.11143e-09
1.1181e-09
1.12329e-09
1.12596e-09
1.12665e-09
1.12716e-09
1.12676e-09
1.12686e-09
1.12655e-09
1.12661e-09
1.12644e-09
1.1265e-09
1.12639e-09
1.12645e-09
1.12638e-09
1.12643e-09
1.12638e-09
1.12642e-09
1.12639e-09
1.12641e-09
1.12639e-09
1.12641e-09
1.12639e-09
1.1264e-09
1.1264e-09
1.1264e-09
1.1264e-09
1.12639e-09
1.12641e-09
1.12639e-09
1.12641e-09
1.12639e-09
1.12642e-09
1.12638e-09
1.12643e-09
1.12638e-09
1.12645e-09
1.12639e-09
1.1265e-09
1.12644e-09
1.12662e-09
1.12655e-09
1.12686e-09
1.12676e-09
1.12716e-09
1.12665e-09
1.12596e-09
1.12329e-09
1.1181e-09
1.11143e-09
1.07247e-09
1.07891e-09
1.08381e-09
1.08634e-09
1.08699e-09
1.08748e-09
1.08711e-09
1.08719e-09
1.0869e-09
1.08696e-09
1.08679e-09
1.08685e-09
1.08675e-09
1.0868e-09
1.08673e-09
1.08677e-09
1.08673e-09
1.08677e-09
1.08674e-09
1.08676e-09
1.08674e-09
1.08676e-09
1.08675e-09
1.08675e-09
1.08675e-09
1.08675e-09
1.08675e-09
1.08675e-09
1.08676e-09
1.08674e-09
1.08676e-09
1.08674e-09
1.08677e-09
1.08673e-09
1.08678e-09
1.08673e-09
1.0868e-09
1.08675e-09
1.08685e-09
1.08679e-09
1.08696e-09
1.0869e-09
1.08719e-09
1.08711e-09
1.08748e-09
1.08699e-09
1.08634e-09
1.08381e-09
1.07891e-09
1.07247e-09
1.03605e-09
1.04226e-09
1.04688e-09
1.04928e-09
1.0499e-09
1.05036e-09
1.05001e-09
1.05009e-09
1.04981e-09
1.04986e-09
1.04971e-09
1.04976e-09
1.04966e-09
1.04971e-09
1.04965e-09
1.04969e-09
1.04965e-09
1.04968e-09
1.04966e-09
1.04968e-09
1.04966e-09
1.04967e-09
1.04966e-09
1.04967e-09
1.04967e-09
1.04967e-09
1.04967e-09
1.04966e-09
1.04967e-09
1.04966e-09
1.04968e-09
1.04966e-09
1.04968e-09
1.04965e-09
1.04969e-09
1.04965e-09
1.04971e-09
1.04966e-09
1.04976e-09
1.04971e-09
1.04986e-09
1.04981e-09
1.05009e-09
1.05001e-09
1.05036e-09
1.0499e-09
1.04928e-09
1.04688e-09
1.04226e-09
1.03605e-09
1.00196e-09
1.00794e-09
1.01231e-09
1.01457e-09
1.01517e-09
1.0156e-09
1.01527e-09
1.01534e-09
1.01508e-09
1.01513e-09
1.01498e-09
1.01503e-09
1.01494e-09
1.01498e-09
1.01492e-09
1.01496e-09
1.01492e-09
1.01495e-09
1.01493e-09
1.01495e-09
1.01493e-09
1.01495e-09
1.01494e-09
1.01494e-09
1.01494e-09
1.01494e-09
1.01494e-09
1.01494e-09
1.01495e-09
1.01493e-09
1.01495e-09
1.01493e-09
1.01495e-09
1.01492e-09
1.01496e-09
1.01492e-09
1.01498e-09
1.01494e-09
1.01503e-09
1.01498e-09
1.01513e-09
1.01508e-09
1.01534e-09
1.01527e-09
1.0156e-09
1.01517e-09
1.01457e-09
1.01231e-09
1.00794e-09
1.00196e-09
9.7002e-10
9.75763e-10
9.79888e-10
9.82033e-10
9.82598e-10
9.83014e-10
9.82703e-10
9.82763e-10
9.82518e-10
9.82558e-10
9.82418e-10
9.82463e-10
9.82377e-10
9.82418e-10
9.82363e-10
9.824e-10
9.82363e-10
9.82394e-10
9.8237e-10
9.82391e-10
9.82375e-10
9.82387e-10
9.82377e-10
9.82384e-10
9.82381e-10
9.82381e-10
9.82384e-10
9.82378e-10
9.82387e-10
9.82375e-10
9.82391e-10
9.8237e-10
9.82394e-10
9.82363e-10
9.824e-10
9.82364e-10
9.82418e-10
9.82377e-10
9.82463e-10
9.82418e-10
9.82558e-10
9.82518e-10
9.82763e-10
9.82703e-10
9.83013e-10
9.82598e-10
9.82033e-10
9.79887e-10
9.75763e-10
9.7002e-10
9.40052e-10
9.45558e-10
9.49459e-10
9.51491e-10
9.52029e-10
9.52424e-10
9.52131e-10
9.52185e-10
9.51954e-10
9.5199e-10
9.51858e-10
9.51899e-10
9.51818e-10
9.51857e-10
9.51805e-10
9.5184e-10
9.51805e-10
9.51835e-10
9.51812e-10
9.51832e-10
9.51817e-10
9.51829e-10
9.5182e-10
9.51826e-10
9.51823e-10
9.51823e-10
9.51826e-10
9.5182e-10
9.51829e-10
9.51817e-10
9.51832e-10
9.51812e-10
9.51835e-10
9.51806e-10
9.5184e-10
9.51806e-10
9.51857e-10
9.51819e-10
9.51899e-10
9.51858e-10
9.5199e-10
9.51954e-10
9.52185e-10
9.52131e-10
9.52423e-10
9.52029e-10
9.51491e-10
9.49459e-10
9.45559e-10
9.40052e-10
9.1191e-10
9.17176e-10
9.2087e-10
9.22797e-10
9.23308e-10
9.23682e-10
9.23408e-10
9.23456e-10
9.23239e-10
9.23271e-10
9.23146e-10
9.23184e-10
9.23108e-10
9.23144e-10
9.23097e-10
9.23129e-10
9.23097e-10
9.23125e-10
9.23104e-10
9.23123e-10
9.23108e-10
9.2312e-10
9.23111e-10
9.23117e-10
9.23115e-10
9.23115e-10
9.23117e-10
9.23111e-10
9.2312e-10
9.23108e-10
9.23123e-10
9.23104e-10
9.23125e-10
9.23097e-10
9.2313e-10
9.23097e-10
9.23145e-10
9.23109e-10
9.23184e-10
9.23147e-10
9.23271e-10
9.23239e-10
9.23456e-10
9.23408e-10
9.23682e-10
9.23307e-10
9.22796e-10
9.2087e-10
9.17177e-10
9.1191e-10
8.85459e-10
8.90483e-10
8.93985e-10
8.95813e-10
8.96297e-10
8.96654e-10
8.96397e-10
8.96441e-10
8.96237e-10
8.96265e-10
8.96148e-10
8.96183e-10
8.96112e-10
8.96146e-10
8.96101e-10
8.96132e-10
8.96102e-10
8.96129e-10
8.96109e-10
8.96127e-10
8.96114e-10
8.96124e-10
8.96116e-10
8.96122e-10
8.9612e-10
8.9612e-10
8.96122e-10
8.96116e-10
8.96125e-10
8.96114e-10
8.96127e-10
8.96109e-10
8.96129e-10
8.96103e-10
8.96133e-10
8.96102e-10
8.96147e-10
8.96113e-10
8.96183e-10
8.96149e-10
8.96265e-10
8.96237e-10
8.96441e-10
8.96397e-10
8.96654e-10
8.96297e-10
8.95812e-10
8.93984e-10
8.90484e-10
8.85459e-10
8.60575e-10
8.65359e-10
8.68682e-10
8.70418e-10
8.70877e-10
8.71218e-10
8.70977e-10
8.71017e-10
8.70826e-10
8.70851e-10
8.70742e-10
8.70774e-10
8.70708e-10
8.7074e-10
8.70698e-10
8.70728e-10
8.707e-10
8.70725e-10
8.70707e-10
8.70724e-10
8.70711e-10
8.70722e-10
8.70714e-10
8.70719e-10
8.70717e-10
8.70717e-10
8.7072e-10
8.70714e-10
8.70722e-10
8.70711e-10
8.70724e-10
8.70707e-10
8.70725e-10
8.707e-10
8.70728e-10
8.70699e-10
8.70741e-10
8.70709e-10
8.70775e-10
8.70742e-10
8.70852e-10
8.70826e-10
8.71017e-10
8.70977e-10
8.71218e-10
8.70877e-10
8.70418e-10
8.68681e-10
8.6536e-10
8.60575e-10
8.37149e-10
8.41696e-10
8.44853e-10
8.46502e-10
8.46938e-10
8.47264e-10
8.47039e-10
8.47076e-10
8.46897e-10
8.46921e-10
8.46818e-10
8.46849e-10
8.46787e-10
8.46817e-10
8.46778e-10
8.46806e-10
8.4678e-10
8.46805e-10
8.46787e-10
8.46804e-10
8.46792e-10
8.46802e-10
8.46795e-10
8.468e-10
8.46798e-10
8.46798e-10
8.468e-10
8.46795e-10
8.46802e-10
8.46792e-10
8.46804e-10
8.46787e-10
8.46805e-10
8.46781e-10
8.46807e-10
8.46779e-10
8.46818e-10
8.46787e-10
8.46849e-10
8.46819e-10
8.46921e-10
8.46897e-10
8.47076e-10
8.47039e-10
8.47263e-10
8.46938e-10
8.46502e-10
8.44852e-10
8.41696e-10
8.37149e-10
8.15082e-10
8.19397e-10
8.22399e-10
8.23968e-10
8.24383e-10
8.24694e-10
8.24485e-10
8.2452e-10
8.24353e-10
8.24375e-10
8.2428e-10
8.24308e-10
8.24251e-10
8.2428e-10
8.24244e-10
8.24271e-10
8.24246e-10
8.2427e-10
8.24254e-10
8.24269e-10
8.24258e-10
8.24268e-10
8.24261e-10
8.24266e-10
8.24264e-10
8.24264e-10
8.24266e-10
8.24261e-10
8.24268e-10
8.24259e-10
8.2427e-10
8.24254e-10
8.2427e-10
8.24247e-10
8.24271e-10
8.24244e-10
8.2428e-10
8.24251e-10
8.24309e-10
8.2428e-10
8.24375e-10
8.24353e-10
8.24519e-10
8.24485e-10
8.24694e-10
8.24382e-10
8.23967e-10
8.22398e-10
8.19398e-10
8.15082e-10
7.94287e-10
7.98375e-10
8.01235e-10
8.02726e-10
8.03122e-10
8.03421e-10
8.03227e-10
8.0326e-10
8.03106e-10
8.03127e-10
8.03038e-10
8.03066e-10
8.03012e-10
8.0304e-10
8.03007e-10
8.03033e-10
8.0301e-10
8.03033e-10
8.03018e-10
8.03033e-10
8.03023e-10
8.03032e-10
8.03026e-10
8.03031e-10
8.03029e-10
8.03029e-10
8.03031e-10
8.03026e-10
8.03032e-10
8.03023e-10
8.03033e-10
8.03018e-10
8.03033e-10
8.03011e-10
8.03033e-10
8.03007e-10
8.03041e-10
8.03013e-10
8.03066e-10
8.03039e-10
8.03127e-10
8.03106e-10
8.0326e-10
8.03227e-10
8.03421e-10
8.03122e-10
8.02726e-10
8.01234e-10
7.98375e-10
7.94287e-10
7.74683e-10
7.78548e-10
7.81286e-10
7.82699e-10
7.83079e-10
7.83366e-10
7.83187e-10
7.83219e-10
7.83077e-10
7.83097e-10
7.83016e-10
7.83042e-10
7.82993e-10
7.8302e-10
7.82989e-10
7.83014e-10
7.82994e-10
7.83015e-10
7.83001e-10
7.83016e-10
7.83006e-10
7.83015e-10
7.83009e-10
7.83014e-10
7.83012e-10
7.83012e-10
7.83014e-10
7.8301e-10
7.83015e-10
7.83007e-10
7.83016e-10
7.83002e-10
7.83015e-10
7.82994e-10
7.83015e-10
7.8299e-10
7.83021e-10
7.82994e-10
7.83042e-10
7.83016e-10
7.83097e-10
7.83077e-10
7.83219e-10
7.83187e-10
7.83366e-10
7.83079e-10
7.82699e-10
7.81286e-10
7.78548e-10
7.74683e-10
7.56199e-10
7.59856e-10
7.62475e-10
7.63816e-10
7.64182e-10
7.64459e-10
7.64294e-10
7.64327e-10
7.64196e-10
7.64216e-10
7.64142e-10
7.64168e-10
7.64123e-10
7.64149e-10
7.64121e-10
7.64145e-10
7.64126e-10
7.64147e-10
7.64134e-10
7.64148e-10
7.6414e-10
7.64148e-10
7.64143e-10
7.64147e-10
7.64146e-10
7.64146e-10
7.64147e-10
7.64143e-10
7.64148e-10
7.6414e-10
7.64149e-10
7.64134e-10
7.64147e-10
7.64127e-10
7.64145e-10
7.64122e-10
7.6415e-10
7.64123e-10
7.64168e-10
7.64142e-10
7.64217e-10
7.64196e-10
7.64326e-10
7.64294e-10
7.64459e-10
7.64181e-10
7.63815e-10
7.62474e-10
7.59856e-10
7.56199e-10
7.38774e-10
7.42235e-10
7.44737e-10
7.46013e-10
7.46368e-10
7.46636e-10
7.46486e-10
7.46519e-10
7.46401e-10
7.46422e-10
7.46354e-10
7.4638e-10
7.46339e-10
7.46365e-10
7.46339e-10
7.46363e-10
7.46346e-10
7.46365e-10
7.46354e-10
7.46367e-10
7.46359e-10
7.46368e-10
7.46363e-10
7.46367e-10
7.46365e-10
7.46365e-10
7.46367e-10
7.46363e-10
7.46368e-10
7.4636e-10
7.46368e-10
7.46354e-10
7.46365e-10
7.46346e-10
7.46363e-10
7.4634e-10
7.46365e-10
7.46339e-10
7.4638e-10
7.46354e-10
7.46422e-10
7.46401e-10
7.46519e-10
7.46485e-10
7.46636e-10
7.46368e-10
7.46013e-10
7.44736e-10
7.42236e-10
7.38774e-10
7.22351e-10
7.2563e-10
7.28017e-10
7.29235e-10
7.29581e-10
7.29842e-10
7.29706e-10
7.29741e-10
7.29635e-10
7.29657e-10
7.29596e-10
7.29622e-10
7.29585e-10
7.29611e-10
7.29588e-10
7.29611e-10
7.29595e-10
7.29615e-10
7.29604e-10
7.29617e-10
7.2961e-10
7.29618e-10
7.29613e-10
7.29617e-10
7.29616e-10
7.29616e-10
7.29618e-10
7.29613e-10
7.29618e-10
7.2961e-10
7.29617e-10
7.29604e-10
7.29615e-10
7.29596e-10
7.29611e-10
7.29588e-10
7.29611e-10
7.29586e-10
7.29622e-10
7.29596e-10
7.29657e-10
7.29635e-10
7.29741e-10
7.29706e-10
7.29842e-10
7.29581e-10
7.29234e-10
7.28016e-10
7.2563e-10
7.22351e-10
7.06883e-10
7.0999e-10
7.12264e-10
7.1343e-10
7.13772e-10
7.14027e-10
7.13905e-10
7.13943e-10
7.13849e-10
7.13872e-10
7.13819e-10
7.13845e-10
7.13813e-10
7.13838e-10
7.13818e-10
7.1384e-10
7.13826e-10
7.13845e-10
7.13836e-10
7.13848e-10
7.13842e-10
7.13849e-10
7.13845e-10
7.13849e-10
7.13848e-10
7.13848e-10
7.13849e-10
7.13845e-10
7.13849e-10
7.13842e-10
7.13848e-10
7.13836e-10
7.13845e-10
7.13827e-10
7.1384e-10
7.13818e-10
7.13838e-10
7.13813e-10
7.13845e-10
7.13819e-10
7.13872e-10
7.13849e-10
7.13942e-10
7.13905e-10
7.14027e-10
7.13772e-10
7.1343e-10
7.12263e-10
7.0999e-10
7.06883e-10
6.92325e-10
6.95269e-10
6.97434e-10
6.98556e-10
6.98896e-10
6.99146e-10
6.99038e-10
6.99079e-10
6.98998e-10
6.99023e-10
6.98977e-10
6.99004e-10
6.98976e-10
6.99001e-10
6.98984e-10
6.99006e-10
6.98994e-10
6.99012e-10
6.99004e-10
6.99016e-10
6.9901e-10
6.99018e-10
6.99014e-10
6.99018e-10
6.99017e-10
6.99017e-10
6.99018e-10
6.99014e-10
6.99018e-10
6.9901e-10
6.99016e-10
6.99004e-10
6.99012e-10
6.98994e-10
6.99006e-10
6.98984e-10
6.99002e-10
6.98977e-10
6.99004e-10
6.98978e-10
6.99024e-10
6.98998e-10
6.99079e-10
6.99038e-10
6.99146e-10
6.98896e-10
6.98555e-10
6.97434e-10
6.95269e-10
6.92325e-10
6.79106e-10
6.81917e-10
6.83976e-10
6.85066e-10
6.85405e-10
6.85653e-10
6.85557e-10
6.85603e-10
6.85533e-10
6.85561e-10
6.85521e-10
6.85549e-10
6.85526e-10
6.85551e-10
6.85536e-10
6.85558e-10
6.85547e-10
6.85565e-10
6.85558e-10
6.8557e-10
6.85565e-10
6.85572e-10
6.85568e-10
6.85572e-10
6.85571e-10
6.85571e-10
6.85572e-10
6.85569e-10
6.85572e-10
6.85565e-10
6.8557e-10
6.85558e-10
6.85565e-10
6.85548e-10
6.85558e-10
6.85536e-10
6.85551e-10
6.85526e-10
6.85549e-10
6.85522e-10
6.85561e-10
6.85533e-10
6.85603e-10
6.85557e-10
6.85653e-10
6.85405e-10
6.85065e-10
6.83976e-10
6.81917e-10
6.79106e-10
6.6657e-10
6.69268e-10
6.71188e-10
6.72224e-10
6.72533e-10
6.72761e-10
6.72657e-10
6.72698e-10
6.72632e-10
6.72658e-10
6.72621e-10
6.72647e-10
6.72625e-10
6.7265e-10
6.72636e-10
6.72657e-10
6.72647e-10
6.72664e-10
6.72658e-10
6.72669e-10
6.72664e-10
6.72671e-10
6.72668e-10
6.72672e-10
6.72671e-10
6.72671e-10
6.72672e-10
6.72668e-10
6.72672e-10
6.72664e-10
6.7267e-10
6.72658e-10
6.72665e-10
6.72648e-10
6.72657e-10
6.72636e-10
6.7265e-10
6.72626e-10
6.72647e-10
6.72621e-10
6.72658e-10
6.72632e-10
6.72698e-10
6.72657e-10
6.72761e-10
6.72533e-10
6.72224e-10
6.71187e-10
6.69268e-10
6.6657e-10
6.54595e-10
6.57163e-10
6.58982e-10
6.59991e-10
6.60306e-10
6.60534e-10
6.60442e-10
6.60488e-10
6.60435e-10
6.60465e-10
6.60435e-10
6.60463e-10
6.60446e-10
6.60471e-10
6.6046e-10
6.6048e-10
6.60473e-10
6.60489e-10
6.60484e-10
6.60495e-10
6.60491e-10
6.60498e-10
6.60495e-10
6.60498e-10
6.60498e-10
6.60498e-10
6.60498e-10
6.60495e-10
6.60498e-10
6.60491e-10
6.60495e-10
6.60484e-10
6.6049e-10
6.60473e-10
6.60481e-10
6.6046e-10
6.60471e-10
6.60446e-10
6.60464e-10
6.60436e-10
6.60465e-10
6.60435e-10
6.60488e-10
6.60442e-10
6.60534e-10
6.60306e-10
6.59991e-10
6.58982e-10
6.57163e-10
6.54595e-10
6.43416e-10
6.45859e-10
6.47589e-10
6.48573e-10
6.48898e-10
6.49127e-10
6.49047e-10
6.491e-10
6.4906e-10
6.49094e-10
6.49072e-10
6.49102e-10
6.49089e-10
6.49114e-10
6.49106e-10
6.49127e-10
6.49121e-10
6.49137e-10
6.49133e-10
6.49144e-10
6.4914e-10
6.49147e-10
6.49144e-10
6.49148e-10
6.49147e-10
6.49147e-10
6.49148e-10
6.49144e-10
6.49147e-10
6.4914e-10
6.49144e-10
6.49133e-10
6.49137e-10
6.49121e-10
6.49127e-10
6.49106e-10
6.49114e-10
6.49089e-10
6.49102e-10
6.49072e-10
6.49094e-10
6.4906e-10
6.49099e-10
6.49046e-10
6.49127e-10
6.48898e-10
6.48573e-10
6.47588e-10
6.45859e-10
6.43416e-10
6.33013e-10
6.35334e-10
6.36989e-10
6.3795e-10
6.38288e-10
6.3852e-10
6.38451e-10
6.38512e-10
6.38486e-10
6.38525e-10
6.38511e-10
6.38543e-10
6.38535e-10
6.38561e-10
6.38556e-10
6.38576e-10
6.38572e-10
6.38589e-10
6.38585e-10
6.38596e-10
6.38593e-10
6.386e-10
6.38598e-10
6.38601e-10
6.386e-10
6.386e-10
6.38601e-10
6.38598e-10
6.386e-10
6.38593e-10
6.38596e-10
6.38585e-10
6.38589e-10
6.38572e-10
6.38577e-10
6.38556e-10
6.38561e-10
6.38535e-10
6.38543e-10
6.38511e-10
6.38525e-10
6.38486e-10
6.38512e-10
6.38451e-10
6.3852e-10
6.38288e-10
6.37949e-10
6.36989e-10
6.35334e-10
6.33013e-10
6.2337e-10
6.25578e-10
6.27164e-10
6.28106e-10
6.28462e-10
6.287e-10
6.2864e-10
6.2871e-10
6.28699e-10
6.28743e-10
6.28738e-10
6.28772e-10
6.28769e-10
6.28796e-10
6.28794e-10
6.28815e-10
6.28813e-10
6.28829e-10
6.28826e-10
6.28837e-10
6.28835e-10
6.28841e-10
6.2884e-10
6.28843e-10
6.28842e-10
6.28842e-10
6.28843e-10
6.2884e-10
6.28841e-10
6.28835e-10
6.28837e-10
6.28827e-10
6.28829e-10
6.28813e-10
6.28815e-10
6.28794e-10
6.28796e-10
6.28769e-10
6.28772e-10
6.28738e-10
6.28743e-10
6.28699e-10
6.2871e-10
6.2864e-10
6.28699e-10
6.28462e-10
6.28105e-10
6.27163e-10
6.25577e-10
6.2337e-10
6.14774e-10
6.16883e-10
6.18413e-10
6.19341e-10
6.19717e-10
6.19962e-10
6.1991e-10
6.1999e-10
6.19993e-10
6.20043e-10
6.20045e-10
6.20083e-10
6.20084e-10
6.20113e-10
6.20113e-10
6.20135e-10
6.20134e-10
6.2015e-10
6.20149e-10
6.2016e-10
6.20158e-10
6.20164e-10
6.20163e-10
6.20166e-10
6.20166e-10
6.20166e-10
6.20166e-10
6.20163e-10
6.20164e-10
6.20158e-10
6.2016e-10
6.20149e-10
6.2015e-10
6.20134e-10
6.20135e-10
6.20113e-10
6.20113e-10
6.20084e-10
6.20083e-10
6.20046e-10
6.20043e-10
6.19993e-10
6.1999e-10
6.1991e-10
6.19961e-10
6.19716e-10
6.1934e-10
6.18412e-10
6.16882e-10
6.14773e-10
6.06916e-10
6.0893e-10
6.10418e-10
6.11333e-10
6.11733e-10
6.11989e-10
6.11943e-10
6.12028e-10
6.12034e-10
6.12085e-10
6.12089e-10
6.12126e-10
6.1213e-10
6.12158e-10
6.1216e-10
6.12181e-10
6.12181e-10
6.12197e-10
6.12196e-10
6.12207e-10
6.12206e-10
6.12212e-10
6.12211e-10
6.12214e-10
6.12213e-10
6.12213e-10
6.12214e-10
6.12211e-10
6.12212e-10
6.12206e-10
6.12207e-10
6.12196e-10
6.12197e-10
6.12181e-10
6.12181e-10
6.1216e-10
6.12158e-10
6.1213e-10
6.12127e-10
6.12089e-10
6.12084e-10
6.12034e-10
6.12027e-10
6.11942e-10
6.11988e-10
6.11733e-10
6.11332e-10
6.10417e-10
6.0893e-10
6.06915e-10
5.99583e-10
6.01512e-10
6.02955e-10
6.0386e-10
6.04281e-10
6.04547e-10
6.045e-10
6.04595e-10
6.04615e-10
6.04671e-10
6.04683e-10
6.04723e-10
6.04731e-10
6.0476e-10
6.04764e-10
6.04786e-10
6.04788e-10
6.04804e-10
6.04805e-10
6.04815e-10
6.04814e-10
6.0482e-10
6.0482e-10
6.04823e-10
6.04823e-10
6.04823e-10
6.04823e-10
6.0482e-10
6.0482e-10
6.04814e-10
6.04815e-10
6.04805e-10
6.04804e-10
6.04788e-10
6.04786e-10
6.04764e-10
6.0476e-10
6.04731e-10
6.04723e-10
6.04683e-10
6.0467e-10
6.04615e-10
6.04595e-10
6.04499e-10
6.04546e-10
6.04281e-10
6.03859e-10
6.02954e-10
6.01511e-10
5.99583e-10
5.92971e-10
5.94808e-10
5.96227e-10
5.97126e-10
5.97585e-10
5.97868e-10
5.98044e-10
5.98154e-10
5.98189e-10
5.98252e-10
5.98273e-10
5.98317e-10
5.9833e-10
5.98361e-10
5.98369e-10
5.98391e-10
5.98395e-10
5.98411e-10
5.98413e-10
5.98423e-10
5.98423e-10
5.98429e-10
5.98429e-10
5.98432e-10
5.98432e-10
5.98432e-10
5.98432e-10
5.98429e-10
5.98429e-10
5.98423e-10
5.98423e-10
5.98413e-10
5.98411e-10
5.98395e-10
5.98391e-10
5.98369e-10
5.98361e-10
5.9833e-10
5.98317e-10
5.98273e-10
5.98252e-10
5.98189e-10
5.98153e-10
5.98043e-10
5.97867e-10
5.97584e-10
5.97125e-10
5.96226e-10
5.94808e-10
5.9297e-10
5.87305e-10
5.89063e-10
5.90469e-10
5.91368e-10
5.91866e-10
5.92167e-10
5.9236e-10
5.92486e-10
5.92538e-10
5.92609e-10
5.92639e-10
5.92687e-10
5.92705e-10
5.92738e-10
5.92749e-10
5.92772e-10
5.92779e-10
5.92795e-10
5.92798e-10
5.92808e-10
5.92809e-10
5.92815e-10
5.92815e-10
5.92818e-10
5.92818e-10
5.92818e-10
5.92818e-10
5.92815e-10
5.92815e-10
5.92809e-10
5.92808e-10
5.92798e-10
5.92795e-10
5.92779e-10
5.92772e-10
5.92749e-10
5.92738e-10
5.92705e-10
5.92687e-10
5.92639e-10
5.92608e-10
5.92537e-10
5.92485e-10
5.92359e-10
5.92167e-10
5.91866e-10
5.91367e-10
5.90468e-10
5.89063e-10
5.87304e-10
5.82362e-10
5.84069e-10
5.85452e-10
5.86352e-10
5.86879e-10
5.87193e-10
5.87399e-10
5.87537e-10
5.87602e-10
5.87679e-10
5.87718e-10
5.87768e-10
5.87792e-10
5.87826e-10
5.8784e-10
5.87864e-10
5.87872e-10
5.87888e-10
5.87892e-10
5.87902e-10
5.87904e-10
5.87909e-10
5.8791e-10
5.87913e-10
5.87913e-10
5.87913e-10
5.87913e-10
5.8791e-10
5.87909e-10
5.87904e-10
5.87902e-10
5.87892e-10
5.87888e-10
5.87872e-10
5.87864e-10
5.8784e-10
5.87826e-10
5.87792e-10
5.87768e-10
5.87717e-10
5.87679e-10
5.87601e-10
5.87536e-10
5.87398e-10
5.87192e-10
5.86879e-10
5.8635e-10
5.85451e-10
5.84069e-10
5.82362e-10
5.78215e-10
5.7986e-10
5.81242e-10
5.82154e-10
5.82733e-10
5.83068e-10
5.83296e-10
5.83453e-10
5.83535e-10
5.83623e-10
5.83671e-10
5.83727e-10
5.83756e-10
5.83793e-10
5.83811e-10
5.83835e-10
5.83845e-10
5.83862e-10
5.83867e-10
5.83877e-10
5.8388e-10
5.83885e-10
5.83886e-10
5.83889e-10
5.83889e-10
5.83889e-10
5.83889e-10
5.83886e-10
5.83885e-10
5.83879e-10
5.83877e-10
5.83867e-10
5.83861e-10
5.83845e-10
5.83835e-10
5.8381e-10
5.83793e-10
5.83756e-10
5.83726e-10
5.83671e-10
5.83622e-10
5.83535e-10
5.83452e-10
5.83295e-10
5.83067e-10
5.82732e-10
5.82153e-10
5.81241e-10
5.7986e-10
5.78214e-10
5.74854e-10
5.76448e-10
5.77834e-10
5.78765e-10
5.79403e-10
5.79761e-10
5.80016e-10
5.80191e-10
5.80293e-10
5.8039e-10
5.80449e-10
5.8051e-10
5.80546e-10
5.80586e-10
5.80607e-10
5.80633e-10
5.80645e-10
5.80662e-10
5.80669e-10
5.80679e-10
5.80682e-10
5.80688e-10
5.80689e-10
5.80692e-10
5.80692e-10
5.80692e-10
5.80692e-10
5.80689e-10
5.80688e-10
5.80682e-10
5.80679e-10
5.80669e-10
5.80662e-10
5.80645e-10
5.80632e-10
5.80607e-10
5.80585e-10
5.80546e-10
5.8051e-10
5.80449e-10
5.8039e-10
5.80292e-10
5.8019e-10
5.80014e-10
5.7976e-10
5.79402e-10
5.78764e-10
5.77833e-10
5.76447e-10
5.74854e-10
5.78324e-10
5.78334e-10
5.78338e-10
5.78343e-10
5.78345e-10
5.78348e-10
5.78349e-10
5.78349e-10
5.78348e-10
5.78345e-10
5.78343e-10
5.78338e-10
5.78334e-10
5.78324e-10
5.78315e-10
5.78298e-10
5.78283e-10
5.78256e-10
5.7823e-10
5.78188e-10
5.78146e-10
5.78079e-10
5.78008e-10
5.77899e-10
5.77777e-10
5.77581e-10
5.77296e-10
5.76914e-10
5.76209e-10
5.75255e-10
5.73852e-10
5.72304e-10
5.76883e-10
5.76877e-10
5.76872e-10
5.76862e-10
5.76852e-10
5.76835e-10
5.76816e-10
5.76789e-10
5.76758e-10
5.76713e-10
5.76664e-10
5.76591e-10
5.76508e-10
5.76387e-10
5.76244e-10
5.76024e-10
5.75707e-10
5.75297e-10
5.7452e-10
5.73536e-10
5.72103e-10
5.70592e-10
5.75925e-10
5.7579e-10
5.75625e-10
5.75381e-10
5.75027e-10
5.74585e-10
5.7373e-10
5.7271e-10
5.71232e-10
5.69753e-10
)
;

boundaryField
{
    fuel
    {
        type            fixedValue;
        value           nonuniform 0();
    }
    wall
    {
        type            zeroGradient;
    }
    outlet
    {
        type            zeroGradient;
    }
    frontAndBack
    {
        type            empty;
    }
    procBoundary0to1
    {
        type            processor;
        value           nonuniform List<scalar> 
50
(
1.54878e-09
1.5577e-09
1.5658e-09
1.56982e-09
1.57074e-09
1.5715e-09
1.57085e-09
1.57107e-09
1.57057e-09
1.57074e-09
1.57046e-09
1.5706e-09
1.57042e-09
1.57052e-09
1.57041e-09
1.57049e-09
1.57041e-09
1.57048e-09
1.57043e-09
1.57047e-09
1.57044e-09
1.57046e-09
1.57044e-09
1.57045e-09
1.57045e-09
1.57045e-09
1.57045e-09
1.57044e-09
1.57046e-09
1.57044e-09
1.57047e-09
1.57043e-09
1.57048e-09
1.57041e-09
1.57049e-09
1.57041e-09
1.57053e-09
1.57042e-09
1.5706e-09
1.57046e-09
1.57074e-09
1.57057e-09
1.57107e-09
1.57085e-09
1.5715e-09
1.57074e-09
1.56982e-09
1.5658e-09
1.5577e-09
1.54878e-09
)
;
    }
    procBoundary0to2
    {
        type            processor;
        value           nonuniform List<scalar> 
53
(
5.72304e-10
5.73853e-10
5.75256e-10
5.76211e-10
5.76915e-10
5.77297e-10
5.77582e-10
5.77778e-10
5.779e-10
5.78009e-10
5.78079e-10
5.78145e-10
5.78188e-10
5.7823e-10
5.78256e-10
5.78282e-10
5.78298e-10
5.78315e-10
5.78315e-10
5.76862e-10
5.76872e-10
5.76877e-10
5.76882e-10
5.76885e-10
5.76887e-10
5.76888e-10
5.76888e-10
5.76887e-10
5.76885e-10
5.76885e-10
5.76341e-10
5.76336e-10
5.7633e-10
5.76319e-10
5.76307e-10
5.76289e-10
5.76269e-10
5.76239e-10
5.76205e-10
5.76156e-10
5.76099e-10
5.76019e-10
5.76019e-10
5.76298e-10
5.76148e-10
5.7596e-10
5.7569e-10
5.75295e-10
5.74817e-10
5.73878e-10
5.72815e-10
5.71279e-10
5.69822e-10
)
;
    }
}


// ************************************************************************* //
