/*--------------------------------*- C++ -*----------------------------------*\
| =========                 |                                                 |
| \\      /  F ield         | OpenFOAM: The Open Source CFD Toolbox           |
|  \\    /   O peration     | Version:  dev                                   |
|   \\  /    A nd           | Web:      www.OpenFOAM.org                      |
|    \\/     M anipulation  |                                                 |
\*---------------------------------------------------------------------------*/
FoamFile
{
    version     2.0;
    format      ascii;
    class       volScalarField;
    location    "0.07";
    object      A2C2HA*;
}
// * * * * * * * * * * * * * * * * * * * * * * * * * * * * * * * * * * * * * //

dimensions      [0 0 0 0 0 0 0];

internalField   nonuniform List<scalar> 
25
(
2.9542e-15
2.53766e-15
2.10917e-15
1.74804e-15
1.44203e-15
1.18585e-15
9.74955e-16
8.01417e-16
6.55292e-16
5.34599e-16
4.30486e-16
3.43889e-16
2.69945e-16
2.08921e-16
1.59508e-16
1.20337e-16
8.99455e-17
6.68578e-17
4.96732e-17
3.71385e-17
2.81884e-17
2.19581e-17
1.77744e-17
1.51332e-17
1.36995e-17
)
;

boundaryField
{
    wall
    {
        type            zeroGradient;
    }
    fuel
    {
        type            fixedValue;
        value           uniform 0;
    }
    outlet
    {
        type            inletOutlet;
        inletValue      nonuniform 0();
        value           nonuniform 0();
    }
    procBoundary0to1
    {
        type            processor;
        value           uniform 1.31769e-17;
    }
}


// ************************************************************************* //
