/*--------------------------------*- C++ -*----------------------------------*\
| =========                 |                                                 |
| \\      /  F ield         | OpenFOAM: The Open Source CFD Toolbox           |
|  \\    /   O peration     | Version:  dev                                   |
|   \\  /    A nd           | Web:      www.OpenFOAM.org                      |
|    \\/     M anipulation  |                                                 |
\*---------------------------------------------------------------------------*/
FoamFile
{
    version     2.0;
    format      ascii;
    class       volScalarField;
    location    "0.07";
    object      A2C2HB*;
}
// * * * * * * * * * * * * * * * * * * * * * * * * * * * * * * * * * * * * * //

dimensions      [0 0 0 0 0 0 0];

internalField   nonuniform List<scalar> 
25
(
2.59486e-15
2.32973e-15
1.61789e-15
1.09354e-15
7.47144e-16
5.19554e-16
3.69601e-16
2.69483e-16
2.00062e-16
1.51672e-16
1.15376e-16
8.82379e-17
6.68103e-17
5.00805e-17
3.70831e-17
2.70996e-17
1.95546e-17
1.39614e-17
9.9035e-18
7.02967e-18
5.05205e-18
3.74255e-18
2.92685e-18
2.47666e-18
2.30474e-18
)
;

boundaryField
{
    wall
    {
        type            zeroGradient;
    }
    fuel
    {
        type            fixedValue;
        value           uniform 0;
    }
    outlet
    {
        type            inletOutlet;
        inletValue      nonuniform 0();
        value           nonuniform 0();
    }
    procBoundary0to1
    {
        type            processor;
        value           uniform 2.34669e-18;
    }
}


// ************************************************************************* //
