/*--------------------------------*- C++ -*----------------------------------*\
| =========                 |                                                 |
| \\      /  F ield         | OpenFOAM: The Open Source CFD Toolbox           |
|  \\    /   O peration     | Version:  dev                                   |
|   \\  /    A nd           | Web:      www.OpenFOAM.org                      |
|    \\/     M anipulation  |                                                 |
\*---------------------------------------------------------------------------*/
FoamFile
{
    version     2.0;
    format      ascii;
    class       volScalarField;
    location    "0.07";
    object      AC3H4;
}
// * * * * * * * * * * * * * * * * * * * * * * * * * * * * * * * * * * * * * //

dimensions      [0 0 0 0 0 0 0];

internalField   nonuniform List<scalar> 
25
(
7.05188e-08
1.02451e-07
9.11867e-08
6.82897e-08
4.6186e-08
2.89191e-08
1.70444e-08
9.58156e-09
5.14423e-09
2.70689e-09
1.37589e-09
6.93658e-10
3.4108e-10
1.65238e-10
7.93705e-11
3.79211e-11
1.80857e-11
8.64963e-12
4.17407e-12
2.05045e-12
1.03806e-12
5.50422e-13
3.11603e-13
1.92669e-13
1.36148e-13
)
;

boundaryField
{
    wall
    {
        type            zeroGradient;
    }
    fuel
    {
        type            fixedValue;
        value           uniform 0;
    }
    outlet
    {
        type            inletOutlet;
        inletValue      nonuniform 0();
        value           nonuniform 0();
    }
    procBoundary0to1
    {
        type            processor;
        value           uniform 1.00472e-13;
    }
}


// ************************************************************************* //
