/*--------------------------------*- C++ -*----------------------------------*\
| =========                 |                                                 |
| \\      /  F ield         | OpenFOAM: The Open Source CFD Toolbox           |
|  \\    /   O peration     | Version:  dev                                   |
|   \\  /    A nd           | Web:      www.OpenFOAM.org                      |
|    \\/     M anipulation  |                                                 |
\*---------------------------------------------------------------------------*/
FoamFile
{
    version     2.0;
    format      ascii;
    class       volScalarField;
    location    "0.07";
    object      C;
}
// * * * * * * * * * * * * * * * * * * * * * * * * * * * * * * * * * * * * * //

dimensions      [0 0 0 0 0 0 0];

internalField   nonuniform List<scalar> 
2014
(
5.37325e-09
5.40533e-09
5.43876e-09
5.45694e-09
5.46517e-09
5.4693e-09
5.46905e-09
5.46919e-09
5.4679e-09
5.46757e-09
5.46662e-09
5.46641e-09
5.46579e-09
5.46569e-09
5.46531e-09
5.46528e-09
5.46505e-09
5.46507e-09
5.46493e-09
5.46495e-09
5.46486e-09
5.46488e-09
5.46482e-09
5.46483e-09
5.46482e-09
5.46482e-09
5.46483e-09
5.46482e-09
5.46488e-09
5.46486e-09
5.46495e-09
5.46493e-09
5.46507e-09
5.46505e-09
5.46528e-09
5.46531e-09
5.46569e-09
5.46579e-09
5.4664e-09
5.46662e-09
5.46757e-09
5.46789e-09
5.46919e-09
5.46905e-09
5.4693e-09
5.46517e-09
5.45693e-09
5.43875e-09
5.40533e-09
5.37324e-09
5.26672e-09
5.29774e-09
5.32984e-09
5.34723e-09
5.35509e-09
5.35899e-09
5.35866e-09
5.35871e-09
5.3574e-09
5.35703e-09
5.35607e-09
5.35582e-09
5.35521e-09
5.35508e-09
5.35471e-09
5.35467e-09
5.35444e-09
5.35446e-09
5.35432e-09
5.35433e-09
5.35424e-09
5.35425e-09
5.3542e-09
5.35421e-09
5.3542e-09
5.3542e-09
5.35421e-09
5.3542e-09
5.35425e-09
5.35424e-09
5.35433e-09
5.35431e-09
5.35445e-09
5.35444e-09
5.35467e-09
5.35471e-09
5.35508e-09
5.35521e-09
5.35582e-09
5.35607e-09
5.35703e-09
5.3574e-09
5.35871e-09
5.35866e-09
5.35899e-09
5.35508e-09
5.34722e-09
5.32984e-09
5.29774e-09
5.26672e-09
5.1639e-09
5.19398e-09
5.22476e-09
5.24138e-09
5.24887e-09
5.25254e-09
5.25213e-09
5.25209e-09
5.25076e-09
5.25034e-09
5.24936e-09
5.24909e-09
5.24847e-09
5.24833e-09
5.24795e-09
5.24791e-09
5.24767e-09
5.24768e-09
5.24754e-09
5.24756e-09
5.24747e-09
5.24748e-09
5.24743e-09
5.24744e-09
5.24742e-09
5.24742e-09
5.24743e-09
5.24743e-09
5.24748e-09
5.24747e-09
5.24756e-09
5.24754e-09
5.24768e-09
5.24767e-09
5.24791e-09
5.24795e-09
5.24833e-09
5.24847e-09
5.24909e-09
5.24937e-09
5.25033e-09
5.25075e-09
5.25209e-09
5.25212e-09
5.25254e-09
5.24886e-09
5.24137e-09
5.22475e-09
5.19398e-09
5.16389e-09
5.06405e-09
5.09333e-09
5.12276e-09
5.13867e-09
5.14577e-09
5.14922e-09
5.14871e-09
5.14858e-09
5.14722e-09
5.14676e-09
5.14577e-09
5.14547e-09
5.14484e-09
5.14469e-09
5.14431e-09
5.14425e-09
5.14402e-09
5.14402e-09
5.14388e-09
5.14389e-09
5.14381e-09
5.14381e-09
5.14376e-09
5.14377e-09
5.14376e-09
5.14376e-09
5.14377e-09
5.14376e-09
5.14381e-09
5.14381e-09
5.14389e-09
5.14388e-09
5.14402e-09
5.14402e-09
5.14425e-09
5.14431e-09
5.14469e-09
5.14484e-09
5.14547e-09
5.14577e-09
5.14675e-09
5.14722e-09
5.14858e-09
5.14871e-09
5.14921e-09
5.14577e-09
5.13866e-09
5.12275e-09
5.09332e-09
5.06405e-09
4.96661e-09
4.9951e-09
5.02333e-09
5.03848e-09
5.04519e-09
5.04841e-09
5.0478e-09
5.04759e-09
5.0462e-09
5.04568e-09
5.04468e-09
5.04436e-09
5.04372e-09
5.04355e-09
5.04317e-09
5.0431e-09
5.04287e-09
5.04287e-09
5.04273e-09
5.04274e-09
5.04265e-09
5.04265e-09
5.0426e-09
5.04261e-09
5.04259e-09
5.04259e-09
5.04261e-09
5.0426e-09
5.04265e-09
5.04265e-09
5.04273e-09
5.04273e-09
5.04287e-09
5.04287e-09
5.0431e-09
5.04317e-09
5.04355e-09
5.04372e-09
5.04435e-09
5.04468e-09
5.04568e-09
5.0462e-09
5.04758e-09
5.0478e-09
5.04841e-09
5.04519e-09
5.03848e-09
5.02332e-09
4.99509e-09
4.96661e-09
4.87111e-09
4.89887e-09
4.92591e-09
4.94033e-09
4.94663e-09
4.94963e-09
4.94891e-09
4.9486e-09
4.94718e-09
4.94662e-09
4.9456e-09
4.94525e-09
4.94461e-09
4.94443e-09
4.94403e-09
4.94396e-09
4.94373e-09
4.94372e-09
4.94358e-09
4.94358e-09
4.9435e-09
4.9435e-09
4.94345e-09
4.94346e-09
4.94344e-09
4.94344e-09
4.94346e-09
4.94345e-09
4.9435e-09
4.94349e-09
4.94358e-09
4.94358e-09
4.94372e-09
4.94372e-09
4.94396e-09
4.94403e-09
4.94442e-09
4.94461e-09
4.94525e-09
4.9456e-09
4.94662e-09
4.94718e-09
4.9486e-09
4.94891e-09
4.94962e-09
4.94663e-09
4.94032e-09
4.9259e-09
4.89887e-09
4.87111e-09
4.77715e-09
4.80423e-09
4.83007e-09
4.84378e-09
4.84968e-09
4.85245e-09
4.85161e-09
4.85122e-09
4.84976e-09
4.84915e-09
4.84812e-09
4.84774e-09
4.84708e-09
4.84689e-09
4.84649e-09
4.84642e-09
4.84617e-09
4.84616e-09
4.84602e-09
4.84603e-09
4.84594e-09
4.84594e-09
4.84589e-09
4.84589e-09
4.84588e-09
4.84588e-09
4.84589e-09
4.84589e-09
4.84594e-09
4.84594e-09
4.84602e-09
4.84602e-09
4.84616e-09
4.84617e-09
4.84641e-09
4.84649e-09
4.84689e-09
4.84708e-09
4.84774e-09
4.84812e-09
4.84915e-09
4.84975e-09
4.85122e-09
4.85161e-09
4.85244e-09
4.84968e-09
4.84378e-09
4.83006e-09
4.80422e-09
4.77714e-09
4.6844e-09
4.71083e-09
4.73548e-09
4.7485e-09
4.75399e-09
4.75653e-09
4.75557e-09
4.75509e-09
4.75358e-09
4.75293e-09
4.75188e-09
4.75147e-09
4.75081e-09
4.7506e-09
4.7502e-09
4.75011e-09
4.74987e-09
4.74986e-09
4.74971e-09
4.74971e-09
4.74962e-09
4.74963e-09
4.74957e-09
4.74958e-09
4.74957e-09
4.74957e-09
4.74958e-09
4.74957e-09
4.74962e-09
4.74962e-09
4.74971e-09
4.74971e-09
4.74985e-09
4.74987e-09
4.75011e-09
4.7502e-09
4.7506e-09
4.75081e-09
4.75147e-09
4.75188e-09
4.75293e-09
4.75358e-09
4.75508e-09
4.75557e-09
4.75652e-09
4.75399e-09
4.7485e-09
4.73547e-09
4.71082e-09
4.6844e-09
4.59259e-09
4.61837e-09
4.64184e-09
4.6542e-09
4.65928e-09
4.66157e-09
4.66049e-09
4.65991e-09
4.65837e-09
4.65767e-09
4.6566e-09
4.65617e-09
4.65549e-09
4.65527e-09
4.65486e-09
4.65477e-09
4.65453e-09
4.65451e-09
4.65436e-09
4.65436e-09
4.65427e-09
4.65427e-09
4.65422e-09
4.65422e-09
4.65421e-09
4.65421e-09
4.65422e-09
4.65422e-09
4.65427e-09
4.65427e-09
4.65436e-09
4.65436e-09
4.6545e-09
4.65452e-09
4.65477e-09
4.65486e-09
4.65527e-09
4.65549e-09
4.65617e-09
4.6566e-09
4.65767e-09
4.65836e-09
4.65991e-09
4.66049e-09
4.66157e-09
4.65927e-09
4.65419e-09
4.64183e-09
4.61837e-09
4.59259e-09
4.50149e-09
4.52662e-09
4.54892e-09
4.56063e-09
4.56529e-09
4.56734e-09
4.56613e-09
4.56546e-09
4.56387e-09
4.56313e-09
4.56203e-09
4.56158e-09
4.56089e-09
4.56066e-09
4.56024e-09
4.56015e-09
4.5599e-09
4.55987e-09
4.55973e-09
4.55972e-09
4.55963e-09
4.55963e-09
4.55958e-09
4.55958e-09
4.55957e-09
4.55957e-09
4.55958e-09
4.55958e-09
4.55963e-09
4.55963e-09
4.55972e-09
4.55972e-09
4.55987e-09
4.55989e-09
4.56014e-09
4.56024e-09
4.56066e-09
4.56089e-09
4.56158e-09
4.56203e-09
4.56313e-09
4.56387e-09
4.56546e-09
4.56613e-09
4.56734e-09
4.56529e-09
4.56062e-09
4.54891e-09
4.52661e-09
4.50149e-09
4.4109e-09
4.43536e-09
4.45651e-09
4.46758e-09
4.47183e-09
4.47363e-09
4.47228e-09
4.47152e-09
4.46988e-09
4.4691e-09
4.46798e-09
4.4675e-09
4.4668e-09
4.46656e-09
4.46614e-09
4.46603e-09
4.46578e-09
4.46575e-09
4.4656e-09
4.46559e-09
4.4655e-09
4.4655e-09
4.46545e-09
4.46545e-09
4.46544e-09
4.46544e-09
4.46545e-09
4.46545e-09
4.4655e-09
4.4655e-09
4.46559e-09
4.4656e-09
4.46575e-09
4.46577e-09
4.46603e-09
4.46613e-09
4.46655e-09
4.4668e-09
4.4675e-09
4.46798e-09
4.46909e-09
4.46988e-09
4.47151e-09
4.47228e-09
4.47363e-09
4.47182e-09
4.46757e-09
4.4565e-09
4.43536e-09
4.4109e-09
4.32066e-09
4.34442e-09
4.36443e-09
4.37488e-09
4.37871e-09
4.38027e-09
4.37878e-09
4.37792e-09
4.37623e-09
4.3754e-09
4.37426e-09
4.37376e-09
4.37305e-09
4.37279e-09
4.37236e-09
4.37225e-09
4.37199e-09
4.37196e-09
4.37181e-09
4.3718e-09
4.37171e-09
4.37171e-09
4.37166e-09
4.37166e-09
4.37164e-09
4.37164e-09
4.37166e-09
4.37166e-09
4.37171e-09
4.37171e-09
4.3718e-09
4.37181e-09
4.37196e-09
4.37199e-09
4.37225e-09
4.37236e-09
4.37279e-09
4.37305e-09
4.37376e-09
4.37426e-09
4.3754e-09
4.37623e-09
4.37791e-09
4.37877e-09
4.38026e-09
4.3787e-09
4.37487e-09
4.36442e-09
4.34441e-09
4.32065e-09
4.23063e-09
4.25364e-09
4.27254e-09
4.28238e-09
4.28579e-09
4.28709e-09
4.28546e-09
4.2845e-09
4.28277e-09
4.28189e-09
4.28073e-09
4.2802e-09
4.27948e-09
4.27921e-09
4.27878e-09
4.27866e-09
4.2784e-09
4.27836e-09
4.27821e-09
4.2782e-09
4.2781e-09
4.2781e-09
4.27805e-09
4.27805e-09
4.27804e-09
4.27804e-09
4.27805e-09
4.27805e-09
4.2781e-09
4.2781e-09
4.2782e-09
4.27821e-09
4.27836e-09
4.2784e-09
4.27866e-09
4.27878e-09
4.27921e-09
4.27948e-09
4.2802e-09
4.28073e-09
4.28189e-09
4.28276e-09
4.2845e-09
4.28545e-09
4.28709e-09
4.28579e-09
4.28237e-09
4.27253e-09
4.25363e-09
4.23062e-09
4.14067e-09
4.1629e-09
4.18071e-09
4.18996e-09
4.19294e-09
4.19399e-09
4.19221e-09
4.19115e-09
4.18936e-09
4.18845e-09
4.18726e-09
4.18671e-09
4.18598e-09
4.18569e-09
4.18525e-09
4.18513e-09
4.18486e-09
4.18482e-09
4.18467e-09
4.18466e-09
4.18456e-09
4.18456e-09
4.18451e-09
4.18451e-09
4.18449e-09
4.18449e-09
4.18451e-09
4.18451e-09
4.18456e-09
4.18456e-09
4.18466e-09
4.18467e-09
4.18482e-09
4.18486e-09
4.18513e-09
4.18525e-09
4.18569e-09
4.18598e-09
4.18671e-09
4.18726e-09
4.18845e-09
4.18936e-09
4.19115e-09
4.1922e-09
4.19398e-09
4.19293e-09
4.18995e-09
4.1807e-09
4.16289e-09
4.14066e-09
4.05068e-09
4.07209e-09
4.08884e-09
4.0975e-09
4.10005e-09
4.10084e-09
4.09891e-09
4.09776e-09
4.09592e-09
4.09496e-09
4.09374e-09
4.09318e-09
4.09243e-09
4.09213e-09
4.09169e-09
4.09155e-09
4.09129e-09
4.09124e-09
4.09109e-09
4.09107e-09
4.09098e-09
4.09097e-09
4.09092e-09
4.09092e-09
4.09091e-09
4.09091e-09
4.09092e-09
4.09092e-09
4.09097e-09
4.09097e-09
4.09107e-09
4.09108e-09
4.09124e-09
4.09128e-09
4.09155e-09
4.09168e-09
4.09213e-09
4.09243e-09
4.09317e-09
4.09374e-09
4.09496e-09
4.09591e-09
4.09775e-09
4.0989e-09
4.10084e-09
4.10004e-09
4.09749e-09
4.08883e-09
4.07208e-09
4.05067e-09
3.96056e-09
3.98113e-09
3.99682e-09
4.00491e-09
4.00702e-09
4.00757e-09
4.00548e-09
4.00422e-09
4.00234e-09
4.00133e-09
4.00009e-09
3.9995e-09
3.99874e-09
3.99844e-09
3.99798e-09
3.99784e-09
3.99757e-09
3.99753e-09
3.99737e-09
3.99735e-09
3.99725e-09
3.99725e-09
3.9972e-09
3.9972e-09
3.99718e-09
3.99718e-09
3.9972e-09
3.9972e-09
3.99725e-09
3.99725e-09
3.99735e-09
3.99736e-09
3.99752e-09
3.99757e-09
3.99784e-09
3.99798e-09
3.99844e-09
3.99874e-09
3.9995e-09
4.00009e-09
4.00133e-09
4.00233e-09
4.00422e-09
4.00547e-09
4.00756e-09
4.00702e-09
4.0049e-09
3.99681e-09
3.98113e-09
3.96055e-09
3.87023e-09
3.88995e-09
3.90459e-09
3.91212e-09
3.91379e-09
3.91408e-09
3.91183e-09
3.91048e-09
3.90854e-09
3.90749e-09
3.90623e-09
3.90562e-09
3.90485e-09
3.90453e-09
3.90407e-09
3.90392e-09
3.90365e-09
3.9036e-09
3.90344e-09
3.90342e-09
3.90332e-09
3.90332e-09
3.90326e-09
3.90326e-09
3.90325e-09
3.90325e-09
3.90326e-09
3.90326e-09
3.90332e-09
3.90332e-09
3.90342e-09
3.90343e-09
3.9036e-09
3.90365e-09
3.90392e-09
3.90407e-09
3.90453e-09
3.90485e-09
3.90562e-09
3.90623e-09
3.90749e-09
3.90853e-09
3.91047e-09
3.91183e-09
3.91407e-09
3.91378e-09
3.91211e-09
3.90458e-09
3.88994e-09
3.87022e-09
3.77961e-09
3.79847e-09
3.81207e-09
3.81905e-09
3.82028e-09
3.82032e-09
3.81791e-09
3.81645e-09
3.81446e-09
3.81338e-09
3.81209e-09
3.81146e-09
3.81067e-09
3.81034e-09
3.80988e-09
3.80973e-09
3.80945e-09
3.80939e-09
3.80923e-09
3.80921e-09
3.80911e-09
3.80911e-09
3.80905e-09
3.80905e-09
3.80904e-09
3.80904e-09
3.80905e-09
3.80905e-09
3.80911e-09
3.80911e-09
3.80921e-09
3.80923e-09
3.80939e-09
3.80945e-09
3.80972e-09
3.80987e-09
3.81034e-09
3.81067e-09
3.81145e-09
3.81209e-09
3.81337e-09
3.81446e-09
3.81645e-09
3.8179e-09
3.82031e-09
3.82027e-09
3.81904e-09
3.81206e-09
3.79846e-09
3.7796e-09
3.68865e-09
3.70664e-09
3.71923e-09
3.72564e-09
3.72644e-09
3.72622e-09
3.72365e-09
3.7221e-09
3.72006e-09
3.71893e-09
3.71762e-09
3.71696e-09
3.71617e-09
3.71583e-09
3.71536e-09
3.7152e-09
3.71492e-09
3.71486e-09
3.71469e-09
3.71468e-09
3.71458e-09
3.71457e-09
3.71452e-09
3.71452e-09
3.7145e-09
3.7145e-09
3.71452e-09
3.71451e-09
3.71457e-09
3.71457e-09
3.71467e-09
3.71469e-09
3.71486e-09
3.71492e-09
3.7152e-09
3.71535e-09
3.71583e-09
3.71617e-09
3.71696e-09
3.71762e-09
3.71892e-09
3.72005e-09
3.72209e-09
3.72364e-09
3.72621e-09
3.72644e-09
3.72563e-09
3.71922e-09
3.70663e-09
3.68864e-09
3.59729e-09
3.6144e-09
3.62603e-09
3.63186e-09
3.63223e-09
3.63175e-09
3.62902e-09
3.62736e-09
3.62528e-09
3.6241e-09
3.62277e-09
3.6221e-09
3.62129e-09
3.62094e-09
3.62046e-09
3.6203e-09
3.62002e-09
3.61996e-09
3.61979e-09
3.61977e-09
3.61967e-09
3.61966e-09
3.61961e-09
3.61961e-09
3.61959e-09
3.61959e-09
3.61961e-09
3.61961e-09
3.61966e-09
3.61967e-09
3.61977e-09
3.61979e-09
3.61995e-09
3.62002e-09
3.6203e-09
3.62046e-09
3.62094e-09
3.62129e-09
3.6221e-09
3.62277e-09
3.6241e-09
3.62527e-09
3.62736e-09
3.62901e-09
3.63175e-09
3.63223e-09
3.63185e-09
3.62602e-09
3.6144e-09
3.59728e-09
3.5055e-09
3.52176e-09
3.5324e-09
3.53767e-09
3.53761e-09
3.53688e-09
3.53397e-09
3.53222e-09
3.53009e-09
3.52887e-09
3.52752e-09
3.52683e-09
3.52601e-09
3.52565e-09
3.52517e-09
3.525e-09
3.52471e-09
3.52465e-09
3.52448e-09
3.52446e-09
3.52436e-09
3.52435e-09
3.52429e-09
3.52429e-09
3.52428e-09
3.52428e-09
3.52429e-09
3.52429e-09
3.52435e-09
3.52435e-09
3.52446e-09
3.52448e-09
3.52465e-09
3.52471e-09
3.525e-09
3.52517e-09
3.52565e-09
3.52601e-09
3.52683e-09
3.52752e-09
3.52887e-09
3.53008e-09
3.53222e-09
3.53397e-09
3.53687e-09
3.5376e-09
3.53766e-09
3.53239e-09
3.52175e-09
3.50548e-09
3.41324e-09
3.42868e-09
3.43831e-09
3.44303e-09
3.44256e-09
3.44157e-09
3.43849e-09
3.43665e-09
3.43446e-09
3.43321e-09
3.43184e-09
3.43113e-09
3.4303e-09
3.42993e-09
3.42944e-09
3.42927e-09
3.42898e-09
3.42892e-09
3.42874e-09
3.42872e-09
3.42862e-09
3.42861e-09
3.42856e-09
3.42856e-09
3.42854e-09
3.42854e-09
3.42856e-09
3.42856e-09
3.42861e-09
3.42862e-09
3.42872e-09
3.42874e-09
3.42891e-09
3.42898e-09
3.42927e-09
3.42944e-09
3.42993e-09
3.4303e-09
3.43113e-09
3.43184e-09
3.43321e-09
3.43446e-09
3.43664e-09
3.43848e-09
3.44156e-09
3.44255e-09
3.44302e-09
3.4383e-09
3.42867e-09
3.41322e-09
3.32049e-09
3.33514e-09
3.34375e-09
3.34793e-09
3.34704e-09
3.3458e-09
3.34256e-09
3.34062e-09
3.33839e-09
3.33711e-09
3.33572e-09
3.33499e-09
3.33415e-09
3.33377e-09
3.33328e-09
3.3331e-09
3.33281e-09
3.33274e-09
3.33257e-09
3.33254e-09
3.33244e-09
3.33243e-09
3.33237e-09
3.33237e-09
3.33236e-09
3.33236e-09
3.33237e-09
3.33237e-09
3.33243e-09
3.33244e-09
3.33254e-09
3.33256e-09
3.33274e-09
3.3328e-09
3.3331e-09
3.33327e-09
3.33377e-09
3.33415e-09
3.33498e-09
3.33571e-09
3.3371e-09
3.33839e-09
3.34061e-09
3.34255e-09
3.3458e-09
3.34703e-09
3.34792e-09
3.34374e-09
3.33513e-09
3.32048e-09
3.22725e-09
3.24112e-09
3.24871e-09
3.25236e-09
3.25107e-09
3.24958e-09
3.24616e-09
3.24413e-09
3.24186e-09
3.24054e-09
3.23914e-09
3.23839e-09
3.23754e-09
3.23716e-09
3.23666e-09
3.23648e-09
3.23618e-09
3.23611e-09
3.23594e-09
3.23591e-09
3.23581e-09
3.2358e-09
3.23574e-09
3.23574e-09
3.23572e-09
3.23572e-09
3.23574e-09
3.23574e-09
3.2358e-09
3.2358e-09
3.23591e-09
3.23593e-09
3.23611e-09
3.23618e-09
3.23647e-09
3.23666e-09
3.23716e-09
3.23754e-09
3.23838e-09
3.23913e-09
3.24054e-09
3.24186e-09
3.24412e-09
3.24615e-09
3.24957e-09
3.25106e-09
3.25235e-09
3.2487e-09
3.2411e-09
3.22724e-09
3.13351e-09
3.1466e-09
3.15317e-09
3.15631e-09
3.15462e-09
3.15289e-09
3.14929e-09
3.14717e-09
3.14488e-09
3.14352e-09
3.1421e-09
3.14133e-09
3.14049e-09
3.14009e-09
3.13959e-09
3.1394e-09
3.13911e-09
3.13903e-09
3.13886e-09
3.13883e-09
3.13873e-09
3.13872e-09
3.13866e-09
3.13866e-09
3.13864e-09
3.13864e-09
3.13866e-09
3.13866e-09
3.13871e-09
3.13872e-09
3.13883e-09
3.13885e-09
3.13903e-09
3.1391e-09
3.1394e-09
3.13959e-09
3.14009e-09
3.14048e-09
3.14133e-09
3.1421e-09
3.14351e-09
3.14487e-09
3.14717e-09
3.14929e-09
3.15288e-09
3.15461e-09
3.1563e-09
3.15316e-09
3.14659e-09
3.13349e-09
3.04249e-09
3.05493e-09
3.06051e-09
3.06319e-09
3.06111e-09
3.05916e-09
3.05538e-09
3.05318e-09
3.05085e-09
3.04946e-09
3.04803e-09
3.04725e-09
3.04639e-09
3.04599e-09
3.04548e-09
3.0453e-09
3.045e-09
3.04492e-09
3.04474e-09
3.04472e-09
3.04461e-09
3.0446e-09
3.04455e-09
3.04454e-09
3.04453e-09
3.04453e-09
3.04454e-09
3.04455e-09
3.0446e-09
3.04461e-09
3.04471e-09
3.04474e-09
3.04492e-09
3.04499e-09
3.04529e-09
3.04548e-09
3.04599e-09
3.04639e-09
3.04725e-09
3.04802e-09
3.04946e-09
3.05084e-09
3.05318e-09
3.05538e-09
3.05916e-09
3.0611e-09
3.06318e-09
3.0605e-09
3.05492e-09
3.04248e-09
2.95002e-09
2.96191e-09
2.96622e-09
2.96826e-09
2.96555e-09
2.96324e-09
2.95912e-09
2.95677e-09
2.95433e-09
2.95288e-09
2.9514e-09
2.95059e-09
2.9497e-09
2.94929e-09
2.94876e-09
2.94857e-09
2.94826e-09
2.94818e-09
2.948e-09
2.94797e-09
2.94786e-09
2.94785e-09
2.9478e-09
2.94779e-09
2.94778e-09
2.94778e-09
2.94779e-09
2.9478e-09
2.94785e-09
2.94786e-09
2.94797e-09
2.948e-09
2.94818e-09
2.94826e-09
2.94857e-09
2.94876e-09
2.94928e-09
2.9497e-09
2.95058e-09
2.95139e-09
2.95287e-09
2.95433e-09
2.95676e-09
2.95911e-09
2.96324e-09
2.96554e-09
2.96825e-09
2.96621e-09
2.9619e-09
2.95001e-09
2.85522e-09
2.86637e-09
2.86969e-09
2.87123e-09
2.86815e-09
2.86562e-09
2.8613e-09
2.85887e-09
2.85641e-09
2.85492e-09
2.85343e-09
2.85261e-09
2.85172e-09
2.8513e-09
2.85077e-09
2.85058e-09
2.85027e-09
2.85019e-09
2.85e-09
2.84997e-09
2.84986e-09
2.84985e-09
2.8498e-09
2.8498e-09
2.84978e-09
2.84978e-09
2.8498e-09
2.8498e-09
2.84985e-09
2.84986e-09
2.84997e-09
2.85e-09
2.85018e-09
2.85026e-09
2.85057e-09
2.85077e-09
2.8513e-09
2.85172e-09
2.8526e-09
2.85343e-09
2.85492e-09
2.8564e-09
2.85886e-09
2.86129e-09
2.86561e-09
2.86814e-09
2.87122e-09
2.86968e-09
2.86636e-09
2.8552e-09
2.76003e-09
2.77045e-09
2.77281e-09
2.77386e-09
2.77042e-09
2.76768e-09
2.76315e-09
2.76065e-09
2.75816e-09
2.75665e-09
2.75516e-09
2.75432e-09
2.75343e-09
2.753e-09
2.75248e-09
2.75228e-09
2.75197e-09
2.75188e-09
2.7517e-09
2.75167e-09
2.75156e-09
2.75155e-09
2.7515e-09
2.75149e-09
2.75148e-09
2.75148e-09
2.75149e-09
2.75149e-09
2.75155e-09
2.75156e-09
2.75167e-09
2.7517e-09
2.75188e-09
2.75196e-09
2.75227e-09
2.75248e-09
2.753e-09
2.75343e-09
2.75432e-09
2.75515e-09
2.75665e-09
2.75816e-09
2.76064e-09
2.76314e-09
2.76767e-09
2.77041e-09
2.77385e-09
2.7728e-09
2.77043e-09
2.76002e-09
2.66452e-09
2.67418e-09
2.67563e-09
2.6762e-09
2.6724e-09
2.66947e-09
2.66472e-09
2.66215e-09
2.65966e-09
2.65812e-09
2.65662e-09
2.65578e-09
2.65489e-09
2.65445e-09
2.65393e-09
2.65373e-09
2.65342e-09
2.65333e-09
2.65315e-09
2.65312e-09
2.65301e-09
2.653e-09
2.65294e-09
2.65294e-09
2.65292e-09
2.65292e-09
2.65294e-09
2.65294e-09
2.653e-09
2.65301e-09
2.65311e-09
2.65315e-09
2.65333e-09
2.65341e-09
2.65372e-09
2.65393e-09
2.65445e-09
2.65489e-09
2.65577e-09
2.65662e-09
2.65812e-09
2.65965e-09
2.66215e-09
2.66472e-09
2.66946e-09
2.67239e-09
2.67619e-09
2.67562e-09
2.67417e-09
2.6645e-09
2.56872e-09
2.57762e-09
2.5782e-09
2.57829e-09
2.57416e-09
2.57105e-09
2.56606e-09
2.56344e-09
2.56093e-09
2.55938e-09
2.55788e-09
2.55703e-09
2.55614e-09
2.5557e-09
2.55518e-09
2.55497e-09
2.55466e-09
2.55458e-09
2.55439e-09
2.55436e-09
2.55426e-09
2.55425e-09
2.55419e-09
2.55419e-09
2.55417e-09
2.55417e-09
2.55419e-09
2.55419e-09
2.55424e-09
2.55425e-09
2.55436e-09
2.55439e-09
2.55457e-09
2.55466e-09
2.55497e-09
2.55518e-09
2.5557e-09
2.55614e-09
2.55702e-09
2.55788e-09
2.55938e-09
2.56093e-09
2.56343e-09
2.56606e-09
2.57104e-09
2.57415e-09
2.57828e-09
2.57819e-09
2.57761e-09
2.5687e-09
2.47589e-09
2.48415e-09
2.48389e-09
2.48355e-09
2.47909e-09
2.47583e-09
2.47059e-09
2.46792e-09
2.46541e-09
2.46384e-09
2.46234e-09
2.46148e-09
2.46059e-09
2.46015e-09
2.45963e-09
2.45942e-09
2.45911e-09
2.45903e-09
2.45885e-09
2.45881e-09
2.45871e-09
2.4587e-09
2.45864e-09
2.45864e-09
2.45862e-09
2.45862e-09
2.45864e-09
2.45864e-09
2.45869e-09
2.4587e-09
2.45881e-09
2.45884e-09
2.45902e-09
2.45911e-09
2.45942e-09
2.45963e-09
2.46015e-09
2.46059e-09
2.46148e-09
2.46234e-09
2.46383e-09
2.4654e-09
2.46791e-09
2.47058e-09
2.47583e-09
2.47908e-09
2.48355e-09
2.48388e-09
2.48414e-09
2.47588e-09
2.38309e-09
2.39071e-09
2.38965e-09
2.3889e-09
2.38411e-09
2.38074e-09
2.3752e-09
2.37242e-09
2.36977e-09
2.36812e-09
2.36655e-09
2.36565e-09
2.36472e-09
2.36426e-09
2.36372e-09
2.3635e-09
2.36318e-09
2.36309e-09
2.3629e-09
2.36287e-09
2.36276e-09
2.36275e-09
2.36269e-09
2.36268e-09
2.36267e-09
2.36267e-09
2.36268e-09
2.36269e-09
2.36274e-09
2.36275e-09
2.36286e-09
2.3629e-09
2.36309e-09
2.36318e-09
2.3635e-09
2.36372e-09
2.36426e-09
2.36472e-09
2.36564e-09
2.36654e-09
2.36811e-09
2.36977e-09
2.37242e-09
2.3752e-09
2.38073e-09
2.3841e-09
2.38889e-09
2.38964e-09
2.3907e-09
2.38308e-09
2.28763e-09
2.29462e-09
2.29274e-09
2.2915e-09
2.28631e-09
2.28278e-09
2.27685e-09
2.27401e-09
2.27132e-09
2.26964e-09
2.26805e-09
2.26714e-09
2.26621e-09
2.26574e-09
2.26519e-09
2.26498e-09
2.26466e-09
2.26457e-09
2.26438e-09
2.26434e-09
2.26423e-09
2.26422e-09
2.26416e-09
2.26416e-09
2.26414e-09
2.26414e-09
2.26416e-09
2.26416e-09
2.26422e-09
2.26423e-09
2.26434e-09
2.26437e-09
2.26456e-09
2.26465e-09
2.26497e-09
2.26519e-09
2.26574e-09
2.26621e-09
2.26714e-09
2.26805e-09
2.26963e-09
2.27132e-09
2.274e-09
2.27685e-09
2.28278e-09
2.2863e-09
2.2915e-09
2.29273e-09
2.29461e-09
2.28762e-09
2.19184e-09
2.19808e-09
2.19549e-09
2.19383e-09
2.18837e-09
2.18478e-09
2.18175e-09
2.1789e-09
2.17621e-09
2.17452e-09
2.17294e-09
2.17203e-09
2.1711e-09
2.17063e-09
2.17009e-09
2.16987e-09
2.16955e-09
2.16946e-09
2.16927e-09
2.16924e-09
2.16913e-09
2.16912e-09
2.16906e-09
2.16906e-09
2.16904e-09
2.16904e-09
2.16906e-09
2.16906e-09
2.16912e-09
2.16913e-09
2.16924e-09
2.16927e-09
2.16946e-09
2.16955e-09
2.16987e-09
2.17009e-09
2.17063e-09
2.1711e-09
2.17203e-09
2.17294e-09
2.17452e-09
2.17621e-09
2.17889e-09
2.18175e-09
2.18478e-09
2.18836e-09
2.19383e-09
2.19548e-09
2.19807e-09
2.19183e-09
2.09934e-09
2.10494e-09
2.10167e-09
2.09965e-09
2.09391e-09
2.09027e-09
2.08706e-09
2.0842e-09
2.08152e-09
2.07983e-09
2.07826e-09
2.07734e-09
2.07642e-09
2.07596e-09
2.07542e-09
2.0752e-09
2.07488e-09
2.07479e-09
2.07461e-09
2.07457e-09
2.07446e-09
2.07445e-09
2.0744e-09
2.07439e-09
2.07438e-09
2.07438e-09
2.07439e-09
2.0744e-09
2.07445e-09
2.07446e-09
2.07457e-09
2.0746e-09
2.07479e-09
2.07488e-09
2.0752e-09
2.07542e-09
2.07596e-09
2.07642e-09
2.07734e-09
2.07826e-09
2.07982e-09
2.08152e-09
2.08419e-09
2.08705e-09
2.09027e-09
2.0939e-09
2.09964e-09
2.10166e-09
2.10493e-09
2.09933e-09
2.00669e-09
2.01194e-09
2.00788e-09
2.00538e-09
1.99903e-09
1.99522e-09
1.99169e-09
1.98873e-09
1.986e-09
1.98425e-09
1.98266e-09
1.98172e-09
1.98078e-09
1.98031e-09
1.97976e-09
1.97954e-09
1.97922e-09
1.97912e-09
1.97893e-09
1.9789e-09
1.97879e-09
1.97878e-09
1.97872e-09
1.97872e-09
1.9787e-09
1.9787e-09
1.97872e-09
1.97872e-09
1.97878e-09
1.97879e-09
1.9789e-09
1.97893e-09
1.97912e-09
1.97921e-09
1.97954e-09
1.97976e-09
1.98031e-09
1.98079e-09
1.98172e-09
1.98266e-09
1.98425e-09
1.986e-09
1.98873e-09
1.99169e-09
1.99522e-09
1.99903e-09
2.00537e-09
2.00788e-09
2.01193e-09
2.00668e-09
1.9151e-09
1.91973e-09
1.91509e-09
1.91225e-09
1.90566e-09
1.9018e-09
1.89813e-09
1.89516e-09
1.89245e-09
1.89071e-09
1.88913e-09
1.8882e-09
1.88727e-09
1.8868e-09
1.88625e-09
1.88603e-09
1.88571e-09
1.88562e-09
1.88543e-09
1.8854e-09
1.88529e-09
1.88528e-09
1.88522e-09
1.88522e-09
1.8852e-09
1.8852e-09
1.88522e-09
1.88522e-09
1.88528e-09
1.88529e-09
1.8854e-09
1.88543e-09
1.88562e-09
1.88571e-09
1.88604e-09
1.88625e-09
1.8868e-09
1.88727e-09
1.8882e-09
1.88913e-09
1.89071e-09
1.89245e-09
1.89517e-09
1.89813e-09
1.9018e-09
1.90565e-09
1.91225e-09
1.91509e-09
1.91973e-09
1.91509e-09
1.82417e-09
1.82819e-09
1.82303e-09
1.81988e-09
1.81305e-09
1.80916e-09
1.80538e-09
1.80241e-09
1.79973e-09
1.79799e-09
1.79643e-09
1.79551e-09
1.79459e-09
1.79412e-09
1.79358e-09
1.79337e-09
1.79305e-09
1.79296e-09
1.79277e-09
1.79274e-09
1.79263e-09
1.79262e-09
1.79257e-09
1.79256e-09
1.79255e-09
1.79255e-09
1.79256e-09
1.79257e-09
1.79262e-09
1.79263e-09
1.79274e-09
1.79277e-09
1.79296e-09
1.79305e-09
1.79337e-09
1.79359e-09
1.79413e-09
1.79459e-09
1.79551e-09
1.79643e-09
1.798e-09
1.79973e-09
1.80242e-09
1.80538e-09
1.80916e-09
1.81305e-09
1.81988e-09
1.82303e-09
1.82819e-09
1.82416e-09
1.70111e-09
1.70107e-09
1.70097e-09
1.70096e-09
1.7009e-09
1.7009e-09
1.70088e-09
1.70088e-09
1.7009e-09
1.7009e-09
1.70096e-09
1.70097e-09
1.70107e-09
1.70111e-09
1.70129e-09
1.70138e-09
1.7017e-09
1.70191e-09
1.70244e-09
1.70291e-09
1.70381e-09
1.70472e-09
1.70626e-09
1.70798e-09
1.71064e-09
1.71359e-09
1.71745e-09
1.72136e-09
1.72841e-09
1.73184e-09
1.73748e-09
1.73405e-09
1.61045e-09
1.61046e-09
1.61057e-09
1.6106e-09
1.61078e-09
1.61087e-09
1.61118e-09
1.61139e-09
1.61191e-09
1.61237e-09
1.61326e-09
1.61416e-09
1.61567e-09
1.61738e-09
1.61999e-09
1.62293e-09
1.62685e-09
1.63077e-09
1.638e-09
1.64169e-09
1.64776e-09
1.64491e-09
1.5264e-09
1.52808e-09
1.53065e-09
1.53356e-09
1.53752e-09
1.54145e-09
1.54881e-09
1.55273e-09
1.55919e-09
1.55689e-09
)
;

boundaryField
{
    fuel
    {
        type            fixedValue;
        value           nonuniform 0();
    }
    wall
    {
        type            zeroGradient;
    }
    outlet
    {
        type            zeroGradient;
    }
    frontAndBack
    {
        type            empty;
    }
    procBoundary0to1
    {
        type            processor;
        value           nonuniform List<scalar> 
50
(
5.48434e-09
5.51763e-09
5.55239e-09
5.57141e-09
5.58001e-09
5.58438e-09
5.58419e-09
5.58442e-09
5.58314e-09
5.58287e-09
5.58192e-09
5.58174e-09
5.58112e-09
5.58103e-09
5.58065e-09
5.58064e-09
5.5804e-09
5.58044e-09
5.5803e-09
5.58032e-09
5.58023e-09
5.58024e-09
5.58019e-09
5.5802e-09
5.58019e-09
5.58019e-09
5.5802e-09
5.58019e-09
5.58024e-09
5.58023e-09
5.58032e-09
5.58029e-09
5.58044e-09
5.5804e-09
5.58064e-09
5.58065e-09
5.58103e-09
5.58112e-09
5.58173e-09
5.58192e-09
5.58287e-09
5.58314e-09
5.58442e-09
5.58419e-09
5.58437e-09
5.58001e-09
5.5714e-09
5.55238e-09
5.51763e-09
5.48433e-09
)
;
    }
    procBoundary0to2
    {
        type            processor;
        value           nonuniform List<scalar> 
53
(
1.73406e-09
1.73748e-09
1.73185e-09
1.72841e-09
1.72136e-09
1.71745e-09
1.71359e-09
1.71064e-09
1.70798e-09
1.70626e-09
1.70473e-09
1.70381e-09
1.70291e-09
1.70244e-09
1.70191e-09
1.7017e-09
1.70138e-09
1.70129e-09
1.70129e-09
1.6106e-09
1.61057e-09
1.61047e-09
1.61046e-09
1.6104e-09
1.6104e-09
1.61038e-09
1.61038e-09
1.6104e-09
1.6104e-09
1.6104e-09
1.52128e-09
1.52129e-09
1.52139e-09
1.52142e-09
1.5216e-09
1.52169e-09
1.52199e-09
1.5222e-09
1.52271e-09
1.52316e-09
1.52403e-09
1.52492e-09
1.52492e-09
1.43862e-09
1.44027e-09
1.44278e-09
1.44567e-09
1.44964e-09
1.45356e-09
1.46101e-09
1.46514e-09
1.47195e-09
1.47018e-09
)
;
    }
}


// ************************************************************************* //
