/*--------------------------------*- C++ -*----------------------------------*\
| =========                 |                                                 |
| \\      /  F ield         | OpenFOAM: The Open Source CFD Toolbox           |
|  \\    /   O peration     | Version:  dev                                   |
|   \\  /    A nd           | Web:      www.OpenFOAM.org                      |
|    \\/     M anipulation  |                                                 |
\*---------------------------------------------------------------------------*/
FoamFile
{
    version     2.0;
    format      ascii;
    class       volScalarField;
    location    "0.07";
    object      H2O2;
}
// * * * * * * * * * * * * * * * * * * * * * * * * * * * * * * * * * * * * * //

dimensions      [0 0 0 0 0 0 0];

internalField   nonuniform List<scalar> 
250
(
4.74962e-11
4.75993e-11
4.75008e-11
4.76695e-11
4.77527e-11
4.76959e-11
4.76931e-11
4.33417e-11
3.47022e-11
2.67864e-10
4.39903e-11
4.40992e-11
4.39962e-11
4.41741e-11
4.42654e-11
4.42233e-11
4.43953e-11
4.06377e-11
3.20969e-11
1.66119e-10
2.37173e-11
3.30734e-11
3.9166e-11
4.16408e-11
4.09765e-11
4.06788e-11
4.07435e-11
4.02665e-11
4.05977e-11
4.02393e-11
4.03263e-11
4.04403e-11
4.03333e-11
4.0519e-11
4.06169e-11
4.05887e-11
4.09213e-11
3.77386e-11
2.99187e-11
1.05111e-10
2.20859e-11
3.12135e-11
3.58508e-11
3.79578e-11
3.71907e-11
3.68895e-11
3.69553e-11
3.64654e-11
3.68104e-11
3.64354e-11
3.65288e-11
3.66468e-11
3.65367e-11
3.67278e-11
3.68302e-11
3.68143e-11
3.72866e-11
3.46449e-11
2.77162e-11
6.83481e-11
2.0948e-11
2.91961e-11
3.23649e-11
3.41418e-11
3.32987e-11
3.29993e-11
3.30664e-11
3.25709e-11
3.29251e-11
3.25389e-11
3.26371e-11
3.27575e-11
3.26456e-11
3.28389e-11
3.29436e-11
3.29375e-11
3.35233e-11
3.13761e-11
2.54416e-11
4.61406e-11
1.97825e-11
2.68231e-11
2.87591e-11
3.02403e-11
2.93524e-11
2.90623e-11
2.913e-11
2.86385e-11
2.89956e-11
2.86055e-11
2.87064e-11
2.88271e-11
2.8715e-11
2.89067e-11
2.9011e-11
2.90117e-11
2.96802e-11
2.79705e-11
2.32963e-11
3.26494e-11
1.83647e-11
2.41495e-11
2.51046e-11
2.63182e-11
2.54208e-11
2.51484e-11
2.52156e-11
2.47391e-11
2.50916e-11
2.47064e-11
2.48074e-11
2.49258e-11
2.48155e-11
2.50013e-11
2.51026e-11
2.51061e-11
2.58226e-11
2.44832e-11
2.09168e-11
2.42937e-11
1.66434e-11
2.12599e-11
2.14897e-11
2.24557e-11
2.15869e-11
2.13405e-11
2.1406e-11
2.09568e-11
2.12959e-11
2.09258e-11
2.10239e-11
2.11373e-11
2.10309e-11
2.12064e-11
2.1302e-11
2.13033e-11
2.1938e-11
2.09881e-11
1.84762e-11
1.88923e-11
1.46677e-11
1.82581e-11
1.79011e-11
1.87537e-11
1.78126e-11
1.75245e-11
1.75888e-11
1.71705e-11
1.74854e-11
1.71361e-11
1.72306e-11
1.734e-11
1.72441e-11
1.74072e-11
1.74924e-11
1.75118e-11
1.82785e-11
1.75785e-11
1.59481e-11
1.51392e-11
1.25406e-11
1.52641e-11
1.44184e-11
1.5164e-11
1.44148e-11
1.41624e-11
1.42221e-11
1.38506e-11
1.41354e-11
1.38195e-11
1.39058e-11
1.40049e-11
1.3918e-11
1.40629e-11
1.41381e-11
1.41535e-11
1.48621e-11
1.43534e-11
1.3412e-11
1.22883e-11
1.03873e-11
1.24058e-11
1.14305e-11
1.20254e-11
1.13631e-11
1.1151e-11
1.12045e-11
1.08849e-11
1.11345e-11
1.08578e-11
1.09339e-11
1.10205e-11
1.09445e-11
1.10687e-11
1.11328e-11
1.11446e-11
1.17709e-11
1.14065e-11
1.09627e-11
9.94552e-12
8.32774e-12
9.78799e-12
8.81127e-12
9.27333e-12
8.71548e-12
8.54406e-12
8.59033e-12
8.32471e-12
8.53583e-12
8.30202e-12
8.36674e-12
8.43975e-12
8.37552e-12
8.47816e-12
8.53081e-12
8.53933e-12
9.06938e-12
8.81263e-12
8.69432e-12
7.93004e-12
6.4661e-12
7.49171e-12
6.60167e-12
6.95295e-12
6.50271e-12
6.36924e-12
6.40801e-12
6.19502e-12
6.36717e-12
6.17679e-12
6.22978e-12
6.289e-12
6.23679e-12
6.31833e-12
6.36001e-12
6.36581e-12
6.79535e-12
6.61778e-12
6.68484e-12
6.1792e-12
4.51814e-12
4.56436e-12
4.52353e-12
4.58583e-12
4.61768e-12
4.62129e-12
4.95515e-12
4.83412e-12
4.98526e-12
4.68402e-12
)
;

boundaryField
{
    fuel
    {
        type            fixedValue;
        value           nonuniform 0();
    }
    wall
    {
        type            zeroGradient;
    }
    outlet
    {
        type            zeroGradient;
    }
    frontAndBack
    {
        type            empty;
    }
    procBoundary0to1
    {
        type            processor;
        value           nonuniform List<scalar> 
21
(
4.86885e-12
5.56463e-12
4.81139e-12
5.07257e-12
4.7236e-12
4.62377e-12
4.65494e-12
4.49048e-12
4.62557e-12
4.47635e-12
4.47635e-12
3.19885e-12
3.23363e-12
3.20286e-12
3.2487e-12
3.27222e-12
3.27422e-12
3.52364e-12
3.44212e-12
3.61178e-12
3.45155e-12
)
;
    }
    procBoundary0to2
    {
        type            processor;
        value           nonuniform List<scalar> 
12
(
4.74254e-11
2.7195e-11
3.43278e-11
4.22668e-11
4.51626e-11
4.46171e-11
4.43298e-11
4.4392e-11
4.3935e-11
4.42483e-11
4.39111e-11
4.39111e-11
)
;
    }
    procBoundary0to3
    {
        type            processor;
        value           nonuniform List<scalar> 10(5.08322e-11 5.09294e-11 5.08354e-11 5.09937e-11 5.10677e-11 5.09958e-11 5.10932e-11 4.6146e-11 3.83351e-11 4.45605e-10);
    }
}


// ************************************************************************* //
