/*--------------------------------*- C++ -*----------------------------------*\
| =========                 |                                                 |
| \\      /  F ield         | OpenFOAM: The Open Source CFD Toolbox           |
|  \\    /   O peration     | Version:  dev                                   |
|   \\  /    A nd           | Web:      www.OpenFOAM.org                      |
|    \\/     M anipulation  |                                                 |
\*---------------------------------------------------------------------------*/
FoamFile
{
    version     2.0;
    format      ascii;
    class       volScalarField;
    location    "0.07";
    object      i-C4H5;
}
// * * * * * * * * * * * * * * * * * * * * * * * * * * * * * * * * * * * * * //

dimensions      [0 0 0 0 0 0 0];

internalField   nonuniform List<scalar> 
2014
(
1.52321e-10
1.52926e-10
1.53507e-10
1.53809e-10
1.53924e-10
1.53991e-10
1.53973e-10
1.53982e-10
1.53957e-10
1.53959e-10
1.53942e-10
1.53944e-10
1.53934e-10
1.53936e-10
1.53929e-10
1.53932e-10
1.53927e-10
1.5393e-10
1.53927e-10
1.53928e-10
1.53927e-10
1.53928e-10
1.53927e-10
1.53927e-10
1.53927e-10
1.53927e-10
1.53927e-10
1.53927e-10
1.53928e-10
1.53927e-10
1.53928e-10
1.53927e-10
1.5393e-10
1.53927e-10
1.53932e-10
1.5393e-10
1.53936e-10
1.53934e-10
1.53944e-10
1.53942e-10
1.53959e-10
1.53957e-10
1.53982e-10
1.53973e-10
1.53991e-10
1.53924e-10
1.53809e-10
1.53507e-10
1.52926e-10
1.52321e-10
1.49407e-10
1.5e-10
1.50563e-10
1.50855e-10
1.50967e-10
1.51031e-10
1.51014e-10
1.51021e-10
1.50996e-10
1.50998e-10
1.50981e-10
1.50983e-10
1.50973e-10
1.50975e-10
1.50968e-10
1.5097e-10
1.50966e-10
1.50968e-10
1.50966e-10
1.50967e-10
1.50965e-10
1.50966e-10
1.50965e-10
1.50966e-10
1.50965e-10
1.50965e-10
1.50966e-10
1.50965e-10
1.50966e-10
1.50965e-10
1.50967e-10
1.50966e-10
1.50968e-10
1.50966e-10
1.5097e-10
1.50968e-10
1.50975e-10
1.50973e-10
1.50983e-10
1.50981e-10
1.50998e-10
1.50996e-10
1.51021e-10
1.51014e-10
1.51031e-10
1.50967e-10
1.50855e-10
1.50563e-10
1.49999e-10
1.49407e-10
1.4662e-10
1.47201e-10
1.47747e-10
1.48029e-10
1.48138e-10
1.48199e-10
1.48181e-10
1.48188e-10
1.48163e-10
1.48164e-10
1.48148e-10
1.48149e-10
1.48139e-10
1.48141e-10
1.48134e-10
1.48136e-10
1.48132e-10
1.48134e-10
1.48132e-10
1.48133e-10
1.48131e-10
1.48132e-10
1.48131e-10
1.48132e-10
1.48131e-10
1.48131e-10
1.48132e-10
1.48131e-10
1.48132e-10
1.48131e-10
1.48133e-10
1.48132e-10
1.48134e-10
1.48132e-10
1.48136e-10
1.48134e-10
1.48141e-10
1.48139e-10
1.48149e-10
1.48148e-10
1.48164e-10
1.48163e-10
1.48188e-10
1.48181e-10
1.48199e-10
1.48138e-10
1.48029e-10
1.47747e-10
1.47201e-10
1.4662e-10
1.43945e-10
1.44516e-10
1.45043e-10
1.45316e-10
1.45421e-10
1.4548e-10
1.45462e-10
1.45468e-10
1.45444e-10
1.45444e-10
1.45428e-10
1.45429e-10
1.45419e-10
1.4542e-10
1.45414e-10
1.45416e-10
1.45412e-10
1.45413e-10
1.45411e-10
1.45412e-10
1.45411e-10
1.45411e-10
1.4541e-10
1.45411e-10
1.4541e-10
1.4541e-10
1.45411e-10
1.4541e-10
1.45411e-10
1.45411e-10
1.45412e-10
1.45411e-10
1.45413e-10
1.45412e-10
1.45416e-10
1.45414e-10
1.4542e-10
1.45419e-10
1.45429e-10
1.45428e-10
1.45444e-10
1.45444e-10
1.45468e-10
1.45462e-10
1.4548e-10
1.45421e-10
1.45316e-10
1.45043e-10
1.44516e-10
1.43945e-10
1.4137e-10
1.41932e-10
1.42442e-10
1.42705e-10
1.42806e-10
1.42863e-10
1.42845e-10
1.42849e-10
1.42825e-10
1.42825e-10
1.42809e-10
1.42809e-10
1.428e-10
1.42801e-10
1.42795e-10
1.42796e-10
1.42792e-10
1.42794e-10
1.42792e-10
1.42793e-10
1.42791e-10
1.42792e-10
1.42791e-10
1.42791e-10
1.42791e-10
1.42791e-10
1.42791e-10
1.42791e-10
1.42792e-10
1.42791e-10
1.42793e-10
1.42792e-10
1.42794e-10
1.42792e-10
1.42796e-10
1.42795e-10
1.42801e-10
1.428e-10
1.42809e-10
1.42809e-10
1.42825e-10
1.42825e-10
1.42849e-10
1.42845e-10
1.42863e-10
1.42806e-10
1.42705e-10
1.42442e-10
1.41932e-10
1.4137e-10
1.38887e-10
1.3944e-10
1.39933e-10
1.40186e-10
1.40283e-10
1.40338e-10
1.40319e-10
1.40323e-10
1.40299e-10
1.40297e-10
1.40282e-10
1.40282e-10
1.40272e-10
1.40273e-10
1.40267e-10
1.40269e-10
1.40265e-10
1.40266e-10
1.40264e-10
1.40265e-10
1.40263e-10
1.40264e-10
1.40263e-10
1.40264e-10
1.40263e-10
1.40263e-10
1.40264e-10
1.40263e-10
1.40264e-10
1.40263e-10
1.40265e-10
1.40264e-10
1.40266e-10
1.40265e-10
1.40269e-10
1.40267e-10
1.40273e-10
1.40272e-10
1.40282e-10
1.40282e-10
1.40297e-10
1.40299e-10
1.40323e-10
1.40319e-10
1.40337e-10
1.40283e-10
1.40186e-10
1.39933e-10
1.3944e-10
1.38887e-10
1.36487e-10
1.37031e-10
1.37507e-10
1.3775e-10
1.37843e-10
1.37895e-10
1.37876e-10
1.37879e-10
1.37855e-10
1.37853e-10
1.37838e-10
1.37838e-10
1.37828e-10
1.37829e-10
1.37823e-10
1.37824e-10
1.3782e-10
1.37822e-10
1.3782e-10
1.37821e-10
1.37819e-10
1.3782e-10
1.37819e-10
1.37819e-10
1.37819e-10
1.37819e-10
1.37819e-10
1.37819e-10
1.3782e-10
1.37819e-10
1.37821e-10
1.3782e-10
1.37822e-10
1.3782e-10
1.37824e-10
1.37823e-10
1.37829e-10
1.37828e-10
1.37838e-10
1.37838e-10
1.37853e-10
1.37855e-10
1.37879e-10
1.37876e-10
1.37895e-10
1.37843e-10
1.3775e-10
1.37507e-10
1.37031e-10
1.36487e-10
1.34164e-10
1.34699e-10
1.35157e-10
1.35391e-10
1.3548e-10
1.35529e-10
1.3551e-10
1.35512e-10
1.35488e-10
1.35486e-10
1.35471e-10
1.3547e-10
1.3546e-10
1.35461e-10
1.35455e-10
1.35456e-10
1.35452e-10
1.35454e-10
1.35452e-10
1.35453e-10
1.35451e-10
1.35452e-10
1.35451e-10
1.35451e-10
1.35451e-10
1.35451e-10
1.35451e-10
1.35451e-10
1.35452e-10
1.35451e-10
1.35453e-10
1.35452e-10
1.35454e-10
1.35452e-10
1.35456e-10
1.35455e-10
1.35461e-10
1.3546e-10
1.3547e-10
1.35471e-10
1.35486e-10
1.35488e-10
1.35512e-10
1.3551e-10
1.35529e-10
1.3548e-10
1.35391e-10
1.35157e-10
1.34699e-10
1.34164e-10
1.31911e-10
1.32437e-10
1.32878e-10
1.33103e-10
1.33187e-10
1.33234e-10
1.33214e-10
1.33215e-10
1.33192e-10
1.33189e-10
1.33173e-10
1.33172e-10
1.33163e-10
1.33163e-10
1.33157e-10
1.33159e-10
1.33155e-10
1.33156e-10
1.33154e-10
1.33155e-10
1.33154e-10
1.33154e-10
1.33153e-10
1.33154e-10
1.33153e-10
1.33153e-10
1.33154e-10
1.33153e-10
1.33154e-10
1.33154e-10
1.33155e-10
1.33154e-10
1.33156e-10
1.33155e-10
1.33159e-10
1.33158e-10
1.33163e-10
1.33163e-10
1.33172e-10
1.33173e-10
1.33189e-10
1.33192e-10
1.33215e-10
1.33214e-10
1.33234e-10
1.33187e-10
1.33103e-10
1.32877e-10
1.32437e-10
1.31911e-10
1.29723e-10
1.3024e-10
1.30663e-10
1.3088e-10
1.30959e-10
1.31004e-10
1.30984e-10
1.30984e-10
1.3096e-10
1.30957e-10
1.30942e-10
1.3094e-10
1.30931e-10
1.30931e-10
1.30925e-10
1.30926e-10
1.30923e-10
1.30924e-10
1.30922e-10
1.30923e-10
1.30921e-10
1.30922e-10
1.30921e-10
1.30921e-10
1.30921e-10
1.30921e-10
1.30921e-10
1.30921e-10
1.30922e-10
1.30921e-10
1.30923e-10
1.30922e-10
1.30924e-10
1.30923e-10
1.30926e-10
1.30925e-10
1.30931e-10
1.30931e-10
1.3094e-10
1.30942e-10
1.30957e-10
1.3096e-10
1.30984e-10
1.30984e-10
1.31004e-10
1.30959e-10
1.30879e-10
1.30663e-10
1.3024e-10
1.29723e-10
1.27597e-10
1.28103e-10
1.2851e-10
1.28717e-10
1.28793e-10
1.28835e-10
1.28814e-10
1.28813e-10
1.2879e-10
1.28786e-10
1.28771e-10
1.28769e-10
1.2876e-10
1.2876e-10
1.28754e-10
1.28755e-10
1.28751e-10
1.28753e-10
1.2875e-10
1.28751e-10
1.2875e-10
1.28751e-10
1.2875e-10
1.2875e-10
1.2875e-10
1.2875e-10
1.2875e-10
1.2875e-10
1.28751e-10
1.2875e-10
1.28751e-10
1.2875e-10
1.28753e-10
1.28751e-10
1.28755e-10
1.28754e-10
1.2876e-10
1.2876e-10
1.28769e-10
1.28771e-10
1.28786e-10
1.2879e-10
1.28813e-10
1.28814e-10
1.28835e-10
1.28793e-10
1.28717e-10
1.2851e-10
1.28103e-10
1.27597e-10
1.25528e-10
1.26023e-10
1.26413e-10
1.26612e-10
1.26683e-10
1.26723e-10
1.26701e-10
1.26699e-10
1.26676e-10
1.26672e-10
1.26657e-10
1.26655e-10
1.26646e-10
1.26646e-10
1.2664e-10
1.26641e-10
1.26637e-10
1.26638e-10
1.26636e-10
1.26637e-10
1.26636e-10
1.26636e-10
1.26635e-10
1.26636e-10
1.26635e-10
1.26635e-10
1.26636e-10
1.26635e-10
1.26636e-10
1.26636e-10
1.26637e-10
1.26636e-10
1.26638e-10
1.26637e-10
1.26641e-10
1.2664e-10
1.26646e-10
1.26646e-10
1.26655e-10
1.26657e-10
1.26672e-10
1.26676e-10
1.26699e-10
1.26701e-10
1.26723e-10
1.26683e-10
1.26612e-10
1.26413e-10
1.26023e-10
1.25528e-10
1.23514e-10
1.23996e-10
1.2437e-10
1.24561e-10
1.24627e-10
1.24664e-10
1.24642e-10
1.24639e-10
1.24616e-10
1.24612e-10
1.24597e-10
1.24595e-10
1.24585e-10
1.24585e-10
1.24579e-10
1.2458e-10
1.24577e-10
1.24578e-10
1.24576e-10
1.24576e-10
1.24575e-10
1.24576e-10
1.24575e-10
1.24575e-10
1.24575e-10
1.24575e-10
1.24575e-10
1.24575e-10
1.24576e-10
1.24575e-10
1.24576e-10
1.24576e-10
1.24578e-10
1.24577e-10
1.2458e-10
1.24579e-10
1.24585e-10
1.24585e-10
1.24595e-10
1.24597e-10
1.24612e-10
1.24616e-10
1.24639e-10
1.24642e-10
1.24664e-10
1.24627e-10
1.2456e-10
1.2437e-10
1.23996e-10
1.23514e-10
1.2155e-10
1.22019e-10
1.22378e-10
1.2256e-10
1.22622e-10
1.22657e-10
1.22634e-10
1.2263e-10
1.22607e-10
1.22602e-10
1.22587e-10
1.22585e-10
1.22576e-10
1.22575e-10
1.2257e-10
1.2257e-10
1.22567e-10
1.22568e-10
1.22566e-10
1.22567e-10
1.22565e-10
1.22566e-10
1.22565e-10
1.22565e-10
1.22565e-10
1.22565e-10
1.22565e-10
1.22565e-10
1.22566e-10
1.22565e-10
1.22567e-10
1.22566e-10
1.22568e-10
1.22567e-10
1.2257e-10
1.2257e-10
1.22575e-10
1.22576e-10
1.22585e-10
1.22587e-10
1.22602e-10
1.22607e-10
1.2263e-10
1.22634e-10
1.22656e-10
1.22622e-10
1.2256e-10
1.22378e-10
1.22019e-10
1.2155e-10
1.19635e-10
1.2009e-10
1.20433e-10
1.20607e-10
1.20665e-10
1.20697e-10
1.20674e-10
1.20669e-10
1.20646e-10
1.2064e-10
1.20626e-10
1.20623e-10
1.20614e-10
1.20613e-10
1.20608e-10
1.20608e-10
1.20605e-10
1.20606e-10
1.20604e-10
1.20605e-10
1.20603e-10
1.20604e-10
1.20603e-10
1.20603e-10
1.20603e-10
1.20603e-10
1.20603e-10
1.20603e-10
1.20604e-10
1.20603e-10
1.20605e-10
1.20604e-10
1.20606e-10
1.20605e-10
1.20609e-10
1.20608e-10
1.20614e-10
1.20614e-10
1.20623e-10
1.20626e-10
1.2064e-10
1.20646e-10
1.20669e-10
1.20674e-10
1.20697e-10
1.20665e-10
1.20607e-10
1.20433e-10
1.2009e-10
1.19635e-10
1.17766e-10
1.18205e-10
1.18534e-10
1.187e-10
1.18754e-10
1.18783e-10
1.18759e-10
1.18754e-10
1.18731e-10
1.18725e-10
1.1871e-10
1.18707e-10
1.18698e-10
1.18697e-10
1.18692e-10
1.18692e-10
1.18689e-10
1.1869e-10
1.18688e-10
1.18689e-10
1.18687e-10
1.18688e-10
1.18687e-10
1.18687e-10
1.18687e-10
1.18687e-10
1.18687e-10
1.18687e-10
1.18688e-10
1.18687e-10
1.18689e-10
1.18688e-10
1.1869e-10
1.18689e-10
1.18692e-10
1.18692e-10
1.18697e-10
1.18698e-10
1.18707e-10
1.1871e-10
1.18725e-10
1.18731e-10
1.18754e-10
1.18759e-10
1.18783e-10
1.18754e-10
1.187e-10
1.18533e-10
1.18205e-10
1.17766e-10
1.1594e-10
1.16364e-10
1.16678e-10
1.16837e-10
1.16886e-10
1.16913e-10
1.16888e-10
1.16882e-10
1.16859e-10
1.16852e-10
1.16838e-10
1.16835e-10
1.16826e-10
1.16825e-10
1.1682e-10
1.1682e-10
1.16817e-10
1.16817e-10
1.16815e-10
1.16816e-10
1.16815e-10
1.16815e-10
1.16815e-10
1.16815e-10
1.16815e-10
1.16815e-10
1.16815e-10
1.16815e-10
1.16815e-10
1.16815e-10
1.16816e-10
1.16815e-10
1.16817e-10
1.16817e-10
1.1682e-10
1.1682e-10
1.16825e-10
1.16826e-10
1.16835e-10
1.16838e-10
1.16852e-10
1.16859e-10
1.16882e-10
1.16888e-10
1.16912e-10
1.16886e-10
1.16837e-10
1.16677e-10
1.16364e-10
1.1594e-10
1.14156e-10
1.14563e-10
1.14863e-10
1.15015e-10
1.15059e-10
1.15084e-10
1.15058e-10
1.15051e-10
1.15028e-10
1.15022e-10
1.15007e-10
1.15004e-10
1.14995e-10
1.14994e-10
1.14989e-10
1.14989e-10
1.14986e-10
1.14987e-10
1.14984e-10
1.14985e-10
1.14984e-10
1.14984e-10
1.14984e-10
1.14984e-10
1.14984e-10
1.14984e-10
1.14984e-10
1.14984e-10
1.14984e-10
1.14984e-10
1.14985e-10
1.14984e-10
1.14987e-10
1.14986e-10
1.14989e-10
1.14989e-10
1.14994e-10
1.14995e-10
1.15004e-10
1.15007e-10
1.15022e-10
1.15028e-10
1.15051e-10
1.15058e-10
1.15084e-10
1.15059e-10
1.15015e-10
1.14863e-10
1.14563e-10
1.14156e-10
1.12411e-10
1.12802e-10
1.13088e-10
1.13233e-10
1.13273e-10
1.13294e-10
1.13268e-10
1.1326e-10
1.13238e-10
1.1323e-10
1.13216e-10
1.13213e-10
1.13204e-10
1.13203e-10
1.13197e-10
1.13198e-10
1.13194e-10
1.13195e-10
1.13193e-10
1.13194e-10
1.13193e-10
1.13193e-10
1.13192e-10
1.13193e-10
1.13192e-10
1.13192e-10
1.13193e-10
1.13192e-10
1.13193e-10
1.13193e-10
1.13194e-10
1.13193e-10
1.13195e-10
1.13194e-10
1.13198e-10
1.13197e-10
1.13203e-10
1.13204e-10
1.13213e-10
1.13216e-10
1.1323e-10
1.13237e-10
1.1326e-10
1.13268e-10
1.13294e-10
1.13272e-10
1.13233e-10
1.13088e-10
1.12802e-10
1.12411e-10
1.10703e-10
1.11077e-10
1.11351e-10
1.11488e-10
1.11524e-10
1.11543e-10
1.11516e-10
1.11507e-10
1.11485e-10
1.11477e-10
1.11463e-10
1.11459e-10
1.11451e-10
1.1145e-10
1.11444e-10
1.11445e-10
1.11441e-10
1.11442e-10
1.1144e-10
1.11441e-10
1.11439e-10
1.1144e-10
1.11439e-10
1.11439e-10
1.11439e-10
1.11439e-10
1.11439e-10
1.11439e-10
1.1144e-10
1.11439e-10
1.11441e-10
1.1144e-10
1.11442e-10
1.11441e-10
1.11445e-10
1.11444e-10
1.1145e-10
1.11451e-10
1.11459e-10
1.11463e-10
1.11477e-10
1.11485e-10
1.11507e-10
1.11516e-10
1.11543e-10
1.11524e-10
1.11488e-10
1.11351e-10
1.11077e-10
1.10703e-10
1.09031e-10
1.09389e-10
1.0965e-10
1.0978e-10
1.09811e-10
1.09828e-10
1.098e-10
1.09791e-10
1.09768e-10
1.09761e-10
1.09746e-10
1.09743e-10
1.09734e-10
1.09733e-10
1.09727e-10
1.09728e-10
1.09724e-10
1.09725e-10
1.09723e-10
1.09724e-10
1.09723e-10
1.09723e-10
1.09722e-10
1.09723e-10
1.09722e-10
1.09722e-10
1.09723e-10
1.09722e-10
1.09723e-10
1.09723e-10
1.09724e-10
1.09723e-10
1.09725e-10
1.09724e-10
1.09728e-10
1.09728e-10
1.09733e-10
1.09734e-10
1.09743e-10
1.09746e-10
1.09761e-10
1.09768e-10
1.09791e-10
1.098e-10
1.09828e-10
1.09811e-10
1.0978e-10
1.0965e-10
1.09389e-10
1.09031e-10
1.07393e-10
1.07736e-10
1.07984e-10
1.08106e-10
1.08134e-10
1.08148e-10
1.08119e-10
1.08109e-10
1.08086e-10
1.08079e-10
1.08064e-10
1.08061e-10
1.08052e-10
1.08051e-10
1.08046e-10
1.08046e-10
1.08042e-10
1.08043e-10
1.08041e-10
1.08042e-10
1.08041e-10
1.08041e-10
1.0804e-10
1.08041e-10
1.0804e-10
1.0804e-10
1.08041e-10
1.0804e-10
1.08041e-10
1.08041e-10
1.08042e-10
1.08041e-10
1.08043e-10
1.08042e-10
1.08046e-10
1.08046e-10
1.08051e-10
1.08052e-10
1.08061e-10
1.08064e-10
1.08079e-10
1.08086e-10
1.08109e-10
1.08119e-10
1.08148e-10
1.08134e-10
1.08106e-10
1.07984e-10
1.07736e-10
1.07393e-10
1.05787e-10
1.06116e-10
1.0635e-10
1.06466e-10
1.06489e-10
1.06501e-10
1.06472e-10
1.06461e-10
1.06438e-10
1.0643e-10
1.06416e-10
1.06412e-10
1.06404e-10
1.06402e-10
1.06397e-10
1.06397e-10
1.06394e-10
1.06395e-10
1.06393e-10
1.06393e-10
1.06392e-10
1.06392e-10
1.06392e-10
1.06392e-10
1.06392e-10
1.06392e-10
1.06392e-10
1.06392e-10
1.06392e-10
1.06392e-10
1.06393e-10
1.06393e-10
1.06395e-10
1.06394e-10
1.06397e-10
1.06397e-10
1.06402e-10
1.06404e-10
1.06412e-10
1.06416e-10
1.0643e-10
1.06438e-10
1.06461e-10
1.06472e-10
1.06501e-10
1.06489e-10
1.06466e-10
1.0635e-10
1.06115e-10
1.05787e-10
1.04214e-10
1.04527e-10
1.04748e-10
1.04857e-10
1.04877e-10
1.04887e-10
1.04856e-10
1.04844e-10
1.04822e-10
1.04814e-10
1.048e-10
1.04796e-10
1.04787e-10
1.04786e-10
1.04781e-10
1.04781e-10
1.04778e-10
1.04778e-10
1.04776e-10
1.04777e-10
1.04776e-10
1.04776e-10
1.04775e-10
1.04776e-10
1.04776e-10
1.04776e-10
1.04776e-10
1.04775e-10
1.04776e-10
1.04776e-10
1.04777e-10
1.04776e-10
1.04778e-10
1.04778e-10
1.04781e-10
1.04781e-10
1.04786e-10
1.04787e-10
1.04796e-10
1.048e-10
1.04814e-10
1.04822e-10
1.04844e-10
1.04856e-10
1.04887e-10
1.04877e-10
1.04857e-10
1.04748e-10
1.04527e-10
1.04213e-10
1.0267e-10
1.02971e-10
1.03177e-10
1.0328e-10
1.03297e-10
1.03304e-10
1.03272e-10
1.03259e-10
1.03237e-10
1.03229e-10
1.03215e-10
1.03211e-10
1.03203e-10
1.03201e-10
1.03196e-10
1.03196e-10
1.03193e-10
1.03193e-10
1.03192e-10
1.03192e-10
1.03191e-10
1.03191e-10
1.03191e-10
1.03191e-10
1.03191e-10
1.03191e-10
1.03191e-10
1.03191e-10
1.03191e-10
1.03191e-10
1.03192e-10
1.03192e-10
1.03193e-10
1.03193e-10
1.03196e-10
1.03196e-10
1.03201e-10
1.03203e-10
1.03211e-10
1.03215e-10
1.03229e-10
1.03237e-10
1.03259e-10
1.03272e-10
1.03304e-10
1.03296e-10
1.0328e-10
1.03177e-10
1.02971e-10
1.0267e-10
1.0121e-10
1.01499e-10
1.01691e-10
1.0179e-10
1.01802e-10
1.01807e-10
1.01774e-10
1.01761e-10
1.01739e-10
1.0173e-10
1.01717e-10
1.01712e-10
1.01704e-10
1.01702e-10
1.01698e-10
1.01697e-10
1.01694e-10
1.01695e-10
1.01693e-10
1.01694e-10
1.01693e-10
1.01693e-10
1.01692e-10
1.01693e-10
1.01692e-10
1.01692e-10
1.01693e-10
1.01692e-10
1.01693e-10
1.01693e-10
1.01694e-10
1.01693e-10
1.01695e-10
1.01694e-10
1.01697e-10
1.01698e-10
1.01702e-10
1.01704e-10
1.01712e-10
1.01717e-10
1.0173e-10
1.01739e-10
1.01761e-10
1.01774e-10
1.01807e-10
1.01802e-10
1.0179e-10
1.01691e-10
1.01499e-10
1.0121e-10
9.97612e-11
1.00041e-10
1.00214e-10
1.00304e-10
1.00309e-10
1.0031e-10
1.00272e-10
1.00257e-10
1.00234e-10
1.00225e-10
1.00211e-10
1.00206e-10
1.00198e-10
1.00196e-10
1.00191e-10
1.00191e-10
1.00188e-10
1.00188e-10
1.00186e-10
1.00187e-10
1.00185e-10
1.00186e-10
1.00185e-10
1.00185e-10
1.00185e-10
1.00185e-10
1.00185e-10
1.00185e-10
1.00186e-10
1.00185e-10
1.00187e-10
1.00186e-10
1.00188e-10
1.00188e-10
1.00191e-10
1.00191e-10
1.00196e-10
1.00198e-10
1.00206e-10
1.00211e-10
1.00225e-10
1.00234e-10
1.00257e-10
1.00272e-10
1.0031e-10
1.00309e-10
1.00304e-10
1.00214e-10
1.00041e-10
9.97611e-11
9.83067e-11
9.85742e-11
9.87325e-11
9.88176e-11
9.88191e-11
9.88171e-11
9.87775e-11
9.8762e-11
9.87393e-11
9.87295e-11
9.87156e-11
9.87108e-11
9.87024e-11
9.87006e-11
9.86956e-11
9.86953e-11
9.86923e-11
9.86928e-11
9.86909e-11
9.86914e-11
9.86902e-11
9.86906e-11
9.86899e-11
9.86902e-11
9.869e-11
9.869e-11
9.86902e-11
9.86899e-11
9.86906e-11
9.86902e-11
9.86914e-11
9.86909e-11
9.86927e-11
9.86923e-11
9.86953e-11
9.86956e-11
9.87006e-11
9.87024e-11
9.87107e-11
9.87156e-11
9.87295e-11
9.87393e-11
9.8762e-11
9.87774e-11
9.8817e-11
9.8819e-11
9.88175e-11
9.87324e-11
9.85741e-11
9.83066e-11
9.68768e-11
9.71321e-11
9.72762e-11
9.7356e-11
9.73543e-11
9.735e-11
9.73081e-11
9.7292e-11
9.72695e-11
9.72596e-11
9.72458e-11
9.72409e-11
9.72327e-11
9.72308e-11
9.72259e-11
9.72256e-11
9.72226e-11
9.7223e-11
9.72212e-11
9.72217e-11
9.72205e-11
9.72209e-11
9.72203e-11
9.72205e-11
9.72203e-11
9.72203e-11
9.72205e-11
9.72203e-11
9.72209e-11
9.72205e-11
9.72217e-11
9.72212e-11
9.7223e-11
9.72226e-11
9.72256e-11
9.72259e-11
9.72308e-11
9.72327e-11
9.72409e-11
9.72458e-11
9.72595e-11
9.72695e-11
9.7292e-11
9.7308e-11
9.73499e-11
9.73542e-11
9.73559e-11
9.72761e-11
9.7132e-11
9.68767e-11
9.54711e-11
9.5714e-11
9.5845e-11
9.59192e-11
9.59144e-11
9.5908e-11
9.58634e-11
9.58468e-11
9.58246e-11
9.58145e-11
9.5801e-11
9.5796e-11
9.57879e-11
9.5786e-11
9.57812e-11
9.57808e-11
9.57779e-11
9.57783e-11
9.57765e-11
9.57769e-11
9.57758e-11
9.57762e-11
9.57755e-11
9.57757e-11
9.57755e-11
9.57755e-11
9.57757e-11
9.57755e-11
9.57761e-11
9.57758e-11
9.57769e-11
9.57765e-11
9.57782e-11
9.57779e-11
9.57808e-11
9.57812e-11
9.5786e-11
9.57879e-11
9.5796e-11
9.5801e-11
9.58145e-11
9.58246e-11
9.58468e-11
9.58634e-11
9.59079e-11
9.59143e-11
9.59191e-11
9.58449e-11
9.57139e-11
9.5471e-11
9.40896e-11
9.43201e-11
9.44383e-11
9.45072e-11
9.44994e-11
9.44911e-11
9.44434e-11
9.44264e-11
9.44045e-11
9.43942e-11
9.43809e-11
9.43758e-11
9.43679e-11
9.43659e-11
9.43612e-11
9.43608e-11
9.4358e-11
9.43583e-11
9.43566e-11
9.4357e-11
9.43559e-11
9.43562e-11
9.43556e-11
9.43558e-11
9.43556e-11
9.43556e-11
9.43558e-11
9.43556e-11
9.43562e-11
9.43559e-11
9.4357e-11
9.43565e-11
9.43583e-11
9.4358e-11
9.43608e-11
9.43612e-11
9.43659e-11
9.43679e-11
9.43758e-11
9.43809e-11
9.43942e-11
9.44045e-11
9.44263e-11
9.44434e-11
9.4491e-11
9.44993e-11
9.45071e-11
9.44382e-11
9.432e-11
9.40895e-11
9.2779e-11
9.2999e-11
9.3105e-11
9.3169e-11
9.31583e-11
9.31484e-11
9.30971e-11
9.30796e-11
9.30579e-11
9.30476e-11
9.30344e-11
9.30293e-11
9.30215e-11
9.30194e-11
9.30148e-11
9.30144e-11
9.30116e-11
9.30119e-11
9.30101e-11
9.30106e-11
9.30095e-11
9.30098e-11
9.30092e-11
9.30094e-11
9.30092e-11
9.30092e-11
9.30094e-11
9.30092e-11
9.30098e-11
9.30095e-11
9.30106e-11
9.30101e-11
9.30119e-11
9.30116e-11
9.30144e-11
9.30148e-11
9.30195e-11
9.30215e-11
9.30293e-11
9.30344e-11
9.30476e-11
9.30579e-11
9.30796e-11
9.3097e-11
9.31483e-11
9.31582e-11
9.31689e-11
9.31049e-11
9.29989e-11
9.27789e-11
9.14921e-11
9.17016e-11
9.17963e-11
9.18554e-11
9.18417e-11
9.18305e-11
9.17753e-11
9.17564e-11
9.17329e-11
9.17213e-11
9.17072e-11
9.17015e-11
9.16932e-11
9.16909e-11
9.16859e-11
9.16854e-11
9.16824e-11
9.16826e-11
9.16808e-11
9.16812e-11
9.16801e-11
9.16804e-11
9.16798e-11
9.168e-11
9.16798e-11
9.16798e-11
9.16799e-11
9.16798e-11
9.16804e-11
9.16801e-11
9.16812e-11
9.16808e-11
9.16826e-11
9.16824e-11
9.16854e-11
9.16859e-11
9.16909e-11
9.16932e-11
9.17015e-11
9.17072e-11
9.17213e-11
9.17329e-11
9.17564e-11
9.17752e-11
9.18305e-11
9.18416e-11
9.18553e-11
9.17962e-11
9.17015e-11
9.1492e-11
9.01871e-11
9.03866e-11
9.04689e-11
9.05221e-11
9.05041e-11
9.04911e-11
9.04314e-11
9.04117e-11
9.03879e-11
9.03758e-11
9.03616e-11
9.03556e-11
9.03472e-11
9.03447e-11
9.03398e-11
9.03392e-11
9.03362e-11
9.03364e-11
9.03346e-11
9.0335e-11
9.03339e-11
9.03342e-11
9.03336e-11
9.03338e-11
9.03336e-11
9.03336e-11
9.03338e-11
9.03336e-11
9.03342e-11
9.03339e-11
9.0335e-11
9.03346e-11
9.03364e-11
9.03362e-11
9.03392e-11
9.03398e-11
9.03448e-11
9.03472e-11
9.03556e-11
9.03616e-11
9.03758e-11
9.03878e-11
9.04117e-11
9.04313e-11
9.04911e-11
9.05041e-11
9.05221e-11
9.04688e-11
9.03865e-11
9.0187e-11
8.88963e-11
8.90837e-11
8.91556e-11
8.92035e-11
8.91829e-11
8.91693e-11
8.91526e-11
8.91329e-11
8.91092e-11
8.90969e-11
8.90828e-11
8.90768e-11
8.90684e-11
8.9066e-11
8.9061e-11
8.90604e-11
8.90575e-11
8.90577e-11
8.90559e-11
8.90563e-11
8.90552e-11
8.90555e-11
8.90549e-11
8.90551e-11
8.90549e-11
8.90549e-11
8.90551e-11
8.90549e-11
8.90555e-11
8.90552e-11
8.90563e-11
8.90559e-11
8.90577e-11
8.90575e-11
8.90604e-11
8.90611e-11
8.9066e-11
8.90685e-11
8.90768e-11
8.90828e-11
8.9097e-11
8.91092e-11
8.91329e-11
8.91526e-11
8.91693e-11
8.91829e-11
8.92034e-11
8.91555e-11
8.90837e-11
8.88962e-11
8.76695e-11
8.78467e-11
8.79084e-11
8.79515e-11
8.79282e-11
8.7914e-11
8.78964e-11
8.78766e-11
8.7853e-11
8.78407e-11
8.78267e-11
8.78205e-11
8.78123e-11
8.78098e-11
8.78049e-11
8.78042e-11
8.78013e-11
8.78015e-11
8.77998e-11
8.78001e-11
8.77991e-11
8.77994e-11
8.77988e-11
8.77989e-11
8.77987e-11
8.77987e-11
8.77989e-11
8.77988e-11
8.77994e-11
8.77991e-11
8.78001e-11
8.77998e-11
8.78015e-11
8.78014e-11
8.78043e-11
8.78049e-11
8.78098e-11
8.78123e-11
8.78206e-11
8.78267e-11
8.78407e-11
8.7853e-11
8.78766e-11
8.78964e-11
8.79139e-11
8.79281e-11
8.79515e-11
8.79084e-11
8.78466e-11
8.76694e-11
8.64566e-11
8.66281e-11
8.66774e-11
8.6714e-11
8.6683e-11
8.66663e-11
8.6645e-11
8.66237e-11
8.65992e-11
8.65861e-11
8.65716e-11
8.65651e-11
8.65566e-11
8.65539e-11
8.65488e-11
8.65481e-11
8.65451e-11
8.65452e-11
8.65434e-11
8.65438e-11
8.65427e-11
8.6543e-11
8.65423e-11
8.65425e-11
8.65423e-11
8.65423e-11
8.65425e-11
8.65423e-11
8.6543e-11
8.65427e-11
8.65438e-11
8.65434e-11
8.65453e-11
8.65451e-11
8.65481e-11
8.65489e-11
8.65539e-11
8.65566e-11
8.65651e-11
8.65716e-11
8.65861e-11
8.65992e-11
8.66237e-11
8.6645e-11
8.66663e-11
8.6683e-11
8.6714e-11
8.66773e-11
8.6628e-11
8.64566e-11
8.52716e-11
8.54335e-11
8.54732e-11
8.55053e-11
8.54714e-11
8.54538e-11
8.54306e-11
8.5409e-11
8.53847e-11
8.53714e-11
8.5357e-11
8.53505e-11
8.5342e-11
8.53393e-11
8.53343e-11
8.53335e-11
8.53306e-11
8.53307e-11
8.53289e-11
8.53292e-11
8.53281e-11
8.53284e-11
8.53278e-11
8.5328e-11
8.53278e-11
8.53278e-11
8.5328e-11
8.53278e-11
8.53284e-11
8.53282e-11
8.53292e-11
8.53289e-11
8.53307e-11
8.53306e-11
8.53336e-11
8.53343e-11
8.53394e-11
8.53421e-11
8.53506e-11
8.53571e-11
8.53715e-11
8.53847e-11
8.54091e-11
8.54306e-11
8.54538e-11
8.54713e-11
8.55053e-11
8.54732e-11
8.54335e-11
8.52716e-11
8.41066e-11
8.4259e-11
8.42895e-11
8.43174e-11
8.42806e-11
8.42622e-11
8.42374e-11
8.42156e-11
8.41914e-11
8.41781e-11
8.41638e-11
8.41573e-11
8.41489e-11
8.41461e-11
8.41411e-11
8.41404e-11
8.41374e-11
8.41375e-11
8.41357e-11
8.41361e-11
8.4135e-11
8.41353e-11
8.41347e-11
8.41348e-11
8.41346e-11
8.41346e-11
8.41348e-11
8.41347e-11
8.41353e-11
8.4135e-11
8.41361e-11
8.41357e-11
8.41375e-11
8.41374e-11
8.41404e-11
8.41412e-11
8.41461e-11
8.41489e-11
8.41573e-11
8.41639e-11
8.41781e-11
8.41914e-11
8.42156e-11
8.42374e-11
8.42623e-11
8.42805e-11
8.43174e-11
8.42895e-11
8.4259e-11
8.41066e-11
8.29635e-11
8.29638e-11
8.29627e-11
8.2963e-11
8.29624e-11
8.29626e-11
8.29624e-11
8.29624e-11
8.29626e-11
8.29624e-11
8.2963e-11
8.29627e-11
8.29638e-11
8.29634e-11
8.29652e-11
8.29651e-11
8.29681e-11
8.29689e-11
8.29738e-11
8.29765e-11
8.29848e-11
8.29914e-11
8.30056e-11
8.30189e-11
8.30429e-11
8.30649e-11
8.30912e-11
8.31102e-11
8.31499e-11
8.31261e-11
8.31042e-11
8.2961e-11
8.18114e-11
8.18111e-11
8.18122e-11
8.18119e-11
8.18136e-11
8.18135e-11
8.18165e-11
8.18172e-11
8.18221e-11
8.18249e-11
8.18331e-11
8.18397e-11
8.18536e-11
8.1867e-11
8.18908e-11
8.19129e-11
8.19405e-11
8.19601e-11
8.20025e-11
8.19826e-11
8.19689e-11
8.18349e-11
8.07224e-11
8.07357e-11
8.07592e-11
8.07814e-11
8.08102e-11
8.08304e-11
8.08753e-11
8.0859e-11
8.08531e-11
8.0728e-11
)
;

boundaryField
{
    fuel
    {
        type            fixedValue;
        value           nonuniform 0();
    }
    wall
    {
        type            zeroGradient;
    }
    outlet
    {
        type            zeroGradient;
    }
    frontAndBack
    {
        type            empty;
    }
    procBoundary0to1
    {
        type            processor;
        value           nonuniform List<scalar> 
50
(
1.55377e-10
1.55997e-10
1.56596e-10
1.56907e-10
1.57026e-10
1.57095e-10
1.57077e-10
1.57087e-10
1.57061e-10
1.57064e-10
1.57047e-10
1.5705e-10
1.57039e-10
1.57042e-10
1.57035e-10
1.57037e-10
1.57033e-10
1.57035e-10
1.57033e-10
1.57034e-10
1.57032e-10
1.57033e-10
1.57032e-10
1.57033e-10
1.57032e-10
1.57032e-10
1.57033e-10
1.57032e-10
1.57033e-10
1.57032e-10
1.57034e-10
1.57033e-10
1.57035e-10
1.57033e-10
1.57038e-10
1.57035e-10
1.57042e-10
1.57039e-10
1.5705e-10
1.57047e-10
1.57064e-10
1.57061e-10
1.57087e-10
1.57077e-10
1.57095e-10
1.57026e-10
1.56907e-10
1.56595e-10
1.55997e-10
1.55377e-10
)
;
    }
    procBoundary0to2
    {
        type            processor;
        value           nonuniform List<scalar> 
53
(
8.29611e-11
8.31043e-11
8.31261e-11
8.315e-11
8.31103e-11
8.30913e-11
8.30649e-11
8.3043e-11
8.3019e-11
8.30056e-11
8.29915e-11
8.29849e-11
8.29766e-11
8.29738e-11
8.29689e-11
8.29681e-11
8.29652e-11
8.29653e-11
8.29653e-11
8.18119e-11
8.18122e-11
8.18112e-11
8.18115e-11
8.18109e-11
8.18111e-11
8.18109e-11
8.18109e-11
8.18111e-11
8.18109e-11
8.18109e-11
8.06806e-11
8.06804e-11
8.06814e-11
8.06811e-11
8.06828e-11
8.06828e-11
8.06856e-11
8.06864e-11
8.06912e-11
8.0694e-11
8.07021e-11
8.07087e-11
8.07087e-11
7.9612e-11
7.96253e-11
7.96484e-11
7.96707e-11
7.97003e-11
7.97211e-11
7.97682e-11
7.97556e-11
7.97569e-11
7.96405e-11
)
;
    }
}


// ************************************************************************* //
