/*--------------------------------*- C++ -*----------------------------------*\
| =========                 |                                                 |
| \\      /  F ield         | OpenFOAM: The Open Source CFD Toolbox           |
|  \\    /   O peration     | Version:  dev                                   |
|   \\  /    A nd           | Web:      www.OpenFOAM.org                      |
|    \\/     M anipulation  |                                                 |
\*---------------------------------------------------------------------------*/
FoamFile
{
    version     2.0;
    format      ascii;
    class       volScalarField;
    location    "0.07";
    object      n-C4H3;
}
// * * * * * * * * * * * * * * * * * * * * * * * * * * * * * * * * * * * * * //

dimensions      [0 0 0 0 0 0 0];

internalField   nonuniform List<scalar> 
2014
(
2.42721e-08
2.43759e-08
2.44753e-08
2.45264e-08
2.45464e-08
2.45577e-08
2.4555e-08
2.45565e-08
2.45524e-08
2.45527e-08
2.45501e-08
2.45505e-08
2.45488e-08
2.45491e-08
2.45481e-08
2.45485e-08
2.45478e-08
2.45481e-08
2.45477e-08
2.45479e-08
2.45477e-08
2.45478e-08
2.45476e-08
2.45477e-08
2.45477e-08
2.45477e-08
2.45477e-08
2.45476e-08
2.45478e-08
2.45477e-08
2.45479e-08
2.45477e-08
2.45481e-08
2.45478e-08
2.45485e-08
2.45481e-08
2.45491e-08
2.45488e-08
2.45504e-08
2.45501e-08
2.45527e-08
2.45524e-08
2.45565e-08
2.4555e-08
2.45577e-08
2.45464e-08
2.45264e-08
2.44753e-08
2.43759e-08
2.42721e-08
2.38056e-08
2.39074e-08
2.40041e-08
2.40538e-08
2.40732e-08
2.40842e-08
2.40814e-08
2.40827e-08
2.40787e-08
2.4079e-08
2.40763e-08
2.40766e-08
2.4075e-08
2.40753e-08
2.40742e-08
2.40746e-08
2.40739e-08
2.40743e-08
2.40738e-08
2.40741e-08
2.40738e-08
2.40739e-08
2.40738e-08
2.40738e-08
2.40738e-08
2.40738e-08
2.40738e-08
2.40738e-08
2.40739e-08
2.40738e-08
2.40741e-08
2.40738e-08
2.40743e-08
2.40739e-08
2.40746e-08
2.40743e-08
2.40753e-08
2.4075e-08
2.40766e-08
2.40763e-08
2.4079e-08
2.40787e-08
2.40827e-08
2.40814e-08
2.40842e-08
2.40732e-08
2.40538e-08
2.40041e-08
2.39074e-08
2.38056e-08
2.33553e-08
2.34554e-08
2.35493e-08
2.35974e-08
2.36163e-08
2.36269e-08
2.36242e-08
2.36253e-08
2.36213e-08
2.36215e-08
2.36189e-08
2.36191e-08
2.36175e-08
2.36177e-08
2.36167e-08
2.3617e-08
2.36164e-08
2.36167e-08
2.36163e-08
2.36165e-08
2.36163e-08
2.36164e-08
2.36162e-08
2.36163e-08
2.36163e-08
2.36163e-08
2.36163e-08
2.36162e-08
2.36164e-08
2.36163e-08
2.36165e-08
2.36163e-08
2.36167e-08
2.36164e-08
2.36171e-08
2.36167e-08
2.36178e-08
2.36175e-08
2.36191e-08
2.36189e-08
2.36215e-08
2.36213e-08
2.36253e-08
2.36242e-08
2.36269e-08
2.36163e-08
2.35974e-08
2.35493e-08
2.34554e-08
2.33553e-08
2.292e-08
2.30186e-08
2.31094e-08
2.31562e-08
2.31744e-08
2.31847e-08
2.31819e-08
2.31829e-08
2.31789e-08
2.3179e-08
2.31764e-08
2.31766e-08
2.31749e-08
2.31752e-08
2.31742e-08
2.31745e-08
2.31738e-08
2.31742e-08
2.31737e-08
2.3174e-08
2.31737e-08
2.31738e-08
2.31737e-08
2.31737e-08
2.31737e-08
2.31737e-08
2.31737e-08
2.31737e-08
2.31738e-08
2.31737e-08
2.3174e-08
2.31737e-08
2.31742e-08
2.31738e-08
2.31745e-08
2.31742e-08
2.31752e-08
2.31749e-08
2.31766e-08
2.31764e-08
2.3179e-08
2.31789e-08
2.31829e-08
2.31819e-08
2.31847e-08
2.31744e-08
2.31562e-08
2.31094e-08
2.30186e-08
2.292e-08
2.24986e-08
2.25956e-08
2.26837e-08
2.27288e-08
2.27464e-08
2.27563e-08
2.27535e-08
2.27543e-08
2.27504e-08
2.27504e-08
2.27478e-08
2.27479e-08
2.27463e-08
2.27465e-08
2.27455e-08
2.27458e-08
2.27452e-08
2.27455e-08
2.27451e-08
2.27453e-08
2.2745e-08
2.27451e-08
2.2745e-08
2.2745e-08
2.2745e-08
2.2745e-08
2.2745e-08
2.2745e-08
2.27451e-08
2.2745e-08
2.27453e-08
2.27451e-08
2.27455e-08
2.27452e-08
2.27458e-08
2.27455e-08
2.27465e-08
2.27463e-08
2.27479e-08
2.27478e-08
2.27504e-08
2.27504e-08
2.27543e-08
2.27535e-08
2.27563e-08
2.27464e-08
2.27288e-08
2.26837e-08
2.25955e-08
2.24986e-08
2.20901e-08
2.21856e-08
2.22709e-08
2.23144e-08
2.23313e-08
2.23408e-08
2.2338e-08
2.23387e-08
2.23348e-08
2.23346e-08
2.23321e-08
2.23322e-08
2.23306e-08
2.23308e-08
2.23298e-08
2.233e-08
2.23294e-08
2.23297e-08
2.23293e-08
2.23295e-08
2.23292e-08
2.23294e-08
2.23292e-08
2.23293e-08
2.23292e-08
2.23292e-08
2.23293e-08
2.23292e-08
2.23294e-08
2.23292e-08
2.23295e-08
2.23293e-08
2.23297e-08
2.23294e-08
2.233e-08
2.23298e-08
2.23308e-08
2.23306e-08
2.23322e-08
2.23321e-08
2.23346e-08
2.23348e-08
2.23387e-08
2.2338e-08
2.23408e-08
2.23313e-08
2.23144e-08
2.22709e-08
2.21856e-08
2.20901e-08
2.16937e-08
2.17877e-08
2.18702e-08
2.19121e-08
2.19284e-08
2.19375e-08
2.19345e-08
2.19351e-08
2.19313e-08
2.1931e-08
2.19285e-08
2.19285e-08
2.19269e-08
2.19271e-08
2.19261e-08
2.19264e-08
2.19257e-08
2.1926e-08
2.19256e-08
2.19258e-08
2.19256e-08
2.19257e-08
2.19255e-08
2.19256e-08
2.19256e-08
2.19256e-08
2.19256e-08
2.19255e-08
2.19257e-08
2.19256e-08
2.19258e-08
2.19256e-08
2.1926e-08
2.19257e-08
2.19264e-08
2.19261e-08
2.19271e-08
2.19269e-08
2.19285e-08
2.19285e-08
2.1931e-08
2.19312e-08
2.19351e-08
2.19345e-08
2.19375e-08
2.19283e-08
2.19121e-08
2.18702e-08
2.17877e-08
2.16937e-08
2.13088e-08
2.14013e-08
2.14809e-08
2.15212e-08
2.15368e-08
2.15455e-08
2.15425e-08
2.15429e-08
2.15391e-08
2.15388e-08
2.15363e-08
2.15362e-08
2.15347e-08
2.15348e-08
2.15338e-08
2.15341e-08
2.15335e-08
2.15337e-08
2.15333e-08
2.15335e-08
2.15333e-08
2.15334e-08
2.15332e-08
2.15333e-08
2.15333e-08
2.15333e-08
2.15333e-08
2.15332e-08
2.15334e-08
2.15333e-08
2.15335e-08
2.15333e-08
2.15337e-08
2.15335e-08
2.15341e-08
2.15339e-08
2.15348e-08
2.15347e-08
2.15362e-08
2.15363e-08
2.15388e-08
2.15391e-08
2.15429e-08
2.15425e-08
2.15455e-08
2.15368e-08
2.15212e-08
2.14809e-08
2.14013e-08
2.13088e-08
2.09347e-08
2.10257e-08
2.11023e-08
2.11411e-08
2.11559e-08
2.11643e-08
2.11612e-08
2.11615e-08
2.11577e-08
2.11573e-08
2.11548e-08
2.11547e-08
2.11532e-08
2.11533e-08
2.11523e-08
2.11525e-08
2.11519e-08
2.11522e-08
2.11518e-08
2.1152e-08
2.11517e-08
2.11519e-08
2.11517e-08
2.11518e-08
2.11517e-08
2.11517e-08
2.11518e-08
2.11517e-08
2.11519e-08
2.11518e-08
2.1152e-08
2.11518e-08
2.11522e-08
2.11519e-08
2.11526e-08
2.11523e-08
2.11533e-08
2.11532e-08
2.11547e-08
2.11548e-08
2.11573e-08
2.11577e-08
2.11615e-08
2.11612e-08
2.11642e-08
2.11559e-08
2.11411e-08
2.11023e-08
2.10257e-08
2.09347e-08
2.05709e-08
2.06602e-08
2.07339e-08
2.07712e-08
2.07853e-08
2.07932e-08
2.07901e-08
2.07903e-08
2.07865e-08
2.0786e-08
2.07836e-08
2.07834e-08
2.07819e-08
2.0782e-08
2.0781e-08
2.07812e-08
2.07806e-08
2.07809e-08
2.07805e-08
2.07807e-08
2.07804e-08
2.07805e-08
2.07804e-08
2.07805e-08
2.07804e-08
2.07804e-08
2.07805e-08
2.07804e-08
2.07805e-08
2.07804e-08
2.07807e-08
2.07805e-08
2.07809e-08
2.07806e-08
2.07812e-08
2.0781e-08
2.0782e-08
2.07819e-08
2.07834e-08
2.07836e-08
2.0786e-08
2.07865e-08
2.07903e-08
2.07901e-08
2.07932e-08
2.07853e-08
2.07712e-08
2.07339e-08
2.06602e-08
2.05709e-08
2.02169e-08
2.03044e-08
2.03753e-08
2.04111e-08
2.04245e-08
2.0432e-08
2.04288e-08
2.04288e-08
2.0425e-08
2.04245e-08
2.0422e-08
2.04219e-08
2.04203e-08
2.04204e-08
2.04195e-08
2.04196e-08
2.0419e-08
2.04193e-08
2.04189e-08
2.04191e-08
2.04188e-08
2.04189e-08
2.04188e-08
2.04189e-08
2.04188e-08
2.04188e-08
2.04189e-08
2.04188e-08
2.04189e-08
2.04188e-08
2.04191e-08
2.04189e-08
2.04193e-08
2.04191e-08
2.04196e-08
2.04195e-08
2.04204e-08
2.04203e-08
2.04219e-08
2.0422e-08
2.04245e-08
2.0425e-08
2.04288e-08
2.04288e-08
2.04319e-08
2.04244e-08
2.04111e-08
2.03752e-08
2.03044e-08
2.02169e-08
1.98723e-08
1.99578e-08
2.00259e-08
2.00602e-08
2.00729e-08
2.008e-08
2.00767e-08
2.00766e-08
2.00728e-08
2.00722e-08
2.00698e-08
2.00696e-08
2.00681e-08
2.00681e-08
2.00672e-08
2.00673e-08
2.00668e-08
2.0067e-08
2.00666e-08
2.00668e-08
2.00666e-08
2.00667e-08
2.00665e-08
2.00666e-08
2.00665e-08
2.00665e-08
2.00666e-08
2.00665e-08
2.00667e-08
2.00666e-08
2.00668e-08
2.00666e-08
2.0067e-08
2.00668e-08
2.00674e-08
2.00672e-08
2.00681e-08
2.00681e-08
2.00696e-08
2.00698e-08
2.00722e-08
2.00728e-08
2.00766e-08
2.00767e-08
2.00799e-08
2.00729e-08
2.00602e-08
2.00258e-08
1.99578e-08
1.98722e-08
1.95366e-08
1.962e-08
1.96853e-08
1.97182e-08
1.97302e-08
1.97369e-08
1.97335e-08
1.97333e-08
1.97295e-08
1.97289e-08
1.97265e-08
1.97262e-08
1.97247e-08
1.97247e-08
1.97238e-08
1.9724e-08
1.97234e-08
1.97236e-08
1.97232e-08
1.97234e-08
1.97232e-08
1.97233e-08
1.97231e-08
1.97232e-08
1.97232e-08
1.97232e-08
1.97232e-08
1.97231e-08
1.97233e-08
1.97232e-08
1.97234e-08
1.97232e-08
1.97236e-08
1.97234e-08
1.9724e-08
1.97238e-08
1.97247e-08
1.97247e-08
1.97262e-08
1.97265e-08
1.97289e-08
1.97295e-08
1.97333e-08
1.97335e-08
1.97369e-08
1.97302e-08
1.97182e-08
1.96853e-08
1.962e-08
1.95366e-08
1.92097e-08
1.92906e-08
1.93533e-08
1.93848e-08
1.93961e-08
1.94023e-08
1.93989e-08
1.93985e-08
1.93948e-08
1.93941e-08
1.93917e-08
1.93914e-08
1.93899e-08
1.93899e-08
1.9389e-08
1.93891e-08
1.93886e-08
1.93888e-08
1.93884e-08
1.93886e-08
1.93884e-08
1.93885e-08
1.93883e-08
1.93884e-08
1.93883e-08
1.93883e-08
1.93884e-08
1.93883e-08
1.93885e-08
1.93884e-08
1.93886e-08
1.93884e-08
1.93888e-08
1.93886e-08
1.93891e-08
1.9389e-08
1.93899e-08
1.93899e-08
1.93914e-08
1.93917e-08
1.93941e-08
1.93948e-08
1.93985e-08
1.93989e-08
1.94023e-08
1.93961e-08
1.93848e-08
1.93533e-08
1.92906e-08
1.92096e-08
1.88909e-08
1.89693e-08
1.90295e-08
1.90597e-08
1.90702e-08
1.9076e-08
1.90725e-08
1.9072e-08
1.90683e-08
1.90675e-08
1.90652e-08
1.90648e-08
1.90634e-08
1.90633e-08
1.90624e-08
1.90626e-08
1.9062e-08
1.90622e-08
1.90618e-08
1.9062e-08
1.90618e-08
1.90619e-08
1.90617e-08
1.90618e-08
1.90617e-08
1.90617e-08
1.90618e-08
1.90617e-08
1.90619e-08
1.90618e-08
1.9062e-08
1.90618e-08
1.90622e-08
1.9062e-08
1.90626e-08
1.90624e-08
1.90633e-08
1.90634e-08
1.90648e-08
1.90652e-08
1.90675e-08
1.90683e-08
1.9072e-08
1.90725e-08
1.9076e-08
1.90702e-08
1.90597e-08
1.90294e-08
1.89693e-08
1.88909e-08
1.85802e-08
1.86559e-08
1.87135e-08
1.87425e-08
1.87522e-08
1.87576e-08
1.8754e-08
1.87534e-08
1.87497e-08
1.87489e-08
1.87466e-08
1.87462e-08
1.87447e-08
1.87447e-08
1.87438e-08
1.87439e-08
1.87434e-08
1.87435e-08
1.87432e-08
1.87434e-08
1.87431e-08
1.87432e-08
1.87431e-08
1.87431e-08
1.87431e-08
1.87431e-08
1.87431e-08
1.87431e-08
1.87432e-08
1.87431e-08
1.87434e-08
1.87432e-08
1.87435e-08
1.87434e-08
1.87439e-08
1.87438e-08
1.87447e-08
1.87447e-08
1.87462e-08
1.87466e-08
1.87489e-08
1.87497e-08
1.87534e-08
1.8754e-08
1.87576e-08
1.87522e-08
1.87424e-08
1.87135e-08
1.86559e-08
1.85802e-08
1.82771e-08
1.835e-08
1.84052e-08
1.84329e-08
1.84419e-08
1.84469e-08
1.84432e-08
1.84424e-08
1.84388e-08
1.84379e-08
1.84356e-08
1.84352e-08
1.84338e-08
1.84337e-08
1.84328e-08
1.84329e-08
1.84324e-08
1.84326e-08
1.84322e-08
1.84324e-08
1.84322e-08
1.84322e-08
1.84321e-08
1.84322e-08
1.84321e-08
1.84321e-08
1.84322e-08
1.84321e-08
1.84322e-08
1.84322e-08
1.84324e-08
1.84322e-08
1.84326e-08
1.84324e-08
1.84329e-08
1.84328e-08
1.84337e-08
1.84338e-08
1.84352e-08
1.84356e-08
1.84379e-08
1.84388e-08
1.84424e-08
1.84432e-08
1.84469e-08
1.84419e-08
1.84329e-08
1.84052e-08
1.835e-08
1.8277e-08
1.79813e-08
1.80514e-08
1.81042e-08
1.81307e-08
1.81389e-08
1.81436e-08
1.81398e-08
1.81389e-08
1.81353e-08
1.81344e-08
1.81321e-08
1.81316e-08
1.81302e-08
1.81301e-08
1.81293e-08
1.81294e-08
1.81288e-08
1.8129e-08
1.81287e-08
1.81288e-08
1.81286e-08
1.81287e-08
1.81285e-08
1.81286e-08
1.81286e-08
1.81286e-08
1.81286e-08
1.81285e-08
1.81287e-08
1.81286e-08
1.81288e-08
1.81287e-08
1.8129e-08
1.81288e-08
1.81294e-08
1.81293e-08
1.81301e-08
1.81302e-08
1.81316e-08
1.81321e-08
1.81344e-08
1.81353e-08
1.81389e-08
1.81398e-08
1.81436e-08
1.81389e-08
1.81306e-08
1.81042e-08
1.80514e-08
1.79813e-08
1.76926e-08
1.77599e-08
1.78104e-08
1.78356e-08
1.78432e-08
1.78474e-08
1.78435e-08
1.78425e-08
1.78389e-08
1.78379e-08
1.78357e-08
1.78352e-08
1.78338e-08
1.78337e-08
1.78329e-08
1.7833e-08
1.78324e-08
1.78326e-08
1.78323e-08
1.78324e-08
1.78322e-08
1.78323e-08
1.78321e-08
1.78322e-08
1.78322e-08
1.78322e-08
1.78322e-08
1.78321e-08
1.78323e-08
1.78322e-08
1.78324e-08
1.78323e-08
1.78326e-08
1.78324e-08
1.7833e-08
1.78329e-08
1.78337e-08
1.78338e-08
1.78352e-08
1.78357e-08
1.78379e-08
1.78389e-08
1.78425e-08
1.78435e-08
1.78474e-08
1.78432e-08
1.78356e-08
1.78103e-08
1.77599e-08
1.76926e-08
1.74107e-08
1.74751e-08
1.75235e-08
1.75474e-08
1.75543e-08
1.75581e-08
1.75542e-08
1.7553e-08
1.75495e-08
1.75485e-08
1.75462e-08
1.75457e-08
1.75444e-08
1.75442e-08
1.75434e-08
1.75435e-08
1.7543e-08
1.75431e-08
1.75428e-08
1.75429e-08
1.75427e-08
1.75428e-08
1.75427e-08
1.75427e-08
1.75427e-08
1.75427e-08
1.75427e-08
1.75427e-08
1.75428e-08
1.75427e-08
1.75429e-08
1.75428e-08
1.75431e-08
1.7543e-08
1.75435e-08
1.75434e-08
1.75442e-08
1.75444e-08
1.75457e-08
1.75462e-08
1.75485e-08
1.75495e-08
1.7553e-08
1.75542e-08
1.75581e-08
1.75543e-08
1.75474e-08
1.75235e-08
1.74751e-08
1.74107e-08
1.71354e-08
1.7197e-08
1.72432e-08
1.72659e-08
1.72721e-08
1.72756e-08
1.72715e-08
1.72702e-08
1.72667e-08
1.72657e-08
1.72634e-08
1.72629e-08
1.72616e-08
1.72614e-08
1.72606e-08
1.72607e-08
1.72602e-08
1.72603e-08
1.726e-08
1.72601e-08
1.72599e-08
1.726e-08
1.72599e-08
1.72599e-08
1.72599e-08
1.72599e-08
1.72599e-08
1.72599e-08
1.726e-08
1.72599e-08
1.72601e-08
1.726e-08
1.72603e-08
1.72602e-08
1.72607e-08
1.72606e-08
1.72615e-08
1.72616e-08
1.72629e-08
1.72634e-08
1.72657e-08
1.72667e-08
1.72702e-08
1.72715e-08
1.72756e-08
1.72721e-08
1.72659e-08
1.72432e-08
1.7197e-08
1.71354e-08
1.68664e-08
1.69253e-08
1.69694e-08
1.69908e-08
1.69964e-08
1.69995e-08
1.69953e-08
1.69939e-08
1.69905e-08
1.69894e-08
1.69872e-08
1.69866e-08
1.69853e-08
1.69852e-08
1.69843e-08
1.69844e-08
1.69839e-08
1.6984e-08
1.69837e-08
1.69838e-08
1.69836e-08
1.69837e-08
1.69836e-08
1.69836e-08
1.69836e-08
1.69836e-08
1.69836e-08
1.69836e-08
1.69837e-08
1.69836e-08
1.69838e-08
1.69837e-08
1.6984e-08
1.69839e-08
1.69844e-08
1.69843e-08
1.69852e-08
1.69853e-08
1.69866e-08
1.69872e-08
1.69894e-08
1.69905e-08
1.69939e-08
1.69953e-08
1.69995e-08
1.69964e-08
1.69908e-08
1.69693e-08
1.69253e-08
1.68664e-08
1.66035e-08
1.66599e-08
1.67017e-08
1.6722e-08
1.6727e-08
1.67297e-08
1.67253e-08
1.67239e-08
1.67205e-08
1.67193e-08
1.67172e-08
1.67166e-08
1.67153e-08
1.67151e-08
1.67143e-08
1.67144e-08
1.67139e-08
1.6714e-08
1.67137e-08
1.67138e-08
1.67136e-08
1.67137e-08
1.67136e-08
1.67136e-08
1.67136e-08
1.67136e-08
1.67136e-08
1.67136e-08
1.67137e-08
1.67136e-08
1.67138e-08
1.67137e-08
1.6714e-08
1.67139e-08
1.67144e-08
1.67143e-08
1.67151e-08
1.67153e-08
1.67166e-08
1.67172e-08
1.67193e-08
1.67205e-08
1.67239e-08
1.67253e-08
1.67297e-08
1.6727e-08
1.6722e-08
1.67016e-08
1.66599e-08
1.66035e-08
1.63466e-08
1.64005e-08
1.64399e-08
1.64592e-08
1.64636e-08
1.64659e-08
1.64615e-08
1.64599e-08
1.64565e-08
1.64554e-08
1.64532e-08
1.64527e-08
1.64514e-08
1.64512e-08
1.64504e-08
1.64505e-08
1.645e-08
1.64501e-08
1.64498e-08
1.64499e-08
1.64497e-08
1.64498e-08
1.64497e-08
1.64497e-08
1.64497e-08
1.64497e-08
1.64497e-08
1.64497e-08
1.64498e-08
1.64497e-08
1.64499e-08
1.64498e-08
1.64501e-08
1.645e-08
1.64505e-08
1.64504e-08
1.64512e-08
1.64514e-08
1.64527e-08
1.64532e-08
1.64554e-08
1.64565e-08
1.64599e-08
1.64615e-08
1.64659e-08
1.64636e-08
1.64592e-08
1.64399e-08
1.64005e-08
1.63466e-08
1.60955e-08
1.6147e-08
1.61841e-08
1.62024e-08
1.62062e-08
1.62082e-08
1.62035e-08
1.62019e-08
1.61986e-08
1.61973e-08
1.61953e-08
1.61947e-08
1.61934e-08
1.61932e-08
1.61925e-08
1.61925e-08
1.6192e-08
1.61921e-08
1.61918e-08
1.61919e-08
1.61918e-08
1.61918e-08
1.61917e-08
1.61918e-08
1.61917e-08
1.61917e-08
1.61918e-08
1.61917e-08
1.61918e-08
1.61918e-08
1.61919e-08
1.61918e-08
1.61921e-08
1.6192e-08
1.61925e-08
1.61925e-08
1.61932e-08
1.61934e-08
1.61947e-08
1.61953e-08
1.61973e-08
1.61986e-08
1.62019e-08
1.62035e-08
1.62081e-08
1.62062e-08
1.62024e-08
1.6184e-08
1.6147e-08
1.60954e-08
1.58585e-08
1.59081e-08
1.59428e-08
1.59603e-08
1.59636e-08
1.59652e-08
1.59603e-08
1.59586e-08
1.59553e-08
1.59541e-08
1.5952e-08
1.59514e-08
1.59502e-08
1.595e-08
1.59492e-08
1.59493e-08
1.59488e-08
1.59489e-08
1.59486e-08
1.59487e-08
1.59485e-08
1.59486e-08
1.59485e-08
1.59485e-08
1.59485e-08
1.59485e-08
1.59485e-08
1.59485e-08
1.59486e-08
1.59485e-08
1.59487e-08
1.59486e-08
1.59489e-08
1.59488e-08
1.59493e-08
1.59492e-08
1.595e-08
1.59502e-08
1.59514e-08
1.5952e-08
1.59541e-08
1.59553e-08
1.59586e-08
1.59603e-08
1.59651e-08
1.59635e-08
1.59603e-08
1.59428e-08
1.59081e-08
1.58585e-08
1.56242e-08
1.56721e-08
1.57037e-08
1.57199e-08
1.5722e-08
1.57229e-08
1.57175e-08
1.57155e-08
1.5712e-08
1.57107e-08
1.57086e-08
1.57079e-08
1.57066e-08
1.57064e-08
1.57056e-08
1.57056e-08
1.57052e-08
1.57053e-08
1.5705e-08
1.57051e-08
1.57049e-08
1.5705e-08
1.57049e-08
1.57049e-08
1.57049e-08
1.57049e-08
1.57049e-08
1.57049e-08
1.5705e-08
1.57049e-08
1.57051e-08
1.5705e-08
1.57053e-08
1.57052e-08
1.57057e-08
1.57056e-08
1.57064e-08
1.57066e-08
1.57079e-08
1.57086e-08
1.57107e-08
1.5712e-08
1.57155e-08
1.57175e-08
1.57229e-08
1.5722e-08
1.57199e-08
1.57037e-08
1.56721e-08
1.56242e-08
1.53901e-08
1.54359e-08
1.5465e-08
1.54804e-08
1.5482e-08
1.54825e-08
1.54768e-08
1.54747e-08
1.54713e-08
1.547e-08
1.54679e-08
1.54672e-08
1.5466e-08
1.54657e-08
1.5465e-08
1.5465e-08
1.54645e-08
1.54646e-08
1.54643e-08
1.54644e-08
1.54642e-08
1.54643e-08
1.54642e-08
1.54642e-08
1.54642e-08
1.54642e-08
1.54642e-08
1.54642e-08
1.54643e-08
1.54642e-08
1.54644e-08
1.54643e-08
1.54646e-08
1.54645e-08
1.5465e-08
1.5465e-08
1.54657e-08
1.5466e-08
1.54672e-08
1.54679e-08
1.547e-08
1.54713e-08
1.54747e-08
1.54768e-08
1.54825e-08
1.5482e-08
1.54804e-08
1.5465e-08
1.54359e-08
1.53901e-08
1.51609e-08
1.52047e-08
1.52314e-08
1.52459e-08
1.5247e-08
1.52472e-08
1.52412e-08
1.52391e-08
1.52357e-08
1.52343e-08
1.52323e-08
1.52316e-08
1.52304e-08
1.52301e-08
1.52294e-08
1.52294e-08
1.52289e-08
1.5229e-08
1.52287e-08
1.52288e-08
1.52287e-08
1.52287e-08
1.52286e-08
1.52287e-08
1.52286e-08
1.52286e-08
1.52287e-08
1.52286e-08
1.52287e-08
1.52287e-08
1.52288e-08
1.52287e-08
1.5229e-08
1.52289e-08
1.52294e-08
1.52294e-08
1.52301e-08
1.52304e-08
1.52316e-08
1.52323e-08
1.52343e-08
1.52357e-08
1.52391e-08
1.52412e-08
1.52472e-08
1.5247e-08
1.52459e-08
1.52314e-08
1.52047e-08
1.51609e-08
1.49366e-08
1.49782e-08
1.50028e-08
1.50164e-08
1.50171e-08
1.50169e-08
1.50106e-08
1.50083e-08
1.50051e-08
1.50037e-08
1.50016e-08
1.5001e-08
1.49997e-08
1.49995e-08
1.49988e-08
1.49988e-08
1.49983e-08
1.49984e-08
1.49981e-08
1.49982e-08
1.4998e-08
1.49981e-08
1.4998e-08
1.4998e-08
1.4998e-08
1.4998e-08
1.4998e-08
1.4998e-08
1.49981e-08
1.4998e-08
1.49982e-08
1.49981e-08
1.49984e-08
1.49983e-08
1.49988e-08
1.49988e-08
1.49995e-08
1.49998e-08
1.5001e-08
1.50016e-08
1.50036e-08
1.50051e-08
1.50083e-08
1.50106e-08
1.50169e-08
1.50171e-08
1.50164e-08
1.50028e-08
1.49782e-08
1.49366e-08
1.4717e-08
1.47565e-08
1.4779e-08
1.47917e-08
1.4792e-08
1.47915e-08
1.47848e-08
1.47824e-08
1.47792e-08
1.47778e-08
1.47759e-08
1.47752e-08
1.4774e-08
1.47737e-08
1.4773e-08
1.4773e-08
1.47726e-08
1.47726e-08
1.47724e-08
1.47725e-08
1.47723e-08
1.47724e-08
1.47723e-08
1.47723e-08
1.47723e-08
1.47723e-08
1.47723e-08
1.47723e-08
1.47724e-08
1.47723e-08
1.47725e-08
1.47724e-08
1.47726e-08
1.47726e-08
1.4773e-08
1.4773e-08
1.47737e-08
1.4774e-08
1.47752e-08
1.47759e-08
1.47778e-08
1.47792e-08
1.47824e-08
1.47847e-08
1.47915e-08
1.47919e-08
1.47917e-08
1.47789e-08
1.47565e-08
1.4717e-08
1.45093e-08
1.45471e-08
1.45675e-08
1.45795e-08
1.45793e-08
1.45786e-08
1.45713e-08
1.4569e-08
1.45658e-08
1.45644e-08
1.45624e-08
1.45617e-08
1.45606e-08
1.45603e-08
1.45596e-08
1.45596e-08
1.45592e-08
1.45593e-08
1.4559e-08
1.45591e-08
1.45589e-08
1.4559e-08
1.45589e-08
1.45589e-08
1.45589e-08
1.45589e-08
1.45589e-08
1.45589e-08
1.4559e-08
1.45589e-08
1.45591e-08
1.4559e-08
1.45593e-08
1.45592e-08
1.45596e-08
1.45596e-08
1.45603e-08
1.45606e-08
1.45617e-08
1.45624e-08
1.45644e-08
1.45658e-08
1.4569e-08
1.45713e-08
1.45786e-08
1.45793e-08
1.45795e-08
1.45675e-08
1.4547e-08
1.45093e-08
1.43063e-08
1.43422e-08
1.43608e-08
1.4372e-08
1.43714e-08
1.43705e-08
1.43626e-08
1.43601e-08
1.43567e-08
1.4355e-08
1.4353e-08
1.43522e-08
1.4351e-08
1.43506e-08
1.43499e-08
1.43499e-08
1.43494e-08
1.43495e-08
1.43492e-08
1.43493e-08
1.43491e-08
1.43492e-08
1.43491e-08
1.43491e-08
1.43491e-08
1.43491e-08
1.43491e-08
1.43491e-08
1.43492e-08
1.43491e-08
1.43493e-08
1.43492e-08
1.43495e-08
1.43494e-08
1.43499e-08
1.43499e-08
1.43507e-08
1.4351e-08
1.43522e-08
1.4353e-08
1.4355e-08
1.43567e-08
1.43601e-08
1.43626e-08
1.43705e-08
1.43713e-08
1.4372e-08
1.43608e-08
1.43422e-08
1.43063e-08
1.41014e-08
1.41356e-08
1.41522e-08
1.41625e-08
1.41612e-08
1.41601e-08
1.41515e-08
1.41488e-08
1.41454e-08
1.41437e-08
1.41416e-08
1.41408e-08
1.41395e-08
1.41392e-08
1.41385e-08
1.41384e-08
1.4138e-08
1.4138e-08
1.41378e-08
1.41378e-08
1.41377e-08
1.41377e-08
1.41376e-08
1.41377e-08
1.41376e-08
1.41376e-08
1.41377e-08
1.41376e-08
1.41377e-08
1.41377e-08
1.41378e-08
1.41378e-08
1.4138e-08
1.4138e-08
1.41384e-08
1.41385e-08
1.41392e-08
1.41395e-08
1.41408e-08
1.41416e-08
1.41437e-08
1.41454e-08
1.41488e-08
1.41515e-08
1.416e-08
1.41612e-08
1.41625e-08
1.41522e-08
1.41356e-08
1.41014e-08
1.38997e-08
1.39319e-08
1.39468e-08
1.39562e-08
1.39545e-08
1.39533e-08
1.39512e-08
1.39485e-08
1.39451e-08
1.39434e-08
1.39414e-08
1.39405e-08
1.39393e-08
1.3939e-08
1.39383e-08
1.39382e-08
1.39378e-08
1.39378e-08
1.39376e-08
1.39376e-08
1.39375e-08
1.39375e-08
1.39374e-08
1.39375e-08
1.39374e-08
1.39374e-08
1.39375e-08
1.39374e-08
1.39375e-08
1.39375e-08
1.39376e-08
1.39376e-08
1.39378e-08
1.39378e-08
1.39382e-08
1.39383e-08
1.3939e-08
1.39393e-08
1.39405e-08
1.39414e-08
1.39434e-08
1.39451e-08
1.39485e-08
1.39512e-08
1.39533e-08
1.39545e-08
1.39562e-08
1.39468e-08
1.39319e-08
1.38997e-08
1.37085e-08
1.3739e-08
1.37523e-08
1.37609e-08
1.37589e-08
1.37575e-08
1.37552e-08
1.37525e-08
1.37492e-08
1.37474e-08
1.37454e-08
1.37446e-08
1.37434e-08
1.3743e-08
1.37423e-08
1.37423e-08
1.37418e-08
1.37419e-08
1.37416e-08
1.37417e-08
1.37415e-08
1.37416e-08
1.37415e-08
1.37415e-08
1.37415e-08
1.37415e-08
1.37415e-08
1.37415e-08
1.37416e-08
1.37415e-08
1.37417e-08
1.37416e-08
1.37419e-08
1.37418e-08
1.37423e-08
1.37423e-08
1.3743e-08
1.37434e-08
1.37446e-08
1.37454e-08
1.37474e-08
1.37492e-08
1.37525e-08
1.37552e-08
1.37575e-08
1.37588e-08
1.37609e-08
1.37523e-08
1.3739e-08
1.37085e-08
1.35202e-08
1.35496e-08
1.35609e-08
1.35685e-08
1.35653e-08
1.35636e-08
1.35607e-08
1.35578e-08
1.35543e-08
1.35525e-08
1.35504e-08
1.35495e-08
1.35482e-08
1.35479e-08
1.35472e-08
1.35471e-08
1.35466e-08
1.35467e-08
1.35464e-08
1.35465e-08
1.35463e-08
1.35464e-08
1.35463e-08
1.35463e-08
1.35463e-08
1.35463e-08
1.35463e-08
1.35463e-08
1.35464e-08
1.35463e-08
1.35465e-08
1.35464e-08
1.35467e-08
1.35466e-08
1.35471e-08
1.35472e-08
1.35479e-08
1.35483e-08
1.35495e-08
1.35504e-08
1.35525e-08
1.35543e-08
1.35578e-08
1.35607e-08
1.35636e-08
1.35653e-08
1.35685e-08
1.35609e-08
1.35496e-08
1.35202e-08
1.33367e-08
1.33646e-08
1.33743e-08
1.33811e-08
1.33776e-08
1.33756e-08
1.33725e-08
1.33696e-08
1.33661e-08
1.33643e-08
1.33622e-08
1.33613e-08
1.336e-08
1.33597e-08
1.3359e-08
1.33589e-08
1.33584e-08
1.33585e-08
1.33582e-08
1.33583e-08
1.33581e-08
1.33582e-08
1.33581e-08
1.33581e-08
1.33581e-08
1.33581e-08
1.33581e-08
1.33581e-08
1.33582e-08
1.33581e-08
1.33583e-08
1.33582e-08
1.33585e-08
1.33584e-08
1.33589e-08
1.3359e-08
1.33597e-08
1.33601e-08
1.33613e-08
1.33622e-08
1.33643e-08
1.33661e-08
1.33696e-08
1.33725e-08
1.33756e-08
1.33776e-08
1.33811e-08
1.33743e-08
1.33646e-08
1.33367e-08
1.31569e-08
1.31832e-08
1.31913e-08
1.31975e-08
1.31935e-08
1.31915e-08
1.31881e-08
1.31851e-08
1.31817e-08
1.31798e-08
1.31778e-08
1.31768e-08
1.31756e-08
1.31752e-08
1.31745e-08
1.31744e-08
1.3174e-08
1.3174e-08
1.31738e-08
1.31738e-08
1.31737e-08
1.31737e-08
1.31736e-08
1.31737e-08
1.31736e-08
1.31736e-08
1.31737e-08
1.31736e-08
1.31737e-08
1.31737e-08
1.31738e-08
1.31738e-08
1.3174e-08
1.3174e-08
1.31744e-08
1.31745e-08
1.31753e-08
1.31756e-08
1.31768e-08
1.31778e-08
1.31798e-08
1.31817e-08
1.31851e-08
1.31881e-08
1.31915e-08
1.31935e-08
1.31975e-08
1.31913e-08
1.31832e-08
1.31569e-08
1.2993e-08
1.2993e-08
1.29929e-08
1.29929e-08
1.29928e-08
1.29928e-08
1.29928e-08
1.29928e-08
1.29928e-08
1.29928e-08
1.29929e-08
1.29929e-08
1.2993e-08
1.2993e-08
1.29932e-08
1.29932e-08
1.29936e-08
1.29937e-08
1.29944e-08
1.29948e-08
1.2996e-08
1.29969e-08
1.2999e-08
1.30008e-08
1.30043e-08
1.30073e-08
1.30108e-08
1.3013e-08
1.30175e-08
1.3012e-08
1.30052e-08
1.29805e-08
1.28155e-08
1.28155e-08
1.28156e-08
1.28156e-08
1.28158e-08
1.28158e-08
1.28162e-08
1.28163e-08
1.2817e-08
1.28174e-08
1.28186e-08
1.28195e-08
1.28215e-08
1.28234e-08
1.28268e-08
1.28299e-08
1.28336e-08
1.2836e-08
1.28408e-08
1.2836e-08
1.28306e-08
1.28074e-08
1.26474e-08
1.26493e-08
1.26526e-08
1.26557e-08
1.26596e-08
1.26622e-08
1.26674e-08
1.26632e-08
1.26591e-08
1.26375e-08
)
;

boundaryField
{
    fuel
    {
        type            fixedValue;
        value           nonuniform 0();
    }
    wall
    {
        type            zeroGradient;
    }
    outlet
    {
        type            zeroGradient;
    }
    frontAndBack
    {
        type            empty;
    }
    procBoundary0to1
    {
        type            processor;
        value           nonuniform List<scalar> 
50
(
2.47565e-08
2.48625e-08
2.49643e-08
2.5017e-08
2.50375e-08
2.50492e-08
2.50464e-08
2.50481e-08
2.50439e-08
2.50444e-08
2.50417e-08
2.50421e-08
2.50404e-08
2.50408e-08
2.50398e-08
2.50402e-08
2.50395e-08
2.50398e-08
2.50394e-08
2.50397e-08
2.50394e-08
2.50395e-08
2.50393e-08
2.50394e-08
2.50394e-08
2.50394e-08
2.50394e-08
2.50393e-08
2.50395e-08
2.50394e-08
2.50397e-08
2.50394e-08
2.50398e-08
2.50395e-08
2.50402e-08
2.50398e-08
2.50408e-08
2.50404e-08
2.50421e-08
2.50417e-08
2.50444e-08
2.50439e-08
2.50481e-08
2.50464e-08
2.50492e-08
2.50375e-08
2.5017e-08
2.49643e-08
2.48625e-08
2.47565e-08
)
;
    }
    procBoundary0to2
    {
        type            processor;
        value           nonuniform List<scalar> 
53
(
1.29805e-08
1.30052e-08
1.3012e-08
1.30175e-08
1.30131e-08
1.30108e-08
1.30073e-08
1.30043e-08
1.30008e-08
1.2999e-08
1.29969e-08
1.2996e-08
1.29948e-08
1.29944e-08
1.29937e-08
1.29936e-08
1.29932e-08
1.29932e-08
1.29932e-08
1.28156e-08
1.28156e-08
1.28155e-08
1.28155e-08
1.28154e-08
1.28154e-08
1.28154e-08
1.28154e-08
1.28154e-08
1.28154e-08
1.28154e-08
1.26414e-08
1.26413e-08
1.26415e-08
1.26414e-08
1.26417e-08
1.26417e-08
1.26421e-08
1.26422e-08
1.26429e-08
1.26433e-08
1.26444e-08
1.26454e-08
1.26454e-08
1.24763e-08
1.24782e-08
1.24816e-08
1.24847e-08
1.24888e-08
1.24914e-08
1.2497e-08
1.24935e-08
1.24907e-08
1.24705e-08
)
;
    }
}


// ************************************************************************* //
