/*--------------------------------*- C++ -*----------------------------------*\
| =========                 |                                                 |
| \\      /  F ield         | OpenFOAM: The Open Source CFD Toolbox           |
|  \\    /   O peration     | Version:  dev                                   |
|   \\  /    A nd           | Web:      www.OpenFOAM.org                      |
|    \\/     M anipulation  |                                                 |
\*---------------------------------------------------------------------------*/
FoamFile
{
    version     2.0;
    format      ascii;
    class       volScalarField;
    location    "0.07";
    object      PC3H4;
}
// * * * * * * * * * * * * * * * * * * * * * * * * * * * * * * * * * * * * * //

dimensions      [0 0 0 0 0 0 0];

internalField   nonuniform List<scalar> 
25
(
7.83043e-09
1.22776e-08
1.13154e-08
8.61006e-09
5.84745e-09
3.65856e-09
2.1508e-09
1.2065e-09
6.47026e-10
3.40335e-10
1.73041e-10
8.73137e-11
4.29985e-11
2.08949e-11
1.0069e-11
4.82666e-12
2.30978e-12
1.10851e-12
5.36905e-13
2.64834e-13
1.34737e-13
7.18897e-14
4.10225e-14
2.5614e-14
1.82993e-14
)
;

boundaryField
{
    wall
    {
        type            zeroGradient;
    }
    fuel
    {
        type            fixedValue;
        value           uniform 0;
    }
    outlet
    {
        type            inletOutlet;
        inletValue      nonuniform 0();
        value           nonuniform 0();
    }
    procBoundary0to1
    {
        type            processor;
        value           uniform 1.36263e-14;
    }
}


// ************************************************************************* //
