/*--------------------------------*- C++ -*----------------------------------*\
| =========                 |                                                 |
| \\      /  F ield         | OpenFOAM: The Open Source CFD Toolbox           |
|  \\    /   O peration     | Version:  dev                                   |
|   \\  /    A nd           | Web:      www.OpenFOAM.org                      |
|    \\/     M anipulation  |                                                 |
\*---------------------------------------------------------------------------*/
FoamFile
{
    version     2.0;
    format      ascii;
    class       volScalarField;
    location    "0.065";
    object      A2C2HA;
}
// * * * * * * * * * * * * * * * * * * * * * * * * * * * * * * * * * * * * * //

dimensions      [0 0 0 0 0 0 0];

internalField   nonuniform List<scalar> 
250
(
2.85445e-08
2.85523e-08
2.85491e-08
2.8546e-08
2.85491e-08
2.8548e-08
2.85779e-08
2.87502e-08
3.00018e-08
3.90199e-08
1.15456e-09
1.81064e-08
1.81069e-08
1.81041e-08
1.81069e-08
1.81071e-08
1.81087e-08
1.8135e-08
1.83055e-08
1.95325e-08
2.905e-08
2.50124e-09
1.08545e-08
1.08538e-08
1.0852e-08
1.08552e-08
1.08546e-08
1.08576e-08
1.08773e-08
1.10255e-08
1.20883e-08
2.07192e-08
3.36011e-09
7.03908e-09
7.03851e-09
7.03744e-09
7.03994e-09
7.03924e-09
7.04245e-09
7.05796e-09
7.18681e-09
8.12985e-09
1.60236e-08
3.9075e-09
4.94591e-09
4.94581e-09
4.94531e-09
4.94696e-09
4.94641e-09
4.94934e-09
4.96195e-09
5.07302e-09
5.92443e-09
1.33259e-08
4.28323e-09
3.61112e-09
3.61248e-09
3.61249e-09
3.6131e-09
3.61283e-09
3.61586e-09
3.62839e-09
3.75023e-09
4.58667e-09
1.16466e-08
4.5607e-09
2.79247e-09
2.79504e-09
2.7953e-09
2.79547e-09
2.7954e-09
2.79786e-09
2.80821e-09
2.91759e-09
3.71002e-09
1.05125e-08
4.76848e-09
2.19936e-09
2.20583e-09
2.20648e-09
2.20592e-09
2.20626e-09
2.20922e-09
2.22311e-09
2.3464e-09
3.07242e-09
9.68512e-09
4.8951e-09
1.79772e-09
1.80863e-09
1.80942e-09
1.80861e-09
1.80914e-09
1.8117e-09
1.82433e-09
1.91702e-09
2.56951e-09
9.0332e-09
4.83829e-09
1.48567e-09
1.48016e-09
1.48092e-09
1.47997e-09
1.48063e-09
1.48276e-09
1.49415e-09
1.57928e-09
2.23715e-09
8.47992e-09
4.62438e-09
1.26507e-09
1.26586e-09
1.26479e-09
1.26557e-09
1.26737e-09
1.27782e-09
1.3556e-09
1.9667e-09
7.97835e-09
4.69994e-09
1.08768e-09
1.08853e-09
1.08729e-09
1.08819e-09
1.08997e-09
1.10074e-09
1.18499e-09
1.74052e-09
7.50236e-09
5.26102e-09
9.47055e-10
9.47891e-10
9.46619e-10
9.47569e-10
9.49147e-10
9.59322e-10
1.03809e-09
1.55535e-09
7.01887e-09
6.24349e-09
8.36292e-10
8.37108e-10
8.35832e-10
8.36805e-10
8.38235e-10
8.47959e-10
9.21876e-10
1.4202e-09
6.54771e-09
7.50934e-09
7.47144e-10
7.4794e-10
7.46676e-10
7.47655e-10
7.48978e-10
7.58339e-10
8.2779e-10
1.29525e-09
6.0712e-09
8.88727e-09
6.73893e-10
6.74663e-10
6.73425e-10
6.74397e-10
6.7564e-10
6.84641e-10
7.49987e-10
1.18294e-09
5.57093e-09
1.02194e-08
6.12556e-10
6.13293e-10
6.12091e-10
6.13045e-10
6.14229e-10
6.22866e-10
6.84364e-10
1.08503e-09
5.09331e-09
1.13039e-08
5.60346e-10
5.61041e-10
5.59884e-10
5.60811e-10
5.61948e-10
5.70214e-10
6.28026e-10
1.00632e-09
4.60158e-09
1.20324e-08
5.15294e-10
5.15938e-10
5.14836e-10
5.15725e-10
5.16825e-10
5.24712e-10
5.78872e-10
9.24999e-10
4.08906e-09
1.2332e-08
4.75999e-10
4.76582e-10
4.75543e-10
4.76385e-10
4.77451e-10
4.84952e-10
5.35468e-10
8.4996e-10
3.60311e-09
1.21973e-08
4.41451e-10
4.41961e-10
4.40999e-10
4.4178e-10
4.42816e-10
4.49921e-10
4.96778e-10
7.81332e-10
3.15135e-09
1.16763e-08
4.10911e-10
4.11334e-10
4.10463e-10
4.11167e-10
4.12177e-10
4.18878e-10
4.62026e-10
7.18773e-10
2.73892e-09
1.0852e-08
3.87065e-10
3.87419e-10
3.86614e-10
3.87261e-10
3.88234e-10
3.94591e-10
4.34457e-10
6.62086e-10
2.36705e-09
9.8233e-09
3.64843e-10
3.65149e-10
3.64406e-10
3.65014e-10
3.65972e-10
3.71986e-10
4.09253e-10
6.11059e-10
2.07629e-09
8.68799e-09
)
;

boundaryField
{
    fuel
    {
        type            fixedValue;
        value           uniform 0;
    }
    wall
    {
        type            zeroGradient;
    }
    outlet
    {
        type            zeroGradient;
    }
    frontAndBack
    {
        type            empty;
    }
    procBoundary3to0
    {
        type            processor;
        value           nonuniform List<scalar> 10(3.47503e-10 3.47724e-10 3.47066e-10 3.47595e-10 3.48518e-10 3.54209e-10 3.88429e-10 5.65283e-10 1.80122e-09 7.53002e-09);
    }
    procBoundary3to2
    {
        type            processor;
        value           nonuniform List<scalar> 
25
(
2.85411e-08
1.81027e-08
1.08528e-08
7.03874e-09
4.9465e-09
3.61339e-09
2.79598e-09
2.20691e-09
1.80973e-09
1.48121e-09
1.26874e-09
1.26874e-09
1.09058e-09
9.50352e-10
8.39146e-10
7.49391e-10
6.75599e-10
6.13842e-10
5.61319e-10
5.16033e-10
4.76559e-10
4.41875e-10
4.11227e-10
3.87312e-10
3.65029e-10
)
;
    }
}


// ************************************************************************* //
