/*--------------------------------*- C++ -*----------------------------------*\
| =========                 |                                                 |
| \\      /  F ield         | OpenFOAM: The Open Source CFD Toolbox           |
|  \\    /   O peration     | Version:  dev                                   |
|   \\  /    A nd           | Web:      www.OpenFOAM.org                      |
|    \\/     M anipulation  |                                                 |
\*---------------------------------------------------------------------------*/
FoamFile
{
    version     2.0;
    format      ascii;
    class       volScalarField;
    location    "0.065";
    object      CH;
}
// * * * * * * * * * * * * * * * * * * * * * * * * * * * * * * * * * * * * * //

dimensions      [0 0 0 0 0 0 0];

internalField   nonuniform List<scalar> 
250
(
3.64464e-06
3.64536e-06
3.6447e-06
3.64481e-06
3.64654e-06
3.64804e-06
3.64466e-06
3.63885e-06
3.57495e-06
2.74568e-06
7.30224e-10
2.00258e-06
2.00243e-06
2.00267e-06
2.00225e-06
2.00313e-06
2.00268e-06
2.00266e-06
1.99935e-06
1.9665e-06
1.59443e-06
4.76185e-10
7.98391e-07
7.98152e-07
7.98464e-07
7.98021e-07
7.9863e-07
7.98023e-07
7.98497e-07
7.96806e-07
7.791e-07
6.19979e-07
2.33156e-10
3.03486e-07
3.03351e-07
3.03526e-07
3.03271e-07
3.03602e-07
3.0323e-07
3.03538e-07
3.02741e-07
2.92978e-07
2.22741e-07
9.78052e-11
1.27519e-07
1.27444e-07
1.27522e-07
1.274e-07
1.27547e-07
1.27366e-07
1.27458e-07
1.26887e-07
1.21129e-07
8.39677e-08
4.10603e-11
6.2903e-08
6.2911e-08
6.29354e-08
6.28798e-08
6.29674e-08
6.28801e-08
6.29806e-08
6.2904e-08
5.82321e-08
3.57835e-08
1.90369e-11
3.8856e-08
3.88582e-08
3.88642e-08
3.88384e-08
3.88797e-08
3.88388e-08
3.88514e-08
3.84769e-08
3.49743e-08
1.69742e-08
9.99926e-12
2.76387e-08
2.76428e-08
2.76416e-08
2.76284e-08
2.76549e-08
2.76356e-08
2.76333e-08
2.77643e-08
2.47386e-08
9.88844e-09
7.44045e-12
2.26324e-08
2.26386e-08
2.26359e-08
2.26271e-08
2.26491e-08
2.26356e-08
2.26212e-08
2.25282e-08
1.94434e-08
6.79228e-09
1.16423e-11
1.99024e-08
1.99112e-08
1.99092e-08
1.9901e-08
1.99246e-08
1.99115e-08
1.98975e-08
1.97349e-08
1.68984e-08
5.16837e-09
1.6745e-11
1.80743e-08
1.80745e-08
1.80639e-08
1.80939e-08
1.80784e-08
1.80786e-08
1.79207e-08
1.52869e-08
4.38669e-09
2.14127e-11
1.67991e-08
1.68027e-08
1.67889e-08
1.68253e-08
1.68058e-08
1.68154e-08
1.66381e-08
1.41662e-08
4.07004e-09
2.94616e-11
1.58225e-08
1.58299e-08
1.58119e-08
1.58558e-08
1.58318e-08
1.58517e-08
1.56688e-08
1.33588e-08
4.03198e-09
4.44946e-11
1.49972e-08
1.50085e-08
1.49859e-08
1.50378e-08
1.50091e-08
1.50396e-08
1.48587e-08
1.27165e-08
4.14412e-09
7.03722e-11
1.42464e-08
1.42618e-08
1.42341e-08
1.42945e-08
1.42608e-08
1.43024e-08
1.41283e-08
1.21583e-08
4.3547e-09
1.13872e-10
1.35283e-08
1.3548e-08
1.35149e-08
1.35841e-08
1.35454e-08
1.35984e-08
1.34345e-08
1.16376e-08
4.62293e-09
1.86364e-10
1.28188e-08
1.28429e-08
1.28043e-08
1.28825e-08
1.28389e-08
1.29036e-08
1.27523e-08
1.11261e-08
4.93804e-09
3.04608e-10
1.21031e-08
1.21317e-08
1.20877e-08
1.21746e-08
1.21263e-08
1.22028e-08
1.20663e-08
1.06052e-08
5.22361e-09
4.88275e-10
1.13713e-08
1.14043e-08
1.13551e-08
1.14504e-08
1.13976e-08
1.14859e-08
1.13655e-08
1.0063e-08
5.46598e-09
7.54354e-10
1.06158e-08
1.06534e-08
1.05991e-08
1.07023e-08
1.06455e-08
1.0745e-08
1.06416e-08
9.492e-09
5.65019e-09
1.10609e-09
9.83072e-09
9.87273e-09
9.81387e-09
9.92398e-09
9.86362e-09
9.97385e-09
9.88683e-09
8.88864e-09
5.73907e-09
1.52206e-09
9.01016e-09
9.05644e-09
8.99362e-09
9.10927e-09
9.04598e-09
9.16586e-09
9.09265e-09
8.25392e-09
5.72981e-09
1.95523e-09
8.24926e-09
8.29852e-09
8.23267e-09
8.35246e-09
8.28777e-09
8.41408e-09
8.36083e-09
7.58843e-09
5.61713e-09
2.34499e-09
7.41358e-09
7.46986e-09
7.39637e-09
7.52835e-09
7.45689e-09
7.60171e-09
7.58691e-09
6.95616e-09
5.39309e-09
2.63873e-09
)
;

boundaryField
{
    fuel
    {
        type            fixedValue;
        value           uniform 0;
    }
    wall
    {
        type            zeroGradient;
    }
    outlet
    {
        type            zeroGradient;
    }
    frontAndBack
    {
        type            empty;
    }
    procBoundary3to0
    {
        type            processor;
        value           nonuniform List<scalar> 10(6.61029e-09 6.66885e-09 6.59343e-09 6.72734e-09 6.65537e-09 6.80438e-09 6.80931e-09 6.22783e-09 5.08118e-09 2.79188e-09);
    }
    procBoundary3to2
    {
        type            processor;
        value           nonuniform List<scalar> 
25
(
3.64482e-06
2.00228e-06
7.98046e-07
3.03297e-07
1.27429e-07
6.29091e-08
3.88708e-08
2.7669e-08
2.26699e-08
1.99454e-08
1.80646e-08
1.80646e-08
1.67862e-08
1.58078e-08
1.49816e-08
1.42306e-08
1.35127e-08
1.28037e-08
1.20886e-08
1.13575e-08
1.06028e-08
9.81888e-09
8.99989e-09
8.23919e-09
7.40407e-09
)
;
    }
}


// ************************************************************************* //
