/*--------------------------------*- C++ -*----------------------------------*\
| =========                 |                                                 |
| \\      /  F ield         | OpenFOAM: The Open Source CFD Toolbox           |
|  \\    /   O peration     | Version:  dev                                   |
|   \\  /    A nd           | Web:      www.OpenFOAM.org                      |
|    \\/     M anipulation  |                                                 |
\*---------------------------------------------------------------------------*/
FoamFile
{
    version     2.0;
    format      ascii;
    class       volScalarField;
    location    "0.065";
    object      CH2(S);
}
// * * * * * * * * * * * * * * * * * * * * * * * * * * * * * * * * * * * * * //

dimensions      [0 0 0 0 0 0 0];

internalField   nonuniform List<scalar> 
250
(
2.26273e-06
2.26295e-06
2.26278e-06
2.26278e-06
2.26337e-06
2.26432e-06
2.2629e-06
2.26078e-06
2.23858e-06
1.92713e-06
5.12809e-10
1.32857e-06
1.32849e-06
1.32863e-06
1.32838e-06
1.3288e-06
1.32857e-06
1.32871e-06
1.32746e-06
1.31443e-06
1.15656e-06
3.45697e-10
6.50847e-07
6.50716e-07
6.50911e-07
6.50622e-07
6.50996e-07
6.50609e-07
6.50979e-07
6.5015e-07
6.40314e-07
5.46221e-07
2.03266e-10
3.22074e-07
3.21984e-07
3.22117e-07
3.21917e-07
3.22174e-07
3.21881e-07
3.2215e-07
3.21595e-07
3.13879e-07
2.53181e-07
1.08923e-10
1.7744e-07
1.77377e-07
1.77449e-07
1.77331e-07
1.77475e-07
1.77297e-07
1.77395e-07
1.76827e-07
1.70648e-07
1.25518e-07
5.99268e-11
1.11169e-07
1.11186e-07
1.11212e-07
1.11146e-07
1.11253e-07
1.11148e-07
1.11273e-07
1.11152e-07
1.0487e-07
6.93137e-08
3.67675e-11
8.11969e-08
8.12038e-08
8.12106e-08
8.11742e-08
8.12352e-08
8.11773e-08
8.1197e-08
8.06299e-08
7.51046e-08
4.14992e-08
2.82698e-11
6.47527e-08
6.47621e-08
6.47596e-08
6.47377e-08
6.4784e-08
6.47523e-08
6.4754e-08
6.49503e-08
5.96649e-08
2.87306e-08
3.63548e-11
5.6537e-08
5.65505e-08
5.65458e-08
5.65292e-08
5.65721e-08
5.65473e-08
5.65307e-08
5.6366e-08
5.06232e-08
2.22213e-08
6.84062e-11
5.16862e-08
5.17046e-08
5.17014e-08
5.16844e-08
5.17331e-08
5.17074e-08
5.16927e-08
5.14045e-08
4.59046e-08
1.83951e-08
9.86016e-11
4.82335e-08
4.82347e-08
4.82123e-08
4.82752e-08
4.82439e-08
4.82575e-08
4.79794e-08
4.27326e-08
1.64345e-08
1.27098e-10
4.57036e-08
4.57116e-08
4.56819e-08
4.57596e-08
4.57197e-08
4.57534e-08
4.54376e-08
4.04221e-08
1.56475e-08
1.7832e-10
4.369e-08
4.37059e-08
4.3667e-08
4.37615e-08
4.37118e-08
4.37681e-08
4.34412e-08
3.8695e-08
1.56116e-08
2.7402e-10
4.19381e-08
4.19625e-08
4.19131e-08
4.20259e-08
4.19657e-08
4.2046e-08
4.17231e-08
3.72808e-08
1.59962e-08
4.38879e-10
4.03107e-08
4.03441e-08
4.02832e-08
4.04156e-08
4.03443e-08
4.04496e-08
4.01402e-08
3.60254e-08
1.66525e-08
7.12799e-10
3.87304e-08
3.87734e-08
3.87003e-08
3.88532e-08
3.87704e-08
3.8902e-08
3.86124e-08
3.48362e-08
1.74591e-08
1.15293e-09
3.71508e-08
3.72038e-08
3.71181e-08
3.72921e-08
3.71977e-08
3.73566e-08
3.70917e-08
3.36546e-08
1.83828e-08
1.82759e-09
3.55411e-08
3.56047e-08
3.5506e-08
3.57014e-08
3.55954e-08
3.57823e-08
3.55456e-08
3.244e-08
1.92072e-08
2.79749e-09
3.38783e-08
3.39528e-08
3.38411e-08
3.40577e-08
3.39405e-08
3.41556e-08
3.39499e-08
3.11641e-08
1.99e-08
4.09018e-09
3.21429e-08
3.22288e-08
3.21041e-08
3.23415e-08
3.22134e-08
3.24567e-08
3.22832e-08
2.98067e-08
2.04262e-08
5.66702e-09
3.03165e-08
3.0414e-08
3.02767e-08
3.05338e-08
3.03955e-08
3.06662e-08
3.05237e-08
2.83557e-08
2.06873e-08
7.40528e-09
2.83779e-08
2.84873e-08
2.83382e-08
2.8613e-08
2.84652e-08
2.87625e-08
2.86447e-08
2.68075e-08
2.06792e-08
9.1179e-09
2.65458e-08
2.66646e-08
2.65053e-08
2.67954e-08
2.66412e-08
2.69586e-08
2.68814e-08
2.51563e-08
2.03865e-08
1.06037e-08
2.44916e-08
2.46307e-08
2.44486e-08
2.47758e-08
2.4601e-08
2.49702e-08
2.49799e-08
2.35555e-08
1.97836e-08
1.17103e-08
)
;

boundaryField
{
    fuel
    {
        type            fixedValue;
        value           uniform 0;
    }
    wall
    {
        type            zeroGradient;
    }
    outlet
    {
        type            zeroGradient;
    }
    frontAndBack
    {
        type            empty;
    }
    procBoundary3to0
    {
        type            processor;
        value           nonuniform List<scalar> 10(2.2465e-08 2.26137e-08 2.24218e-08 2.27626e-08 2.25818e-08 2.29699e-08 2.30238e-08 2.16703e-08 1.89234e-08 1.23108e-08);
    }
    procBoundary3to2
    {
        type            processor;
        value           nonuniform List<scalar> 
25
(
2.26282e-06
1.3284e-06
6.50642e-07
3.21939e-07
1.77362e-07
1.11186e-07
8.12259e-08
6.48091e-08
5.66096e-08
5.17716e-08
4.82134e-08
4.82134e-08
4.56759e-08
4.36581e-08
4.1904e-08
4.02758e-08
3.86958e-08
3.7117e-08
3.55083e-08
3.38468e-08
3.2113e-08
3.02887e-08
2.83534e-08
2.65213e-08
2.44679e-08
)
;
    }
}


// ************************************************************************* //
