/*--------------------------------*- C++ -*----------------------------------*\
| =========                 |                                                 |
| \\      /  F ield         | OpenFOAM: The Open Source CFD Toolbox           |
|  \\    /   O peration     | Version:  dev                                   |
|   \\  /    A nd           | Web:      www.OpenFOAM.org                      |
|    \\/     M anipulation  |                                                 |
\*---------------------------------------------------------------------------*/
FoamFile
{
    version     2.0;
    format      ascii;
    class       volScalarField;
    location    "0.065";
    object      CH2CO;
}
// * * * * * * * * * * * * * * * * * * * * * * * * * * * * * * * * * * * * * //

dimensions      [0 0 0 0 0 0 0];

internalField   nonuniform List<scalar> 
25
(
4.83903e-08
4.65718e-08
4.45234e-08
4.2326e-08
3.99801e-08
3.75851e-08
3.49112e-08
3.20591e-08
2.93409e-08
2.67802e-08
2.43929e-08
2.21429e-08
2.00422e-08
1.80909e-08
1.62533e-08
1.4482e-08
1.27815e-08
1.12262e-08
9.86284e-09
8.65164e-09
7.49545e-09
6.30928e-09
5.0212e-09
3.59611e-09
1.90344e-09
)
;

boundaryField
{
    wall
    {
        type            zeroGradient;
    }
    fuel
    {
        type            fixedValue;
        value           nonuniform 0();
    }
    outlet
    {
        type            inletOutlet;
        inletValue      uniform 0;
        value           uniform 0;
    }
    procBoundary3to2
    {
        type            processor;
        value           uniform 4.9988e-08;
    }
}


// ************************************************************************* //
