/*--------------------------------*- C++ -*----------------------------------*\
| =========                 |                                                 |
| \\      /  F ield         | OpenFOAM: The Open Source CFD Toolbox           |
|  \\    /   O peration     | Version:  dev                                   |
|   \\  /    A nd           | Web:      www.OpenFOAM.org                      |
|    \\/     M anipulation  |                                                 |
\*---------------------------------------------------------------------------*/
FoamFile
{
    version     2.0;
    format      ascii;
    class       volScalarField;
    location    "0.065";
    object      H2C4O;
}
// * * * * * * * * * * * * * * * * * * * * * * * * * * * * * * * * * * * * * //

dimensions      [0 0 0 0 0 0 0];

internalField   nonuniform List<scalar> 
1989
(
8.69454e-07
8.69347e-07
8.69301e-07
8.69232e-07
8.69219e-07
8.69178e-07
8.69177e-07
8.69154e-07
8.69158e-07
8.69145e-07
8.69149e-07
8.69142e-07
8.69144e-07
8.69142e-07
8.69142e-07
8.69144e-07
8.69141e-07
8.69148e-07
8.69144e-07
8.69157e-07
8.69152e-07
8.69176e-07
8.69176e-07
8.69217e-07
8.69231e-07
8.69299e-07
8.69345e-07
8.6945e-07
8.69573e-07
8.69748e-07
8.70019e-07
8.70318e-07
8.70877e-07
8.71433e-07
8.72416e-07
8.73569e-07
8.74979e-07
8.77188e-07
8.78399e-07
8.61463e-07
8.60183e-07
8.57885e-07
8.56426e-07
8.55252e-07
8.54239e-07
8.53676e-07
8.53107e-07
8.52808e-07
8.5253e-07
8.52351e-07
8.52232e-07
8.52121e-07
8.52073e-07
8.51999e-07
8.51984e-07
8.51939e-07
8.51937e-07
8.51912e-07
8.51916e-07
8.51903e-07
8.51906e-07
8.51899e-07
8.51901e-07
8.51899e-07
8.51899e-07
8.51901e-07
8.51898e-07
8.51906e-07
8.51902e-07
8.51915e-07
8.51911e-07
8.51936e-07
8.51938e-07
8.51983e-07
8.51998e-07
8.52071e-07
8.52119e-07
8.52227e-07
8.52353e-07
8.5253e-07
8.52808e-07
8.53108e-07
8.53678e-07
8.5424e-07
8.55251e-07
8.56425e-07
8.57885e-07
8.60178e-07
8.61461e-07
8.43971e-07
8.42622e-07
8.40239e-07
8.38734e-07
8.37537e-07
8.365e-07
8.35931e-07
8.35352e-07
8.35054e-07
8.34769e-07
8.34588e-07
8.34467e-07
8.34352e-07
8.34302e-07
8.34223e-07
8.34206e-07
8.34156e-07
8.34153e-07
8.34124e-07
8.34129e-07
8.34115e-07
8.34117e-07
8.34109e-07
8.34112e-07
8.3411e-07
8.3411e-07
8.34112e-07
8.34109e-07
8.34116e-07
8.34114e-07
8.34128e-07
8.34123e-07
8.34151e-07
8.34155e-07
8.34204e-07
8.34222e-07
8.34301e-07
8.34351e-07
8.34462e-07
8.3459e-07
8.34769e-07
8.35053e-07
8.35353e-07
8.35934e-07
8.36499e-07
8.37536e-07
8.38733e-07
8.40239e-07
8.42617e-07
8.43968e-07
8.25728e-07
8.24276e-07
8.21807e-07
8.20235e-07
8.19014e-07
8.17936e-07
8.17365e-07
8.16771e-07
8.16472e-07
8.16181e-07
8.15998e-07
8.15873e-07
8.15755e-07
8.15702e-07
8.15617e-07
8.15596e-07
8.1554e-07
8.15533e-07
8.15501e-07
8.15505e-07
8.1549e-07
8.1549e-07
8.15482e-07
8.15485e-07
8.15482e-07
8.15482e-07
8.15485e-07
8.15482e-07
8.1549e-07
8.15489e-07
8.15504e-07
8.155e-07
8.15532e-07
8.15539e-07
8.15595e-07
8.15616e-07
8.15701e-07
8.15753e-07
8.15869e-07
8.15998e-07
8.1618e-07
8.16471e-07
8.16771e-07
8.17367e-07
8.17936e-07
8.19013e-07
8.20234e-07
8.21807e-07
8.2427e-07
8.25725e-07
8.07053e-07
8.05525e-07
8.02991e-07
8.01381e-07
8.00145e-07
7.99032e-07
7.98468e-07
7.97861e-07
7.97564e-07
7.9727e-07
7.97086e-07
7.9696e-07
7.9684e-07
7.96785e-07
7.96696e-07
7.96673e-07
7.96611e-07
7.96602e-07
7.96564e-07
7.96569e-07
7.96553e-07
7.96548e-07
7.9654e-07
7.96543e-07
7.9654e-07
7.9654e-07
7.96543e-07
7.96539e-07
7.96548e-07
7.96552e-07
7.96568e-07
7.96563e-07
7.96601e-07
7.9661e-07
7.96672e-07
7.96695e-07
7.96784e-07
7.96838e-07
7.96955e-07
7.97085e-07
7.97269e-07
7.97563e-07
7.9786e-07
7.98469e-07
7.99032e-07
8.00144e-07
8.0138e-07
8.02992e-07
8.05517e-07
8.0705e-07
7.87768e-07
7.86087e-07
7.83397e-07
7.8171e-07
7.80417e-07
7.79248e-07
7.78684e-07
7.78053e-07
7.77754e-07
7.77454e-07
7.77266e-07
7.77137e-07
7.77014e-07
7.76958e-07
7.76866e-07
7.76841e-07
7.76774e-07
7.76761e-07
7.76717e-07
7.76721e-07
7.76704e-07
7.76693e-07
7.76684e-07
7.76687e-07
7.76685e-07
7.76684e-07
7.76687e-07
7.76684e-07
7.76692e-07
7.76703e-07
7.7672e-07
7.76716e-07
7.7676e-07
7.76773e-07
7.7684e-07
7.76865e-07
7.76957e-07
7.77013e-07
7.77133e-07
7.77264e-07
7.77452e-07
7.77753e-07
7.78052e-07
7.78684e-07
7.79249e-07
7.80416e-07
7.81708e-07
7.83398e-07
7.86079e-07
7.87765e-07
7.67891e-07
7.66139e-07
7.63392e-07
7.61687e-07
7.60364e-07
7.59166e-07
7.58616e-07
7.57974e-07
7.57679e-07
7.57379e-07
7.57192e-07
7.57064e-07
7.56942e-07
7.56888e-07
7.56796e-07
7.56772e-07
7.56704e-07
7.56691e-07
7.56643e-07
7.56646e-07
7.56628e-07
7.56611e-07
7.56602e-07
7.56606e-07
7.56603e-07
7.56603e-07
7.56605e-07
7.56602e-07
7.5661e-07
7.56627e-07
7.56645e-07
7.56642e-07
7.5669e-07
7.56703e-07
7.56771e-07
7.56795e-07
7.56887e-07
7.56941e-07
7.5706e-07
7.57189e-07
7.57379e-07
7.57679e-07
7.57973e-07
7.58616e-07
7.59166e-07
7.60363e-07
7.61685e-07
7.63393e-07
7.66131e-07
7.67889e-07
7.47202e-07
7.45361e-07
7.42546e-07
7.40827e-07
7.39451e-07
7.38222e-07
7.37683e-07
7.3703e-07
7.3674e-07
7.36439e-07
7.36253e-07
7.36127e-07
7.36008e-07
7.35956e-07
7.35869e-07
7.35848e-07
7.35786e-07
7.35779e-07
7.35734e-07
7.35736e-07
7.35716e-07
7.35704e-07
7.35695e-07
7.35698e-07
7.35695e-07
7.35695e-07
7.35698e-07
7.35694e-07
7.35703e-07
7.35715e-07
7.35735e-07
7.35733e-07
7.35777e-07
7.35785e-07
7.35847e-07
7.35868e-07
7.35955e-07
7.36006e-07
7.36123e-07
7.36249e-07
7.36439e-07
7.36739e-07
7.37029e-07
7.37683e-07
7.38222e-07
7.3945e-07
7.40825e-07
7.42546e-07
7.45353e-07
7.47199e-07
7.2572e-07
7.23809e-07
7.21004e-07
7.19294e-07
7.17866e-07
7.16628e-07
7.16108e-07
7.15455e-07
7.15174e-07
7.14875e-07
7.14694e-07
7.14572e-07
7.14457e-07
7.1441e-07
7.14329e-07
7.14312e-07
7.1426e-07
7.14261e-07
7.14231e-07
7.14232e-07
7.1421e-07
7.1423e-07
7.14221e-07
7.14225e-07
7.14222e-07
7.14222e-07
7.14225e-07
7.14221e-07
7.1423e-07
7.14209e-07
7.14231e-07
7.14229e-07
7.1426e-07
7.14259e-07
7.14311e-07
7.14328e-07
7.14409e-07
7.14456e-07
7.14569e-07
7.1469e-07
7.14875e-07
7.15173e-07
7.15455e-07
7.16108e-07
7.16628e-07
7.17865e-07
7.19292e-07
7.21005e-07
7.23802e-07
7.25717e-07
7.03741e-07
7.01775e-07
6.98997e-07
6.97319e-07
6.96261e-07
6.95011e-07
6.94517e-07
6.93864e-07
6.93594e-07
6.93297e-07
6.93122e-07
6.93005e-07
6.92895e-07
6.92852e-07
6.92778e-07
6.92765e-07
6.92721e-07
6.92729e-07
6.92704e-07
6.92704e-07
6.9268e-07
6.92707e-07
6.92698e-07
6.92702e-07
6.92699e-07
6.92699e-07
6.92702e-07
6.92698e-07
6.92707e-07
6.9268e-07
6.92703e-07
6.92703e-07
6.92728e-07
6.9272e-07
6.92764e-07
6.92777e-07
6.92851e-07
6.92893e-07
6.93002e-07
6.93119e-07
6.93297e-07
6.93593e-07
6.93863e-07
6.94517e-07
6.95011e-07
6.9626e-07
6.97317e-07
6.98997e-07
7.01768e-07
7.03738e-07
6.81799e-07
6.79782e-07
6.77038e-07
6.75389e-07
6.74304e-07
6.73049e-07
6.72586e-07
6.71938e-07
6.71681e-07
6.71389e-07
6.7122e-07
6.71109e-07
6.71004e-07
6.70966e-07
6.70899e-07
6.7089e-07
6.7085e-07
6.7086e-07
6.70834e-07
6.70834e-07
6.70809e-07
6.70831e-07
6.70822e-07
6.70826e-07
6.70822e-07
6.70822e-07
6.70825e-07
6.70821e-07
6.7083e-07
6.70808e-07
6.70833e-07
6.70833e-07
6.70859e-07
6.70849e-07
6.70889e-07
6.70898e-07
6.70965e-07
6.71002e-07
6.71107e-07
6.71218e-07
6.71389e-07
6.7168e-07
6.71937e-07
6.72586e-07
6.73049e-07
6.74303e-07
6.75387e-07
6.77037e-07
6.79775e-07
6.81797e-07
6.59572e-07
6.57517e-07
6.54824e-07
6.53215e-07
6.52122e-07
6.50841e-07
6.50325e-07
6.49636e-07
6.49382e-07
6.49091e-07
6.48924e-07
6.48816e-07
6.48714e-07
6.4868e-07
6.48615e-07
6.4861e-07
6.48571e-07
6.48581e-07
6.48553e-07
6.48554e-07
6.48529e-07
6.48545e-07
6.48536e-07
6.4854e-07
6.48537e-07
6.48537e-07
6.4854e-07
6.48536e-07
6.48545e-07
6.48528e-07
6.48553e-07
6.48552e-07
6.4858e-07
6.4857e-07
6.48609e-07
6.48614e-07
6.48679e-07
6.48712e-07
6.48814e-07
6.48922e-07
6.49091e-07
6.49381e-07
6.49634e-07
6.50324e-07
6.50839e-07
6.5212e-07
6.53213e-07
6.54822e-07
6.5751e-07
6.5957e-07
6.37208e-07
6.35128e-07
6.32252e-07
6.30585e-07
6.29489e-07
6.28232e-07
6.27748e-07
6.27077e-07
6.26839e-07
6.26558e-07
6.26398e-07
6.26297e-07
6.26201e-07
6.2617e-07
6.2611e-07
6.26108e-07
6.26071e-07
6.26081e-07
6.26054e-07
6.26059e-07
6.26038e-07
6.2605e-07
6.26041e-07
6.26045e-07
6.26041e-07
6.26041e-07
6.26044e-07
6.2604e-07
6.26049e-07
6.26037e-07
6.26058e-07
6.26053e-07
6.26079e-07
6.2607e-07
6.26106e-07
6.26109e-07
6.2617e-07
6.26199e-07
6.26295e-07
6.26397e-07
6.26557e-07
6.26838e-07
6.27075e-07
6.27746e-07
6.28231e-07
6.29487e-07
6.30583e-07
6.3225e-07
6.35121e-07
6.37207e-07
6.14481e-07
6.12397e-07
6.0961e-07
6.08012e-07
6.06945e-07
6.05728e-07
6.05278e-07
6.04632e-07
6.0441e-07
6.04141e-07
6.03991e-07
6.03897e-07
6.03806e-07
6.03779e-07
6.03722e-07
6.03723e-07
6.03689e-07
6.03699e-07
6.03678e-07
6.03687e-07
6.03673e-07
6.03682e-07
6.03673e-07
6.03677e-07
6.03674e-07
6.03674e-07
6.03677e-07
6.03673e-07
6.03682e-07
6.03672e-07
6.03686e-07
6.03676e-07
6.03698e-07
6.03688e-07
6.03721e-07
6.03721e-07
6.03778e-07
6.03805e-07
6.03895e-07
6.0399e-07
6.04142e-07
6.0441e-07
6.0463e-07
6.05277e-07
6.05726e-07
6.06943e-07
6.0801e-07
6.09608e-07
6.1239e-07
6.14479e-07
5.92385e-07
5.90296e-07
5.8765e-07
5.86104e-07
5.85093e-07
5.83915e-07
5.83505e-07
5.82884e-07
5.82681e-07
5.82425e-07
5.82284e-07
5.82198e-07
5.82112e-07
5.82088e-07
5.82034e-07
5.82037e-07
5.82006e-07
5.82017e-07
5.82001e-07
5.82015e-07
5.82007e-07
5.82014e-07
5.82006e-07
5.82009e-07
5.82007e-07
5.82006e-07
5.82009e-07
5.82005e-07
5.82014e-07
5.82006e-07
5.82014e-07
5.82e-07
5.82016e-07
5.82005e-07
5.82036e-07
5.82033e-07
5.82088e-07
5.82111e-07
5.82196e-07
5.82284e-07
5.82425e-07
5.82681e-07
5.82882e-07
5.83504e-07
5.83914e-07
5.85091e-07
5.86102e-07
5.87648e-07
5.90291e-07
5.92383e-07
5.70742e-07
5.68695e-07
5.66217e-07
5.64728e-07
5.63753e-07
5.62593e-07
5.62212e-07
5.61606e-07
5.61425e-07
5.61182e-07
5.61053e-07
5.60972e-07
5.60891e-07
5.6087e-07
5.60819e-07
5.60823e-07
5.60791e-07
5.60802e-07
5.60784e-07
5.60796e-07
5.60788e-07
5.60795e-07
5.60786e-07
5.6079e-07
5.60787e-07
5.60787e-07
5.6079e-07
5.60786e-07
5.60794e-07
5.60787e-07
5.60795e-07
5.60783e-07
5.608e-07
5.6079e-07
5.60821e-07
5.60818e-07
5.60869e-07
5.6089e-07
5.6097e-07
5.61053e-07
5.61182e-07
5.61424e-07
5.61605e-07
5.62211e-07
5.62591e-07
5.63751e-07
5.64725e-07
5.66215e-07
5.68689e-07
5.7074e-07
5.49792e-07
5.47852e-07
5.4554e-07
5.44126e-07
5.4323e-07
5.42136e-07
5.41798e-07
5.41228e-07
5.41066e-07
5.4084e-07
5.40724e-07
5.40649e-07
5.40574e-07
5.40556e-07
5.40508e-07
5.40513e-07
5.40483e-07
5.40494e-07
5.40478e-07
5.4049e-07
5.40482e-07
5.40489e-07
5.40481e-07
5.40484e-07
5.40482e-07
5.40482e-07
5.40484e-07
5.40481e-07
5.40489e-07
5.40482e-07
5.4049e-07
5.40477e-07
5.40493e-07
5.40482e-07
5.40512e-07
5.40507e-07
5.40555e-07
5.40573e-07
5.40647e-07
5.40723e-07
5.4084e-07
5.41065e-07
5.41226e-07
5.41796e-07
5.42134e-07
5.43228e-07
5.44124e-07
5.45538e-07
5.47847e-07
5.4979e-07
5.29803e-07
5.27987e-07
5.25865e-07
5.24543e-07
5.23733e-07
5.22717e-07
5.22422e-07
5.21892e-07
5.21752e-07
5.21544e-07
5.21441e-07
5.21373e-07
5.21305e-07
5.21289e-07
5.21245e-07
5.21251e-07
5.21222e-07
5.21233e-07
5.21217e-07
5.21228e-07
5.2122e-07
5.21226e-07
5.21218e-07
5.21221e-07
5.21218e-07
5.21218e-07
5.21221e-07
5.21217e-07
5.21225e-07
5.21219e-07
5.21227e-07
5.21216e-07
5.21232e-07
5.21221e-07
5.21249e-07
5.21244e-07
5.21288e-07
5.21304e-07
5.21372e-07
5.2144e-07
5.21544e-07
5.21751e-07
5.21891e-07
5.2242e-07
5.22715e-07
5.23732e-07
5.24541e-07
5.25863e-07
5.27982e-07
5.29801e-07
5.10955e-07
5.0924e-07
5.07285e-07
5.06054e-07
5.05321e-07
5.04384e-07
5.04125e-07
5.03637e-07
5.03515e-07
5.03325e-07
5.03233e-07
5.03172e-07
5.03111e-07
5.03097e-07
5.03057e-07
5.03062e-07
5.03035e-07
5.03045e-07
5.03029e-07
5.03037e-07
5.03028e-07
5.03034e-07
5.03025e-07
5.03029e-07
5.03026e-07
5.03026e-07
5.03028e-07
5.03025e-07
5.03034e-07
5.03028e-07
5.03036e-07
5.03028e-07
5.03044e-07
5.03034e-07
5.03061e-07
5.03056e-07
5.03096e-07
5.0311e-07
5.03171e-07
5.03233e-07
5.03325e-07
5.03514e-07
5.03636e-07
5.04123e-07
5.04383e-07
5.05319e-07
5.06052e-07
5.07283e-07
5.09236e-07
5.10953e-07
4.93585e-07
4.9202e-07
4.90279e-07
4.8917e-07
4.8853e-07
4.87689e-07
4.8747e-07
4.87031e-07
4.86928e-07
4.86759e-07
4.8668e-07
4.86627e-07
4.86573e-07
4.86563e-07
4.86527e-07
4.86532e-07
4.86507e-07
4.86516e-07
4.86501e-07
4.86506e-07
4.86498e-07
4.86503e-07
4.86494e-07
4.86497e-07
4.86495e-07
4.86495e-07
4.86497e-07
4.86493e-07
4.86503e-07
4.86497e-07
4.86506e-07
4.865e-07
4.86515e-07
4.86506e-07
4.86531e-07
4.86526e-07
4.86562e-07
4.86572e-07
4.86626e-07
4.8668e-07
4.86759e-07
4.86927e-07
4.87029e-07
4.87468e-07
4.87687e-07
4.88528e-07
4.89168e-07
4.90277e-07
4.92016e-07
4.93583e-07
4.77816e-07
4.76407e-07
4.74886e-07
4.73909e-07
4.7336e-07
4.72619e-07
4.72439e-07
4.72049e-07
4.71965e-07
4.71818e-07
4.71752e-07
4.71706e-07
4.71661e-07
4.71653e-07
4.71622e-07
4.71628e-07
4.71607e-07
4.71614e-07
4.71601e-07
4.71606e-07
4.71598e-07
4.71603e-07
4.71594e-07
4.71597e-07
4.71595e-07
4.71595e-07
4.71597e-07
4.71594e-07
4.71603e-07
4.71597e-07
4.71605e-07
4.71599e-07
4.71613e-07
4.71605e-07
4.71627e-07
4.71621e-07
4.71652e-07
4.71659e-07
4.71705e-07
4.71751e-07
4.71817e-07
4.71964e-07
4.72048e-07
4.72437e-07
4.72617e-07
4.73358e-07
4.73906e-07
4.74884e-07
4.76403e-07
4.77814e-07
4.63781e-07
4.62526e-07
4.61224e-07
4.60357e-07
4.59883e-07
4.59229e-07
4.5908e-07
4.58735e-07
4.58665e-07
4.58537e-07
4.58481e-07
4.58443e-07
4.58404e-07
4.58399e-07
4.58373e-07
4.58379e-07
4.58362e-07
4.58369e-07
4.58358e-07
4.58366e-07
4.58358e-07
4.58363e-07
4.58362e-07
4.58364e-07
4.58363e-07
4.58363e-07
4.58364e-07
4.58361e-07
4.58363e-07
4.58358e-07
4.58365e-07
4.58357e-07
4.58367e-07
4.58361e-07
4.58378e-07
4.58372e-07
4.58398e-07
4.58403e-07
4.58442e-07
4.58481e-07
4.58536e-07
4.58664e-07
4.58733e-07
4.59078e-07
4.59228e-07
4.59882e-07
4.60355e-07
4.61223e-07
4.62522e-07
4.63779e-07
4.51535e-07
4.50455e-07
4.49363e-07
4.48625e-07
4.48233e-07
4.47679e-07
4.47561e-07
4.47265e-07
4.47209e-07
4.47101e-07
4.47056e-07
4.47025e-07
4.46994e-07
4.46991e-07
4.4697e-07
4.46976e-07
4.46963e-07
4.46969e-07
4.46961e-07
4.46969e-07
4.46963e-07
4.46967e-07
4.46967e-07
4.46969e-07
4.46968e-07
4.46968e-07
4.46969e-07
4.46967e-07
4.46967e-07
4.46962e-07
4.46968e-07
4.4696e-07
4.46968e-07
4.46962e-07
4.46975e-07
4.46969e-07
4.4699e-07
4.46993e-07
4.47024e-07
4.47055e-07
4.471e-07
4.47208e-07
4.47263e-07
4.47559e-07
4.47677e-07
4.48232e-07
4.48623e-07
4.49361e-07
4.50452e-07
4.51534e-07
4.41094e-07
4.40172e-07
4.39234e-07
4.38606e-07
4.38281e-07
4.37816e-07
4.37721e-07
4.37471e-07
4.37426e-07
4.37333e-07
4.37297e-07
4.37273e-07
4.37248e-07
4.37247e-07
4.3723e-07
4.37236e-07
4.37226e-07
4.37231e-07
4.37224e-07
4.37231e-07
4.37226e-07
4.3723e-07
4.37229e-07
4.37231e-07
4.3723e-07
4.3723e-07
4.37231e-07
4.37229e-07
4.3723e-07
4.37226e-07
4.37231e-07
4.37223e-07
4.3723e-07
4.37225e-07
4.37235e-07
4.37229e-07
4.37246e-07
4.37247e-07
4.37272e-07
4.37297e-07
4.37332e-07
4.37425e-07
4.37469e-07
4.37719e-07
4.37814e-07
4.3828e-07
4.38604e-07
4.39232e-07
4.40168e-07
4.41093e-07
4.32409e-07
4.31647e-07
4.30883e-07
4.30369e-07
4.30109e-07
4.29729e-07
4.29657e-07
4.29452e-07
4.29417e-07
4.29335e-07
4.29308e-07
4.29289e-07
4.2927e-07
4.29271e-07
4.29257e-07
4.29262e-07
4.29254e-07
4.29259e-07
4.29253e-07
4.29259e-07
4.29255e-07
4.29258e-07
4.29257e-07
4.29259e-07
4.29258e-07
4.29258e-07
4.29259e-07
4.29257e-07
4.29258e-07
4.29254e-07
4.29258e-07
4.29252e-07
4.29258e-07
4.29253e-07
4.29261e-07
4.29256e-07
4.29269e-07
4.29269e-07
4.29288e-07
4.29307e-07
4.29334e-07
4.29415e-07
4.2945e-07
4.29655e-07
4.29727e-07
4.30107e-07
4.30367e-07
4.30882e-07
4.31644e-07
4.32408e-07
4.25366e-07
4.24745e-07
4.24128e-07
4.237e-07
4.23489e-07
4.23178e-07
4.23122e-07
4.22956e-07
4.2293e-07
4.22849e-07
4.22828e-07
4.22814e-07
4.228e-07
4.228e-07
4.2279e-07
4.22794e-07
4.22787e-07
4.22791e-07
4.22787e-07
4.22791e-07
4.22788e-07
4.22791e-07
4.2279e-07
4.22791e-07
4.22791e-07
4.22791e-07
4.22791e-07
4.22789e-07
4.2279e-07
4.22787e-07
4.2279e-07
4.22786e-07
4.2279e-07
4.22786e-07
4.22793e-07
4.22789e-07
4.22799e-07
4.22798e-07
4.22813e-07
4.22827e-07
4.22848e-07
4.22928e-07
4.22954e-07
4.2312e-07
4.23176e-07
4.23487e-07
4.23698e-07
4.24127e-07
4.24742e-07
4.25365e-07
4.19734e-07
4.19231e-07
4.18742e-07
4.18404e-07
4.18237e-07
4.17995e-07
4.17951e-07
4.17827e-07
4.17813e-07
4.17792e-07
4.17777e-07
4.17767e-07
4.17756e-07
4.17757e-07
4.17749e-07
4.17752e-07
4.17747e-07
4.1775e-07
4.17747e-07
4.17751e-07
4.17748e-07
4.17751e-07
4.1775e-07
4.17751e-07
4.17751e-07
4.17751e-07
4.17751e-07
4.1775e-07
4.1775e-07
4.17748e-07
4.1775e-07
4.17746e-07
4.17749e-07
4.17746e-07
4.17751e-07
4.17747e-07
4.17756e-07
4.17755e-07
4.17765e-07
4.17776e-07
4.1779e-07
4.17811e-07
4.17825e-07
4.1795e-07
4.17993e-07
4.18235e-07
4.18402e-07
4.1874e-07
4.19229e-07
4.19733e-07
4.15465e-07
4.15062e-07
4.14677e-07
4.14413e-07
4.14282e-07
4.14094e-07
4.14061e-07
4.13969e-07
4.13961e-07
4.13936e-07
4.13925e-07
4.13917e-07
4.13909e-07
4.1391e-07
4.13904e-07
4.13907e-07
4.13903e-07
4.13906e-07
4.13904e-07
4.13907e-07
4.13905e-07
4.13907e-07
4.13907e-07
4.13908e-07
4.13908e-07
4.13908e-07
4.13908e-07
4.13906e-07
4.13907e-07
4.13905e-07
4.13906e-07
4.13903e-07
4.13905e-07
4.13902e-07
4.13906e-07
4.13903e-07
4.13909e-07
4.13908e-07
4.13916e-07
4.13924e-07
4.13935e-07
4.13959e-07
4.13967e-07
4.14059e-07
4.14092e-07
4.1428e-07
4.14412e-07
4.14676e-07
4.1506e-07
4.15463e-07
4.12287e-07
4.11967e-07
4.11668e-07
4.11461e-07
4.11357e-07
4.11213e-07
4.11188e-07
4.1112e-07
4.11113e-07
4.11091e-07
4.11083e-07
4.11077e-07
4.11072e-07
4.11073e-07
4.11068e-07
4.11071e-07
4.11068e-07
4.11071e-07
4.11069e-07
4.11072e-07
4.11071e-07
4.11073e-07
4.11072e-07
4.11074e-07
4.11073e-07
4.11073e-07
4.11073e-07
4.11072e-07
4.11072e-07
4.1107e-07
4.11071e-07
4.11068e-07
4.1107e-07
4.11067e-07
4.1107e-07
4.11067e-07
4.11072e-07
4.11071e-07
4.11076e-07
4.11082e-07
4.1109e-07
4.11112e-07
4.11118e-07
4.11186e-07
4.11212e-07
4.11356e-07
4.1146e-07
4.11666e-07
4.11965e-07
4.12285e-07
4.10004e-07
4.09748e-07
4.09515e-07
4.09354e-07
4.0927e-07
4.0916e-07
4.0914e-07
4.09089e-07
4.09083e-07
4.09065e-07
4.09059e-07
4.09054e-07
4.09051e-07
4.09052e-07
4.09049e-07
4.09051e-07
4.09049e-07
4.09052e-07
4.09051e-07
4.09053e-07
4.09053e-07
4.09054e-07
4.09054e-07
4.09055e-07
4.09055e-07
4.09055e-07
4.09055e-07
4.09054e-07
4.09054e-07
4.09052e-07
4.09052e-07
4.0905e-07
4.09051e-07
4.09048e-07
4.0905e-07
4.09048e-07
4.09051e-07
4.0905e-07
4.09053e-07
4.09058e-07
4.09063e-07
4.09081e-07
4.09087e-07
4.09138e-07
4.09159e-07
4.09269e-07
4.09352e-07
4.09513e-07
4.09746e-07
4.10002e-07
4.08422e-07
4.08216e-07
4.08032e-07
4.07905e-07
4.07837e-07
4.07753e-07
4.07735e-07
4.07696e-07
4.0769e-07
4.07676e-07
4.07672e-07
4.07668e-07
4.07666e-07
4.07667e-07
4.07665e-07
4.07667e-07
4.07666e-07
4.07668e-07
4.07668e-07
4.0767e-07
4.0767e-07
4.07671e-07
4.07671e-07
4.07672e-07
4.07672e-07
4.07672e-07
4.07672e-07
4.07671e-07
4.07671e-07
4.07669e-07
4.07669e-07
4.07667e-07
4.07667e-07
4.07665e-07
4.07666e-07
4.07664e-07
4.07666e-07
4.07665e-07
4.07667e-07
4.0767e-07
4.07675e-07
4.07689e-07
4.07694e-07
4.07733e-07
4.07751e-07
4.07835e-07
4.07903e-07
4.08031e-07
4.08215e-07
4.0842e-07
4.07359e-07
4.07191e-07
4.07042e-07
4.0694e-07
4.06883e-07
4.06818e-07
4.06802e-07
4.06772e-07
4.06766e-07
4.06755e-07
4.06752e-07
4.06751e-07
4.06748e-07
4.06749e-07
4.06747e-07
4.06749e-07
4.06749e-07
4.06751e-07
4.06751e-07
4.06752e-07
4.06752e-07
4.06754e-07
4.06754e-07
4.06755e-07
4.06755e-07
4.06755e-07
4.06755e-07
4.06754e-07
4.06753e-07
4.06752e-07
4.06752e-07
4.0675e-07
4.0675e-07
4.06748e-07
4.06748e-07
4.06746e-07
4.06747e-07
4.06746e-07
4.06749e-07
4.0675e-07
4.06754e-07
4.06764e-07
4.0677e-07
4.068e-07
4.06816e-07
4.06881e-07
4.06939e-07
4.0704e-07
4.07189e-07
4.07358e-07
4.06669e-07
4.06528e-07
4.0641e-07
4.06327e-07
4.06277e-07
4.06225e-07
4.0621e-07
4.06186e-07
4.06181e-07
4.06172e-07
4.06169e-07
4.06168e-07
4.06166e-07
4.06167e-07
4.06166e-07
4.06168e-07
4.06168e-07
4.06169e-07
4.0617e-07
4.06171e-07
4.06172e-07
4.06173e-07
4.06173e-07
4.06174e-07
4.06174e-07
4.06174e-07
4.06174e-07
4.06173e-07
4.06172e-07
4.06171e-07
4.06171e-07
4.06169e-07
4.06169e-07
4.06167e-07
4.06167e-07
4.06165e-07
4.06165e-07
4.06165e-07
4.06167e-07
4.06168e-07
4.0617e-07
4.06179e-07
4.06184e-07
4.06208e-07
4.06224e-07
4.06275e-07
4.06325e-07
4.06409e-07
4.06526e-07
4.06667e-07
4.06233e-07
4.06112e-07
4.06012e-07
4.05941e-07
4.05897e-07
4.05854e-07
4.0584e-07
4.0582e-07
4.05815e-07
4.05808e-07
4.05805e-07
4.05805e-07
4.05803e-07
4.05804e-07
4.05804e-07
4.05805e-07
4.05805e-07
4.05806e-07
4.05807e-07
4.05808e-07
4.05809e-07
4.0581e-07
4.0581e-07
4.05811e-07
4.05811e-07
4.05811e-07
4.05811e-07
4.0581e-07
4.05809e-07
4.05808e-07
4.05808e-07
4.05806e-07
4.05806e-07
4.05804e-07
4.05804e-07
4.05802e-07
4.05803e-07
4.05801e-07
4.05803e-07
4.05804e-07
4.05806e-07
4.05813e-07
4.05818e-07
4.05838e-07
4.05853e-07
4.05895e-07
4.05939e-07
4.0601e-07
4.0611e-07
4.06231e-07
4.05954e-07
4.05847e-07
4.05761e-07
4.05699e-07
4.05659e-07
4.05623e-07
4.05609e-07
4.05592e-07
4.05587e-07
4.05581e-07
4.05579e-07
4.05578e-07
4.05577e-07
4.05578e-07
4.05578e-07
4.05579e-07
4.0558e-07
4.05581e-07
4.05581e-07
4.05583e-07
4.05583e-07
4.05584e-07
4.05585e-07
4.05586e-07
4.05586e-07
4.05586e-07
4.05585e-07
4.05584e-07
4.05584e-07
4.05583e-07
4.05582e-07
4.05581e-07
4.0558e-07
4.05579e-07
4.05578e-07
4.05577e-07
4.05577e-07
4.05576e-07
4.05577e-07
4.05578e-07
4.0558e-07
4.05586e-07
4.05591e-07
4.05607e-07
4.05622e-07
4.05657e-07
4.05697e-07
4.05759e-07
4.05846e-07
4.05952e-07
4.0577e-07
4.05674e-07
4.05598e-07
4.05543e-07
4.05506e-07
4.05475e-07
4.05462e-07
4.05447e-07
4.05442e-07
4.05437e-07
4.05435e-07
4.05434e-07
4.05434e-07
4.05434e-07
4.05434e-07
4.05436e-07
4.05436e-07
4.05437e-07
4.05438e-07
4.05439e-07
4.0544e-07
4.05441e-07
4.05441e-07
4.05442e-07
4.05442e-07
4.05442e-07
4.05442e-07
4.05441e-07
4.0544e-07
4.05439e-07
4.05438e-07
4.05437e-07
4.05436e-07
4.05435e-07
4.05434e-07
4.05433e-07
4.05433e-07
4.05432e-07
4.05433e-07
4.05433e-07
4.05435e-07
4.05441e-07
4.05446e-07
4.0546e-07
4.05474e-07
4.05505e-07
4.05541e-07
4.05596e-07
4.05672e-07
4.05768e-07
4.05642e-07
4.05555e-07
4.05486e-07
4.05437e-07
4.05403e-07
4.05376e-07
4.05363e-07
4.0535e-07
4.05345e-07
4.0534e-07
4.05338e-07
4.05338e-07
4.05337e-07
4.05338e-07
4.05338e-07
4.05339e-07
4.0534e-07
4.05341e-07
4.05341e-07
4.05343e-07
4.05343e-07
4.05344e-07
4.05345e-07
4.05345e-07
4.05346e-07
4.05345e-07
4.05345e-07
4.05344e-07
4.05344e-07
4.05343e-07
4.05342e-07
4.05341e-07
4.0534e-07
4.05339e-07
4.05338e-07
4.05337e-07
4.05337e-07
4.05336e-07
4.05336e-07
4.05337e-07
4.05339e-07
4.05343e-07
4.05348e-07
4.05361e-07
4.05374e-07
4.05401e-07
4.05435e-07
4.05485e-07
4.05553e-07
4.0564e-07
4.0555e-07
4.0547e-07
4.05407e-07
4.05362e-07
4.0533e-07
4.05306e-07
4.05293e-07
4.05282e-07
4.05277e-07
4.05273e-07
4.05271e-07
4.0527e-07
4.0527e-07
4.0527e-07
4.05271e-07
4.05272e-07
4.05272e-07
4.05273e-07
4.05274e-07
4.05275e-07
4.05276e-07
4.05277e-07
4.05277e-07
4.05278e-07
4.05278e-07
4.05278e-07
4.05278e-07
4.05277e-07
4.05276e-07
4.05275e-07
4.05274e-07
4.05273e-07
4.05272e-07
4.05271e-07
4.05271e-07
4.05269e-07
4.05269e-07
4.05268e-07
4.05269e-07
4.05269e-07
4.05271e-07
4.05275e-07
4.0528e-07
4.05291e-07
4.05304e-07
4.05329e-07
4.0536e-07
4.05405e-07
4.05468e-07
4.05548e-07
4.05484e-07
4.05409e-07
4.05351e-07
4.05308e-07
4.05279e-07
4.05256e-07
4.05244e-07
4.05233e-07
4.05229e-07
4.05225e-07
4.05223e-07
4.05223e-07
4.05222e-07
4.05223e-07
4.05223e-07
4.05224e-07
4.05225e-07
4.05226e-07
4.05227e-07
4.05228e-07
4.05228e-07
4.05229e-07
4.0523e-07
4.0523e-07
4.05231e-07
4.0523e-07
4.0523e-07
4.05229e-07
4.05229e-07
4.05228e-07
4.05227e-07
4.05226e-07
4.05225e-07
4.05224e-07
4.05223e-07
4.05222e-07
4.05222e-07
4.05221e-07
4.05221e-07
4.05222e-07
4.05223e-07
4.05227e-07
4.05232e-07
4.05242e-07
4.05254e-07
4.05277e-07
4.05307e-07
4.05349e-07
4.05407e-07
4.05482e-07
4.05444e-07
4.05373e-07
4.05317e-07
4.05277e-07
4.05248e-07
4.05227e-07
4.05215e-07
4.05205e-07
4.05201e-07
4.05197e-07
4.05195e-07
4.05194e-07
4.05194e-07
4.05195e-07
4.05195e-07
4.05196e-07
4.05197e-07
4.05198e-07
4.05198e-07
4.052e-07
4.052e-07
4.05201e-07
4.05202e-07
4.05202e-07
4.05202e-07
4.05202e-07
4.05202e-07
4.05201e-07
4.05201e-07
4.052e-07
4.05199e-07
4.05198e-07
4.05197e-07
4.05196e-07
4.05195e-07
4.05194e-07
4.05194e-07
4.05193e-07
4.05193e-07
4.05194e-07
4.05195e-07
4.05199e-07
4.05203e-07
4.05213e-07
4.05225e-07
4.05246e-07
4.05275e-07
4.05316e-07
4.05371e-07
4.05442e-07
)
;

boundaryField
{
    fuel
    {
        type            fixedValue;
        value           nonuniform 0();
    }
    wall
    {
        type            zeroGradient;
    }
    outlet
    {
        type            zeroGradient;
    }
    frontAndBack
    {
        type            empty;
    }
    procBoundary3to2
    {
        type            processor;
        value           nonuniform List<scalar> 
51
(
8.86161e-07
8.86056e-07
8.86011e-07
8.85946e-07
8.85934e-07
8.85896e-07
8.85896e-07
8.85873e-07
8.85878e-07
8.85865e-07
8.85869e-07
8.85862e-07
8.85865e-07
8.85862e-07
8.85862e-07
8.85865e-07
8.85862e-07
8.85869e-07
8.85864e-07
8.85877e-07
8.85872e-07
8.85894e-07
8.85894e-07
8.85933e-07
8.85945e-07
8.86009e-07
8.86054e-07
8.86157e-07
8.86277e-07
8.86449e-07
8.86713e-07
8.87009e-07
8.87556e-07
8.88105e-07
8.89056e-07
8.9019e-07
8.91549e-07
8.93674e-07
8.94813e-07
8.78404e-07
8.77194e-07
8.74982e-07
8.73572e-07
8.72419e-07
8.71434e-07
8.70877e-07
8.70321e-07
8.70023e-07
8.69752e-07
8.69575e-07
8.69575e-07
)
;
    }
}


// ************************************************************************* //
