/*--------------------------------*- C++ -*----------------------------------*\
| =========                 |                                                 |
| \\      /  F ield         | OpenFOAM: The Open Source CFD Toolbox           |
|  \\    /   O peration     | Version:  dev                                   |
|   \\  /    A nd           | Web:      www.OpenFOAM.org                      |
|    \\/     M anipulation  |                                                 |
\*---------------------------------------------------------------------------*/
FoamFile
{
    version     2.0;
    format      ascii;
    class       volScalarField;
    location    "0.065";
    object      H2C4O;
}
// * * * * * * * * * * * * * * * * * * * * * * * * * * * * * * * * * * * * * //

dimensions      [0 0 0 0 0 0 0];

internalField   nonuniform List<scalar> 
250
(
1.11913e-05
1.11943e-05
1.11934e-05
1.11928e-05
1.11928e-05
1.11928e-05
1.11953e-05
1.12107e-05
1.13139e-05
1.19348e-05
3.72659e-06
8.84964e-06
8.85025e-06
8.84987e-06
8.85025e-06
8.84993e-06
8.8507e-06
8.85274e-06
8.87432e-06
9.00354e-06
9.75871e-06
7.30813e-06
6.90219e-06
6.90239e-06
6.90223e-06
6.90279e-06
6.90244e-06
6.90364e-06
6.90535e-06
6.93143e-06
7.07995e-06
7.88206e-06
8.6291e-06
5.70752e-06
5.70787e-06
5.70795e-06
5.70832e-06
5.7081e-06
5.70942e-06
5.71123e-06
5.7408e-06
5.9085e-06
6.73524e-06
8.84962e-06
4.95481e-06
4.9556e-06
4.95593e-06
4.95601e-06
4.95597e-06
4.95727e-06
4.95926e-06
4.99116e-06
5.17346e-06
6.00617e-06
8.71192e-06
4.39745e-06
4.3994e-06
4.40005e-06
4.39963e-06
4.39987e-06
4.40134e-06
4.40459e-06
4.45056e-06
4.66931e-06
5.49052e-06
8.63599e-06
3.9972e-06
4.00055e-06
4.00146e-06
4.00071e-06
4.00121e-06
4.00256e-06
4.00594e-06
4.05466e-06
4.29059e-06
5.08645e-06
8.87083e-06
3.65183e-06
3.65857e-06
3.65988e-06
3.65854e-06
3.65946e-06
3.66135e-06
3.66828e-06
3.73411e-06
3.96904e-06
4.74557e-06
9.34778e-06
3.37254e-06
3.38312e-06
3.38469e-06
3.383e-06
3.38421e-06
3.38604e-06
3.39341e-06
3.44548e-06
3.66947e-06
4.44226e-06
7.90574e-06
3.11207e-06
3.10786e-06
3.10958e-06
3.10756e-06
3.10906e-06
3.11077e-06
3.11855e-06
3.17216e-06
3.43809e-06
4.16506e-06
3.61634e-06
2.89365e-06
2.89553e-06
2.89321e-06
2.89498e-06
2.89658e-06
2.90465e-06
2.95798e-06
3.21785e-06
3.91422e-06
1.67802e-06
2.68361e-06
2.68569e-06
2.68297e-06
2.68505e-06
2.68687e-06
2.69666e-06
2.76562e-06
3.00407e-06
3.68764e-06
1.2121e-06
2.48816e-06
2.49033e-06
2.4874e-06
2.48968e-06
2.49146e-06
2.5017e-06
2.57151e-06
2.80493e-06
3.47405e-06
1.1741e-06
2.31077e-06
2.313e-06
2.30992e-06
2.31235e-06
2.31411e-06
2.32475e-06
2.39488e-06
2.64395e-06
3.28261e-06
1.24451e-06
2.14943e-06
2.15168e-06
2.14851e-06
2.15105e-06
2.15281e-06
2.16378e-06
2.23363e-06
2.4815e-06
3.10372e-06
1.33922e-06
2.00247e-06
2.00471e-06
2.00149e-06
2.00411e-06
2.00588e-06
2.01704e-06
2.08616e-06
2.32542e-06
2.92863e-06
1.43707e-06
1.86845e-06
1.87065e-06
1.86744e-06
1.87009e-06
1.87188e-06
1.8831e-06
1.95107e-06
2.18265e-06
2.77034e-06
1.52767e-06
1.74614e-06
1.74827e-06
1.74511e-06
1.74775e-06
1.74957e-06
1.76073e-06
1.82711e-06
2.06396e-06
2.61367e-06
1.60738e-06
1.63444e-06
1.63646e-06
1.6334e-06
1.636e-06
1.63784e-06
1.64884e-06
1.71309e-06
1.93805e-06
2.45336e-06
1.6718e-06
1.53235e-06
1.53423e-06
1.53131e-06
1.53383e-06
1.53569e-06
1.54644e-06
1.60805e-06
1.81957e-06
2.3011e-06
1.71804e-06
1.43892e-06
1.44064e-06
1.43789e-06
1.4403e-06
1.44218e-06
1.45258e-06
1.51106e-06
1.70935e-06
2.15669e-06
1.74468e-06
1.3532e-06
1.35472e-06
1.35219e-06
1.35445e-06
1.35634e-06
1.36633e-06
1.42112e-06
1.60712e-06
2.01996e-06
1.75186e-06
1.28359e-06
1.28497e-06
1.28258e-06
1.28475e-06
1.28662e-06
1.29622e-06
1.34744e-06
1.51256e-06
1.8903e-06
1.74112e-06
1.21528e-06
1.21663e-06
1.21434e-06
1.21652e-06
1.21843e-06
1.22763e-06
1.2772e-06
1.42493e-06
1.78257e-06
1.71495e-06
)
;

boundaryField
{
    fuel
    {
        type            fixedValue;
        value           uniform 0;
    }
    wall
    {
        type            zeroGradient;
    }
    outlet
    {
        type            zeroGradient;
    }
    frontAndBack
    {
        type            empty;
    }
    procBoundary3to0
    {
        type            processor;
        value           nonuniform List<scalar> 10(1.15796e-06 1.15918e-06 1.15705e-06 1.15914e-06 1.16101e-06 1.16976e-06 1.21566e-06 1.34332e-06 1.673e-06 1.67595e-06);
    }
    procBoundary3to2
    {
        type            processor;
        value           nonuniform List<scalar> 
25
(
1.11924e-05
8.84985e-06
6.90265e-06
5.70845e-06
4.9564e-06
4.40043e-06
4.00177e-06
3.66011e-06
3.38489e-06
3.10986e-06
2.89675e-06
2.89675e-06
2.68679e-06
2.49278e-06
2.31523e-06
2.15325e-06
2.00559e-06
1.87096e-06
1.74814e-06
1.63601e-06
1.53357e-06
1.43985e-06
1.35387e-06
1.28408e-06
1.2156e-06
)
;
    }
}


// ************************************************************************* //
