/*--------------------------------*- C++ -*----------------------------------*\
| =========                 |                                                 |
| \\      /  F ield         | OpenFOAM: The Open Source CFD Toolbox           |
|  \\    /   O peration     | Version:  dev                                   |
|   \\  /    A nd           | Web:      www.OpenFOAM.org                      |
|    \\/     M anipulation  |                                                 |
\*---------------------------------------------------------------------------*/
FoamFile
{
    version     2.0;
    format      ascii;
    class       volScalarField;
    location    "0.065";
    object      H2O;
}
// * * * * * * * * * * * * * * * * * * * * * * * * * * * * * * * * * * * * * //

dimensions      [0 0 0 0 0 0 0];

internalField   nonuniform List<scalar> 
250
(
0.0592187
0.0592197
0.0592196
0.0592205
0.0592189
0.059219
0.0592205
0.0592211
0.0592275
0.0591371
0.00348236
0.0667976
0.0667977
0.0667976
0.0667979
0.0667976
0.0667977
0.0667996
0.0668101
0.0668772
0.0671217
0.00933351
0.0673883
0.0673884
0.0673883
0.0673888
0.0673885
0.0673893
0.0673909
0.0674099
0.0675178
0.067923
0.0151515
0.0668039
0.0668043
0.0668043
0.0668047
0.0668045
0.0668057
0.0668071
0.0668326
0.0669724
0.0674426
0.0207484
0.0661172
0.0661181
0.0661184
0.0661185
0.0661184
0.0661198
0.0661213
0.066151
0.0663143
0.0667981
0.0260417
0.0654569
0.0654593
0.06546
0.0654596
0.0654598
0.0654615
0.0654643
0.0655131
0.0657261
0.0661997
0.0310033
0.0649177
0.0649219
0.0649231
0.0649222
0.0649228
0.0649244
0.0649273
0.0649811
0.0652211
0.0656738
0.0356916
0.0644172
0.0644266
0.0644284
0.0644266
0.0644278
0.0644303
0.0644383
0.0645186
0.0647599
0.0652125
0.040328
0.0639938
0.0640093
0.0640116
0.0640091
0.0640108
0.0640133
0.0640221
0.064083
0.064311
0.064804
0.0452613
0.0635847
0.063577
0.0635796
0.0635765
0.0635788
0.0635811
0.0635908
0.0636557
0.0639542
0.0644377
0.0500106
0.0632294
0.0632324
0.0632287
0.0632315
0.0632337
0.063244
0.0633102
0.0636064
0.0641033
0.0537034
0.0628769
0.0628804
0.0628759
0.0628793
0.062882
0.0628956
0.0629904
0.0632601
0.0637946
0.0562094
0.0625367
0.0625405
0.0625354
0.0625393
0.062542
0.0625569
0.0626567
0.0629286
0.0634965
0.0578939
0.0622154
0.0622194
0.0622138
0.0622183
0.062221
0.0622372
0.0623418
0.0626532
0.0632229
0.0590484
0.0619106
0.0619149
0.0619088
0.0619137
0.0619166
0.061934
0.0620429
0.0623669
0.0629608
0.0598452
0.0616205
0.061625
0.0616186
0.0616238
0.0616269
0.0616454
0.0617581
0.0620829
0.0626973
0.0603954
0.0613436
0.0613484
0.0613416
0.0613472
0.0613504
0.06137
0.0614858
0.0618141
0.0624524
0.0607493
0.0610788
0.0610836
0.0610766
0.0610825
0.061086
0.0611063
0.0612248
0.0615829
0.0622026
0.0609604
0.060825
0.0608298
0.0608227
0.0608288
0.0608324
0.0608534
0.0609735
0.0613284
0.0619384
0.061062
0.060581
0.0605858
0.0605786
0.0605849
0.0605888
0.0606103
0.0607308
0.0610792
0.0616783
0.0610818
0.0603459
0.0603505
0.0603434
0.0603498
0.060354
0.0603757
0.0604954
0.0608374
0.061422
0.0610416
0.0601184
0.0601227
0.0601158
0.0601221
0.0601266
0.0601484
0.0602657
0.0606027
0.0611694
0.0609582
0.0599236
0.0599279
0.059921
0.0599274
0.0599321
0.0599538
0.0600679
0.0603752
0.0609196
0.060844
0.0597215
0.0597259
0.059719
0.0597259
0.0597309
0.0597527
0.0598693
0.0601535
0.0607031
0.0607083
)
;

boundaryField
{
    fuel
    {
        type            fixedValue;
        value           uniform 0;
    }
    wall
    {
        type            zeroGradient;
    }
    outlet
    {
        type            zeroGradient;
    }
    frontAndBack
    {
        type            empty;
    }
    procBoundary3to0
    {
        type            processor;
        value           nonuniform List<scalar> 10(0.0595422 0.0595465 0.0595398 0.0595467 0.0595519 0.0595734 0.0596858 0.059936 0.060473 0.0605568);
    }
    procBoundary3to2
    {
        type            processor;
        value           nonuniform List<scalar> 
25
(
0.0592188
0.0667974
0.0673886
0.0668048
0.0661189
0.0654605
0.0649235
0.0644287
0.0640118
0.06358
0.0632354
0.0632354
0.0628832
0.0625457
0.0622242
0.0619184
0.061627
0.0613491
0.0610833
0.0608286
0.0605839
0.0603481
0.06012
0.0599248
0.0597222
)
;
    }
}


// ************************************************************************* //
