/*--------------------------------*- C++ -*----------------------------------*\
| =========                 |                                                 |
| \\      /  F ield         | OpenFOAM: The Open Source CFD Toolbox           |
|  \\    /   O peration     | Version:  dev                                   |
|   \\  /    A nd           | Web:      www.OpenFOAM.org                      |
|    \\/     M anipulation  |                                                 |
\*---------------------------------------------------------------------------*/
FoamFile
{
    version     2.0;
    format      ascii;
    class       volScalarField;
    location    "0.065";
    object      HO2;
}
// * * * * * * * * * * * * * * * * * * * * * * * * * * * * * * * * * * * * * //

dimensions      [0 0 0 0 0 0 0];

internalField   nonuniform List<scalar> 
25
(
5.6167e-12
6.16294e-12
6.91727e-12
7.86922e-12
9.04259e-12
1.04194e-11
1.21986e-11
1.44056e-11
1.68676e-11
1.96524e-11
2.28078e-11
2.64728e-11
3.07788e-11
3.59306e-11
4.22844e-11
5.04557e-11
6.15004e-11
7.71184e-11
9.96276e-11
1.30958e-10
1.69799e-10
2.06088e-10
2.20754e-10
1.94757e-10
1.15968e-10
)
;

boundaryField
{
    wall
    {
        type            zeroGradient;
    }
    fuel
    {
        type            fixedValue;
        value           nonuniform 0();
    }
    outlet
    {
        type            inletOutlet;
        inletValue      uniform 0;
        value           uniform 0;
    }
    procBoundary3to2
    {
        type            processor;
        value           uniform 5.24389e-12;
    }
}


// ************************************************************************* //
