/*--------------------------------*- C++ -*----------------------------------*\
| =========                 |                                                 |
| \\      /  F ield         | OpenFOAM: The Open Source CFD Toolbox           |
|  \\    /   O peration     | Version:  dev                                   |
|   \\  /    A nd           | Web:      www.OpenFOAM.org                      |
|    \\/     M anipulation  |                                                 |
\*---------------------------------------------------------------------------*/
FoamFile
{
    version     2.0;
    format      ascii;
    class       volScalarField;
    location    "0.065";
    object      n-A1C2H2;
}
// * * * * * * * * * * * * * * * * * * * * * * * * * * * * * * * * * * * * * //

dimensions      [0 0 0 0 0 0 0];

internalField   nonuniform List<scalar> 
250
(
6.3344e-09
6.33937e-09
6.3353e-09
6.33732e-09
6.33954e-09
6.34955e-09
6.34084e-09
6.35928e-09
6.64332e-09
1.10601e-08
3.04332e-11
3.10187e-09
3.10272e-09
3.10247e-09
3.10212e-09
3.10308e-09
3.10453e-09
3.10507e-09
3.11901e-09
3.29112e-09
6.04865e-09
4.14568e-10
1.50466e-09
1.50478e-09
1.50515e-09
1.50447e-09
1.50527e-09
1.50506e-09
1.50697e-09
1.51729e-09
1.63175e-09
3.6235e-09
1.11839e-09
7.73112e-10
7.73206e-10
7.73513e-10
7.72986e-10
7.73596e-10
7.73179e-10
7.74889e-10
7.82698e-10
8.6305e-10
2.37775e-09
1.30899e-09
4.3392e-10
4.34008e-10
4.34179e-10
4.33841e-10
4.3422e-10
4.33929e-10
4.35069e-10
4.40823e-10
5.00383e-10
1.65799e-09
1.19779e-09
2.62175e-10
2.6239e-10
2.62436e-10
2.62234e-10
2.62527e-10
2.62376e-10
2.63414e-10
2.69097e-10
3.11914e-10
1.20116e-09
1.24153e-09
1.74743e-10
1.74865e-10
1.7485e-10
1.74734e-10
1.74892e-10
1.74858e-10
1.75463e-10
1.78966e-10
2.13789e-10
8.66218e-10
1.48417e-09
1.19926e-10
1.20013e-10
1.19962e-10
1.19897e-10
1.20006e-10
1.20046e-10
1.20535e-10
1.26263e-10
1.54726e-10
6.49804e-10
1.60871e-09
8.93347e-11
8.94066e-11
8.93437e-11
8.93032e-11
8.9391e-11
8.94542e-11
8.98453e-11
9.40024e-11
1.14519e-10
5.00085e-10
1.38991e-09
6.97187e-11
6.97906e-11
6.97266e-11
6.96963e-11
6.9784e-11
6.98514e-11
7.02157e-11
7.36904e-11
9.08654e-11
3.773e-10
9.4261e-10
5.51929e-11
5.5137e-11
5.51023e-11
5.52107e-11
5.5272e-11
5.57039e-11
5.90179e-11
7.34307e-11
2.84021e-10
5.90829e-10
4.49047e-11
4.48642e-11
4.48242e-11
4.49442e-11
4.49916e-11
4.54421e-11
4.83501e-11
6.01958e-11
2.13978e-10
3.93251e-10
3.75357e-11
3.75113e-11
3.7463e-11
3.75951e-11
3.76275e-11
3.80966e-11
4.07e-11
5.0553e-11
1.69243e-10
2.69999e-10
3.20807e-11
3.20709e-11
3.2014e-11
3.21568e-11
3.21746e-11
3.2658e-11
3.50163e-11
4.33348e-11
1.35037e-10
1.85754e-10
2.79153e-11
2.79181e-11
2.78535e-11
2.80047e-11
2.80092e-11
2.85013e-11
3.06524e-11
3.77949e-11
1.08845e-10
1.30685e-10
2.46454e-11
2.46583e-11
2.45878e-11
2.47444e-11
2.47376e-11
2.52325e-11
2.72019e-11
3.34431e-11
8.89501e-11
9.75659e-11
2.20185e-11
2.20391e-11
2.19647e-11
2.21235e-11
2.21075e-11
2.25992e-11
2.4405e-11
2.99486e-11
7.27046e-11
7.86794e-11
1.98704e-11
1.98963e-11
1.98204e-11
1.99778e-11
1.99552e-11
2.04375e-11
2.20931e-11
2.70942e-11
6.11544e-11
6.80383e-11
1.80921e-11
1.81212e-11
1.8046e-11
1.81985e-11
1.81719e-11
1.86387e-11
2.01547e-11
2.47252e-11
5.24852e-11
6.1905e-11
1.66096e-11
1.66397e-11
1.65675e-11
1.67115e-11
1.66836e-11
1.71293e-11
1.85136e-11
2.27351e-11
4.55768e-11
5.8205e-11
1.53707e-11
1.54e-11
1.53329e-11
1.54651e-11
1.54383e-11
1.5858e-11
1.71157e-11
2.10541e-11
4.05464e-11
5.5857e-11
1.43374e-11
1.43642e-11
1.43044e-11
1.44214e-11
1.4398e-11
1.47874e-11
1.59207e-11
1.96388e-11
3.66505e-11
5.43166e-11
1.35873e-11
1.361e-11
1.3558e-11
1.36598e-11
1.36418e-11
1.40005e-11
1.50394e-11
1.84605e-11
3.36347e-11
5.33202e-11
1.29531e-11
1.29738e-11
1.29271e-11
1.30187e-11
1.3003e-11
1.33387e-11
1.43033e-11
1.75791e-11
3.11703e-11
5.27218e-11
)
;

boundaryField
{
    fuel
    {
        type            fixedValue;
        value           uniform 0;
    }
    wall
    {
        type            zeroGradient;
    }
    outlet
    {
        type            zeroGradient;
    }
    frontAndBack
    {
        type            empty;
    }
    procBoundary3to0
    {
        type            processor;
        value           nonuniform List<scalar> 10(1.25047e-11 1.25198e-11 1.24825e-11 1.25568e-11 1.25484e-11 1.28521e-11 1.37348e-11 1.67777e-11 2.92994e-11 5.24191e-11);
    }
    procBoundary3to2
    {
        type            processor;
        value           nonuniform List<scalar> 
25
(
6.33815e-09
3.10226e-09
1.50444e-09
7.7293e-10
4.33826e-10
2.62299e-10
1.74896e-10
1.2018e-10
8.9645e-11
7.00612e-11
5.51227e-11
5.51227e-11
4.48312e-11
3.74562e-11
3.20002e-11
2.78395e-11
2.45776e-11
2.19603e-11
1.98219e-11
1.80526e-11
1.6578e-11
1.53462e-11
1.43195e-11
1.35729e-11
1.2942e-11
)
;
    }
}


// ************************************************************************* //
