/*--------------------------------*- C++ -*----------------------------------*\
| =========                 |                                                 |
| \\      /  F ield         | OpenFOAM: The Open Source CFD Toolbox           |
|  \\    /   O peration     | Version:  dev                                   |
|   \\  /    A nd           | Web:      www.OpenFOAM.org                      |
|    \\/     M anipulation  |                                                 |
\*---------------------------------------------------------------------------*/
FoamFile
{
    version     2.0;
    format      ascii;
    class       volScalarField;
    location    "0.065";
    object      n-C4H5;
}
// * * * * * * * * * * * * * * * * * * * * * * * * * * * * * * * * * * * * * //

dimensions      [0 0 0 0 0 0 0];

internalField   nonuniform List<scalar> 
250
(
5.30957e-08
5.31132e-08
5.30983e-08
5.3097e-08
5.31022e-08
5.31015e-08
5.31286e-08
5.33053e-08
5.45727e-08
6.411e-08
4.6536e-10
2.37854e-08
2.37885e-08
2.37837e-08
2.37868e-08
2.37856e-08
2.37898e-08
2.37979e-08
2.38964e-08
2.45304e-08
2.94407e-08
1.21204e-09
9.45782e-09
9.45836e-09
9.45669e-09
9.45925e-09
9.45735e-09
9.46157e-09
9.46131e-09
9.50899e-09
9.78463e-09
1.22566e-08
1.82956e-09
3.68302e-09
3.6831e-09
3.68256e-09
3.68398e-09
3.68276e-09
3.68536e-09
3.68359e-09
3.70367e-09
3.82054e-09
5.25498e-09
2.12042e-09
1.53305e-09
1.53299e-09
1.53285e-09
1.53353e-09
1.53292e-09
1.5342e-09
1.53247e-09
1.53708e-09
1.58069e-09
2.5503e-09
2.25755e-09
6.91964e-10
6.92198e-10
6.92245e-10
6.92394e-10
6.92155e-10
6.92915e-10
6.92461e-10
7.01386e-10
7.39375e-10
1.47411e-09
2.78018e-09
3.78379e-10
3.78625e-10
3.78696e-10
3.78738e-10
3.78645e-10
3.78958e-10
3.78341e-10
3.81896e-10
4.06274e-10
9.92767e-10
4.95192e-09
2.35899e-10
2.36629e-10
2.3674e-10
2.36663e-10
2.36676e-10
2.36963e-10
2.3727e-10
2.43089e-10
2.56478e-10
7.49635e-10
1.64506e-08
1.69198e-10
1.70407e-10
1.70516e-10
1.70425e-10
1.70469e-10
1.70634e-10
1.70812e-10
1.72096e-10
1.78673e-10
6.29715e-10
5.16321e-08
1.29832e-10
1.29198e-10
1.29292e-10
1.29198e-10
1.29256e-10
1.29348e-10
1.29462e-10
1.30373e-10
1.40416e-10
5.60575e-10
8.84689e-08
1.06514e-10
1.06605e-10
1.06506e-10
1.06575e-10
1.0663e-10
1.0671e-10
1.07302e-10
1.15279e-10
4.813e-10
9.46727e-08
8.97161e-11
8.98089e-11
8.96978e-11
8.97781e-11
8.98322e-11
8.99955e-11
9.15454e-11
9.7152e-11
3.79357e-10
7.00546e-08
7.71392e-11
7.7228e-11
7.71169e-11
7.72011e-11
7.72419e-11
7.74028e-11
7.88372e-11
8.37344e-11
2.81524e-10
4.38052e-08
6.74772e-11
6.75631e-11
6.74528e-11
6.75394e-11
6.7573e-11
6.77373e-11
6.91131e-11
7.45972e-11
2.07872e-10
2.54496e-08
5.9757e-11
5.98406e-11
5.9732e-11
5.98199e-11
5.985e-11
6.00202e-11
6.13608e-11
6.6645e-11
1.55605e-10
1.42957e-08
5.34045e-11
5.34855e-11
5.33795e-11
5.34677e-11
5.34967e-11
5.36725e-11
5.49884e-11
5.98692e-11
1.18681e-10
7.81153e-09
4.80568e-11
4.8135e-11
4.80321e-11
4.812e-11
4.81494e-11
4.83294e-11
4.96237e-11
5.42292e-11
9.45226e-11
4.25765e-09
4.34712e-11
4.3546e-11
4.34472e-11
4.35339e-11
4.35647e-11
4.37472e-11
4.50172e-11
4.98741e-11
7.73878e-11
2.31388e-09
3.94775e-11
3.95485e-11
3.94543e-11
3.95393e-11
3.95718e-11
3.97549e-11
4.09905e-11
4.55281e-11
6.46756e-11
1.26869e-09
3.59511e-11
3.60177e-11
3.59288e-11
3.60115e-11
3.6046e-11
3.62275e-11
3.74167e-11
4.16183e-11
5.55245e-11
7.09535e-10
3.27966e-11
3.28584e-11
3.27754e-11
3.2855e-11
3.28916e-11
3.30693e-11
3.41988e-11
3.80923e-11
4.86333e-11
4.08449e-10
2.99359e-11
2.99923e-11
2.99162e-11
2.99917e-11
3.00303e-11
3.02018e-11
3.12563e-11
3.48826e-11
4.31971e-11
2.43694e-10
2.76119e-11
2.76649e-11
2.75929e-11
2.76666e-11
2.77054e-11
2.78711e-11
2.88492e-11
3.19379e-11
3.86905e-11
1.51486e-10
2.53114e-11
2.53646e-11
2.52951e-11
2.53703e-11
2.54116e-11
2.55711e-11
2.65394e-11
2.92056e-11
3.52558e-11
9.85047e-11
)
;

boundaryField
{
    fuel
    {
        type            fixedValue;
        value           uniform 0;
    }
    wall
    {
        type            zeroGradient;
    }
    outlet
    {
        type            zeroGradient;
    }
    frontAndBack
    {
        type            empty;
    }
    procBoundary3to0
    {
        type            processor;
        value           nonuniform List<scalar> 10(2.33457e-11 2.33963e-11 2.33307e-11 2.34041e-11 2.34452e-11 2.35961e-11 2.44839e-11 2.6636e-11 3.1963e-11 6.74065e-11);
    }
    procBoundary3to2
    {
        type            processor;
        value           nonuniform List<scalar> 
25
(
5.30934e-08
2.37835e-08
9.45761e-09
3.68329e-09
1.53328e-09
6.92444e-10
3.78799e-10
2.36785e-10
1.70539e-10
1.29312e-10
1.0698e-10
1.0698e-10
9.00101e-11
7.74333e-11
6.77221e-11
5.99462e-11
5.35461e-11
4.81619e-11
4.3549e-11
3.95347e-11
3.59925e-11
3.28257e-11
2.99551e-11
2.76245e-11
2.53177e-11
)
;
    }
}


// ************************************************************************* //
