/*--------------------------------*- C++ -*----------------------------------*\
| =========                 |                                                 |
| \\      /  F ield         | OpenFOAM: The Open Source CFD Toolbox           |
|  \\    /   O peration     | Version:  dev                                   |
|   \\  /    A nd           | Web:      www.OpenFOAM.org                      |
|    \\/     M anipulation  |                                                 |
\*---------------------------------------------------------------------------*/
FoamFile
{
    version     2.0;
    format      ascii;
    class       volScalarField;
    location    "0.065";
    object      P2-;
}
// * * * * * * * * * * * * * * * * * * * * * * * * * * * * * * * * * * * * * //

dimensions      [0 0 0 0 0 0 0];

internalField   nonuniform List<scalar> 
1989
(
2.17853e-12
2.1773e-12
2.17677e-12
2.176e-12
2.17582e-12
2.17536e-12
2.17533e-12
2.17505e-12
2.17508e-12
2.17493e-12
2.17496e-12
2.17488e-12
2.1749e-12
2.17487e-12
2.17487e-12
2.1749e-12
2.17487e-12
2.17496e-12
2.17492e-12
2.17508e-12
2.17505e-12
2.17532e-12
2.17535e-12
2.17582e-12
2.176e-12
2.17676e-12
2.1773e-12
2.17849e-12
2.1799e-12
2.18189e-12
2.185e-12
2.1885e-12
2.19494e-12
2.20157e-12
2.21316e-12
2.22716e-12
2.24424e-12
2.27091e-12
2.286e-12
2.09808e-12
2.08338e-12
2.0576e-12
2.04117e-12
2.02787e-12
2.01677e-12
2.01047e-12
2.00437e-12
2.00108e-12
1.99811e-12
1.99619e-12
1.99491e-12
1.99374e-12
1.99322e-12
1.99246e-12
1.99229e-12
1.99182e-12
1.99179e-12
1.99151e-12
1.99155e-12
1.99139e-12
1.99142e-12
1.99134e-12
1.99136e-12
1.99133e-12
1.99133e-12
1.99136e-12
1.99134e-12
1.99142e-12
1.99139e-12
1.99154e-12
1.99151e-12
1.99178e-12
1.99182e-12
1.99228e-12
1.99246e-12
1.99322e-12
1.99373e-12
1.99487e-12
1.99621e-12
1.9981e-12
2.00107e-12
2.00437e-12
2.0105e-12
2.01678e-12
2.02787e-12
2.04117e-12
2.0576e-12
2.08334e-12
2.09805e-12
1.91776e-12
1.90359e-12
1.87885e-12
1.86319e-12
1.8506e-12
1.8401e-12
1.83416e-12
1.82839e-12
1.82533e-12
1.8225e-12
1.8207e-12
1.81949e-12
1.81838e-12
1.81788e-12
1.81714e-12
1.81696e-12
1.81649e-12
1.81645e-12
1.81618e-12
1.81621e-12
1.81606e-12
1.81608e-12
1.816e-12
1.81602e-12
1.816e-12
1.81599e-12
1.81602e-12
1.816e-12
1.81608e-12
1.81606e-12
1.8162e-12
1.81617e-12
1.81644e-12
1.81649e-12
1.81696e-12
1.81714e-12
1.81788e-12
1.81837e-12
1.81946e-12
1.82072e-12
1.82249e-12
1.82532e-12
1.82839e-12
1.83419e-12
1.8401e-12
1.8506e-12
1.86318e-12
1.87885e-12
1.90354e-12
1.91774e-12
1.74417e-12
1.73028e-12
1.70671e-12
1.69169e-12
1.67986e-12
1.66985e-12
1.6643e-12
1.65885e-12
1.656e-12
1.65333e-12
1.65165e-12
1.65051e-12
1.64945e-12
1.64897e-12
1.64824e-12
1.64805e-12
1.64757e-12
1.64751e-12
1.64723e-12
1.64725e-12
1.64711e-12
1.64711e-12
1.64704e-12
1.64706e-12
1.64703e-12
1.64703e-12
1.64706e-12
1.64703e-12
1.64711e-12
1.64711e-12
1.64725e-12
1.64722e-12
1.6475e-12
1.64756e-12
1.64804e-12
1.64823e-12
1.64896e-12
1.64944e-12
1.65048e-12
1.65165e-12
1.65332e-12
1.65599e-12
1.65885e-12
1.66432e-12
1.66985e-12
1.67986e-12
1.69168e-12
1.70672e-12
1.73023e-12
1.74415e-12
1.58105e-12
1.56775e-12
1.54558e-12
1.53146e-12
1.52048e-12
1.51101e-12
1.50594e-12
1.50082e-12
1.4982e-12
1.49572e-12
1.49416e-12
1.49309e-12
1.4921e-12
1.49165e-12
1.49095e-12
1.49076e-12
1.49028e-12
1.49021e-12
1.48992e-12
1.48994e-12
1.4898e-12
1.48978e-12
1.48971e-12
1.48973e-12
1.4897e-12
1.4897e-12
1.48972e-12
1.4897e-12
1.48977e-12
1.4898e-12
1.48993e-12
1.48991e-12
1.4902e-12
1.49028e-12
1.49076e-12
1.49094e-12
1.49165e-12
1.4921e-12
1.49307e-12
1.49416e-12
1.49571e-12
1.4982e-12
1.50082e-12
1.50595e-12
1.51101e-12
1.52048e-12
1.53146e-12
1.54559e-12
1.5677e-12
1.58103e-12
1.42719e-12
1.41394e-12
1.3925e-12
1.379e-12
1.36855e-12
1.3595e-12
1.35482e-12
1.34997e-12
1.34755e-12
1.34522e-12
1.34376e-12
1.34276e-12
1.34184e-12
1.34141e-12
1.34073e-12
1.34055e-12
1.34008e-12
1.33999e-12
1.33968e-12
1.3397e-12
1.33957e-12
1.3395e-12
1.33943e-12
1.33945e-12
1.33943e-12
1.33943e-12
1.33945e-12
1.33943e-12
1.3395e-12
1.33956e-12
1.33969e-12
1.33967e-12
1.33998e-12
1.34007e-12
1.34055e-12
1.34073e-12
1.3414e-12
1.34183e-12
1.34274e-12
1.34375e-12
1.34521e-12
1.34754e-12
1.34997e-12
1.35483e-12
1.35951e-12
1.36855e-12
1.37899e-12
1.39251e-12
1.41389e-12
1.42717e-12
1.28299e-12
1.27047e-12
1.25047e-12
1.23801e-12
1.22829e-12
1.21982e-12
1.21563e-12
1.21112e-12
1.20892e-12
1.2068e-12
1.20545e-12
1.20454e-12
1.2037e-12
1.20331e-12
1.20269e-12
1.20253e-12
1.20209e-12
1.202e-12
1.20169e-12
1.20171e-12
1.20158e-12
1.20148e-12
1.20142e-12
1.20144e-12
1.20141e-12
1.20141e-12
1.20144e-12
1.20142e-12
1.20148e-12
1.20158e-12
1.2017e-12
1.20169e-12
1.20199e-12
1.20208e-12
1.20252e-12
1.20269e-12
1.20331e-12
1.20369e-12
1.20452e-12
1.20544e-12
1.20679e-12
1.20892e-12
1.21112e-12
1.21563e-12
1.21983e-12
1.22829e-12
1.238e-12
1.25049e-12
1.27042e-12
1.28297e-12
1.14701e-12
1.13512e-12
1.11648e-12
1.10503e-12
1.09587e-12
1.08799e-12
1.08422e-12
1.08005e-12
1.07807e-12
1.07612e-12
1.0749e-12
1.07408e-12
1.07332e-12
1.07298e-12
1.07244e-12
1.0723e-12
1.07193e-12
1.07187e-12
1.07161e-12
1.07162e-12
1.0715e-12
1.07142e-12
1.07136e-12
1.07138e-12
1.07136e-12
1.07136e-12
1.07138e-12
1.07136e-12
1.07142e-12
1.07149e-12
1.07161e-12
1.0716e-12
1.07187e-12
1.07192e-12
1.07229e-12
1.07243e-12
1.07297e-12
1.07331e-12
1.07406e-12
1.07489e-12
1.07612e-12
1.07806e-12
1.08005e-12
1.08423e-12
1.088e-12
1.09587e-12
1.10503e-12
1.11649e-12
1.13507e-12
1.14699e-12
1.01944e-12
1.00831e-12
9.91416e-13
9.81057e-13
9.72421e-13
9.6522e-13
9.61887e-13
9.58103e-13
9.56336e-13
9.54582e-13
9.5349e-13
9.52761e-13
9.52089e-13
9.51796e-13
9.51337e-13
9.51228e-13
9.50939e-13
9.50935e-13
9.50768e-13
9.5077e-13
9.50654e-13
9.50751e-13
9.50698e-13
9.50713e-13
9.50696e-13
9.50695e-13
9.50713e-13
9.50697e-13
9.50749e-13
9.50651e-13
9.50768e-13
9.50764e-13
9.50932e-13
9.50936e-13
9.51227e-13
9.51337e-13
9.51796e-13
9.52086e-13
9.52749e-13
9.53476e-13
9.54583e-13
9.56331e-13
9.581e-13
9.61891e-13
9.65224e-13
9.7242e-13
9.81049e-13
9.91426e-13
1.00827e-12
1.01943e-12
9.01649e-13
8.91316e-13
8.76127e-13
8.66892e-13
8.60841e-13
8.54248e-13
8.51339e-13
8.479e-13
8.46343e-13
8.44758e-13
8.43793e-13
8.43152e-13
8.4256e-13
8.42316e-13
8.41931e-13
8.41852e-13
8.4163e-13
8.4166e-13
8.4154e-13
8.41539e-13
8.41425e-13
8.41555e-13
8.41507e-13
8.41521e-13
8.41505e-13
8.41505e-13
8.41521e-13
8.41506e-13
8.41553e-13
8.41422e-13
8.41536e-13
8.41537e-13
8.41657e-13
8.41627e-13
8.41851e-13
8.4193e-13
8.42316e-13
8.42558e-13
8.43142e-13
8.43781e-13
8.4476e-13
8.46339e-13
8.47898e-13
8.51342e-13
8.54251e-13
8.6084e-13
8.66885e-13
8.76134e-13
8.9128e-13
9.01637e-13
7.95484e-13
7.85889e-13
7.72262e-13
7.64022e-13
7.5844e-13
7.52434e-13
7.49931e-13
7.46835e-13
7.45474e-13
7.44056e-13
7.43206e-13
7.42649e-13
7.42134e-13
7.41933e-13
7.41611e-13
7.41557e-13
7.41379e-13
7.41419e-13
7.41309e-13
7.41306e-13
7.41197e-13
7.41299e-13
7.41255e-13
7.41268e-13
7.41253e-13
7.41253e-13
7.41268e-13
7.41254e-13
7.41297e-13
7.41194e-13
7.41303e-13
7.41306e-13
7.41415e-13
7.41376e-13
7.41556e-13
7.41611e-13
7.41933e-13
7.42131e-13
7.4264e-13
7.43198e-13
7.44059e-13
7.45471e-13
7.46834e-13
7.49935e-13
7.52437e-13
7.58439e-13
7.64016e-13
7.72266e-13
7.85858e-13
7.95475e-13
6.98295e-13
6.89428e-13
6.77291e-13
6.69998e-13
6.64902e-13
6.5934e-13
6.56863e-13
6.53888e-13
6.52663e-13
6.51377e-13
6.50614e-13
6.50122e-13
6.49666e-13
6.49498e-13
6.4922e-13
6.49183e-13
6.49026e-13
6.49061e-13
6.48953e-13
6.48952e-13
6.48851e-13
6.48921e-13
6.48881e-13
6.48893e-13
6.48879e-13
6.48879e-13
6.48893e-13
6.48879e-13
6.4892e-13
6.48849e-13
6.4895e-13
6.4895e-13
6.49059e-13
6.49024e-13
6.49181e-13
6.4922e-13
6.49498e-13
6.49664e-13
6.50115e-13
6.50609e-13
6.5138e-13
6.52663e-13
6.53883e-13
6.56862e-13
6.5934e-13
6.64901e-13
6.69992e-13
6.77292e-13
6.89401e-13
6.98287e-13
6.09735e-13
6.01573e-13
5.89878e-13
5.83069e-13
5.78425e-13
5.73449e-13
5.71306e-13
5.68662e-13
5.67604e-13
5.66472e-13
5.65803e-13
5.65383e-13
5.6499e-13
5.64851e-13
5.64614e-13
5.64589e-13
5.64452e-13
5.64481e-13
5.64383e-13
5.64392e-13
5.64312e-13
5.64356e-13
5.64319e-13
5.64331e-13
5.64318e-13
5.64318e-13
5.6433e-13
5.64318e-13
5.64355e-13
5.6431e-13
5.6439e-13
5.64381e-13
5.64479e-13
5.6445e-13
5.64588e-13
5.64614e-13
5.64851e-13
5.64988e-13
5.65377e-13
5.65802e-13
5.66474e-13
5.67604e-13
5.68659e-13
5.71305e-13
5.73449e-13
5.78424e-13
5.83062e-13
5.89878e-13
6.0155e-13
6.09729e-13
5.27969e-13
5.20513e-13
5.10138e-13
5.04184e-13
5.00041e-13
4.95634e-13
4.93794e-13
4.91462e-13
4.90553e-13
4.89562e-13
4.88982e-13
4.88623e-13
4.88285e-13
4.88169e-13
4.87964e-13
4.87949e-13
4.87829e-13
4.87854e-13
4.87776e-13
4.87798e-13
4.87745e-13
4.87774e-13
4.87742e-13
4.87752e-13
4.8774e-13
4.8774e-13
4.87751e-13
4.87741e-13
4.87773e-13
4.87743e-13
4.87796e-13
4.87774e-13
4.87852e-13
4.87828e-13
4.87948e-13
4.87964e-13
4.88169e-13
4.88283e-13
4.88618e-13
4.88981e-13
4.89566e-13
4.90554e-13
4.91459e-13
4.93793e-13
4.95633e-13
5.0004e-13
5.04179e-13
5.10136e-13
5.20493e-13
5.27964e-13
4.55334e-13
4.48467e-13
4.39393e-13
4.34114e-13
4.3049e-13
4.26569e-13
4.2501e-13
4.22947e-13
4.22173e-13
4.21304e-13
4.20804e-13
4.20497e-13
4.20204e-13
4.20107e-13
4.19927e-13
4.19919e-13
4.19815e-13
4.1984e-13
4.19782e-13
4.19815e-13
4.19784e-13
4.19805e-13
4.19776e-13
4.19785e-13
4.19775e-13
4.19775e-13
4.19785e-13
4.19775e-13
4.19804e-13
4.19782e-13
4.19814e-13
4.1978e-13
4.19838e-13
4.19814e-13
4.19919e-13
4.19927e-13
4.20107e-13
4.20203e-13
4.20493e-13
4.20804e-13
4.21309e-13
4.22175e-13
4.22945e-13
4.25009e-13
4.26568e-13
4.30489e-13
4.34109e-13
4.3939e-13
4.4845e-13
4.55331e-13
3.89925e-13
3.83687e-13
3.75829e-13
3.71136e-13
3.67912e-13
3.64351e-13
3.63006e-13
3.61151e-13
3.60502e-13
3.59741e-13
3.59315e-13
3.59047e-13
3.58791e-13
3.58709e-13
3.58551e-13
3.58546e-13
3.58448e-13
3.58468e-13
3.58411e-13
3.58439e-13
3.58409e-13
3.58427e-13
3.584e-13
3.58408e-13
3.58399e-13
3.58399e-13
3.58408e-13
3.58399e-13
3.58426e-13
3.58408e-13
3.58438e-13
3.5841e-13
3.58467e-13
3.58447e-13
3.58545e-13
3.58551e-13
3.58709e-13
3.5879e-13
3.59044e-13
3.59316e-13
3.59744e-13
3.60503e-13
3.6115e-13
3.63005e-13
3.6435e-13
3.67911e-13
3.71132e-13
3.75826e-13
3.83672e-13
3.89922e-13
3.31271e-13
3.25757e-13
3.18938e-13
3.14798e-13
3.1203e-13
3.089e-13
3.07776e-13
3.06149e-13
3.05607e-13
3.04945e-13
3.04584e-13
3.04354e-13
3.04132e-13
3.04064e-13
3.03925e-13
3.03924e-13
3.03837e-13
3.03856e-13
3.03808e-13
3.03835e-13
3.0381e-13
3.03825e-13
3.038e-13
3.03808e-13
3.038e-13
3.038e-13
3.03807e-13
3.038e-13
3.03824e-13
3.03809e-13
3.03834e-13
3.03807e-13
3.03855e-13
3.03836e-13
3.03923e-13
3.03925e-13
3.04064e-13
3.04132e-13
3.04352e-13
3.04586e-13
3.04948e-13
3.05608e-13
3.06148e-13
3.07775e-13
3.08899e-13
3.12029e-13
3.14794e-13
3.18935e-13
3.25744e-13
3.31269e-13
2.78984e-13
2.74138e-13
2.6828e-13
2.64652e-13
2.623e-13
2.59572e-13
2.58643e-13
2.57225e-13
2.56776e-13
2.56205e-13
2.55902e-13
2.55704e-13
2.55513e-13
2.55457e-13
2.55334e-13
2.55336e-13
2.55258e-13
2.55276e-13
2.55233e-13
2.55254e-13
2.5523e-13
2.55243e-13
2.5522e-13
2.55226e-13
2.55219e-13
2.55219e-13
2.55226e-13
2.55219e-13
2.55242e-13
2.55229e-13
2.55253e-13
2.55231e-13
2.55275e-13
2.55257e-13
2.55335e-13
2.55335e-13
2.55457e-13
2.55513e-13
2.55703e-13
2.55903e-13
2.56208e-13
2.56778e-13
2.57223e-13
2.58642e-13
2.5957e-13
2.62299e-13
2.64649e-13
2.68277e-13
2.74127e-13
2.78982e-13
2.32475e-13
2.28158e-13
2.23082e-13
2.19896e-13
2.17889e-13
2.15516e-13
2.14742e-13
2.13507e-13
2.13135e-13
2.12642e-13
2.12386e-13
2.12216e-13
2.12052e-13
2.12004e-13
2.11898e-13
2.11899e-13
2.11829e-13
2.11844e-13
2.11803e-13
2.11817e-13
2.11794e-13
2.11805e-13
2.11782e-13
2.11787e-13
2.11781e-13
2.11781e-13
2.11787e-13
2.11781e-13
2.11804e-13
2.11793e-13
2.11816e-13
2.11802e-13
2.11843e-13
2.11829e-13
2.11899e-13
2.11898e-13
2.12005e-13
2.12052e-13
2.12215e-13
2.12387e-13
2.12644e-13
2.13136e-13
2.13506e-13
2.14741e-13
2.15515e-13
2.17888e-13
2.19893e-13
2.2308e-13
2.28149e-13
2.32474e-13
1.91614e-13
1.87864e-13
1.83574e-13
1.80838e-13
1.79169e-13
1.77139e-13
1.76514e-13
1.75451e-13
1.7515e-13
1.74731e-13
1.74519e-13
1.74376e-13
1.74237e-13
1.74199e-13
1.74108e-13
1.7411e-13
1.74048e-13
1.7406e-13
1.74022e-13
1.74031e-13
1.74009e-13
1.74018e-13
1.73994e-13
1.73999e-13
1.73994e-13
1.73994e-13
1.73999e-13
1.73994e-13
1.74017e-13
1.74008e-13
1.7403e-13
1.74021e-13
1.74059e-13
1.74048e-13
1.7411e-13
1.74108e-13
1.74199e-13
1.74237e-13
1.74375e-13
1.7452e-13
1.74733e-13
1.75151e-13
1.7545e-13
1.76513e-13
1.77138e-13
1.79168e-13
1.80835e-13
1.83571e-13
1.87856e-13
1.91613e-13
1.55872e-13
1.52639e-13
1.49055e-13
1.46741e-13
1.45374e-13
1.43659e-13
1.43162e-13
1.42256e-13
1.42016e-13
1.41664e-13
1.41491e-13
1.41371e-13
1.41256e-13
1.41227e-13
1.41151e-13
1.41153e-13
1.41101e-13
1.41111e-13
1.41077e-13
1.41085e-13
1.41065e-13
1.41073e-13
1.41053e-13
1.41057e-13
1.41052e-13
1.41052e-13
1.41057e-13
1.41052e-13
1.41072e-13
1.41064e-13
1.41084e-13
1.41077e-13
1.4111e-13
1.41101e-13
1.41153e-13
1.41151e-13
1.41227e-13
1.41256e-13
1.41371e-13
1.41493e-13
1.41665e-13
1.42017e-13
1.42255e-13
1.43161e-13
1.43658e-13
1.45373e-13
1.46739e-13
1.49053e-13
1.52632e-13
1.55871e-13
1.24901e-13
1.22132e-13
1.19185e-13
1.17208e-13
1.16079e-13
1.14623e-13
1.14227e-13
1.13451e-13
1.13259e-13
1.12961e-13
1.1282e-13
1.12719e-13
1.12624e-13
1.12601e-13
1.12538e-13
1.12541e-13
1.12499e-13
1.12506e-13
1.1248e-13
1.12491e-13
1.12474e-13
1.1248e-13
1.12475e-13
1.12479e-13
1.12475e-13
1.12475e-13
1.12479e-13
1.12475e-13
1.1248e-13
1.12473e-13
1.12491e-13
1.12479e-13
1.12506e-13
1.12498e-13
1.12541e-13
1.12538e-13
1.12602e-13
1.12624e-13
1.12719e-13
1.12821e-13
1.12962e-13
1.13259e-13
1.1345e-13
1.14227e-13
1.14622e-13
1.16079e-13
1.17206e-13
1.19184e-13
1.22126e-13
1.249e-13
9.83486e-14
9.60503e-14
9.36692e-14
9.20421e-14
9.11472e-14
8.99526e-14
8.96514e-14
8.90044e-14
8.88555e-14
8.8609e-14
8.84975e-14
8.84159e-14
8.834e-14
8.83238e-14
8.82725e-14
8.82756e-14
8.82427e-14
8.8249e-14
8.82284e-14
8.82399e-14
8.82252e-14
8.82308e-14
8.82285e-14
8.82315e-14
8.82285e-14
8.82285e-14
8.82315e-14
8.82283e-14
8.82305e-14
8.82248e-14
8.82395e-14
8.82278e-14
8.82485e-14
8.82424e-14
8.82755e-14
8.82727e-14
8.83241e-14
8.83401e-14
8.84159e-14
8.84985e-14
8.86098e-14
8.88559e-14
8.90036e-14
8.96506e-14
8.99519e-14
9.11466e-14
9.20406e-14
9.36683e-14
9.6045e-14
9.83488e-14
7.5937e-14
7.40475e-14
7.20851e-14
7.07481e-14
7.00404e-14
6.9072e-14
6.88426e-14
6.83116e-14
6.81948e-14
6.79889e-14
6.79014e-14
6.7836e-14
6.77763e-14
6.77646e-14
6.77235e-14
6.77261e-14
6.77001e-14
6.7705e-14
6.76883e-14
6.76974e-14
6.76854e-14
6.76899e-14
6.76869e-14
6.76893e-14
6.76868e-14
6.76868e-14
6.76893e-14
6.76867e-14
6.76897e-14
6.76851e-14
6.76971e-14
6.76879e-14
6.77046e-14
6.76999e-14
6.77261e-14
6.77237e-14
6.77648e-14
6.77764e-14
6.78361e-14
6.79024e-14
6.79895e-14
6.8195e-14
6.83109e-14
6.8842e-14
6.90714e-14
7.00399e-14
7.07469e-14
7.20843e-14
7.40433e-14
7.59369e-14
5.73887e-14
5.58946e-14
5.43676e-14
5.3312e-14
5.27767e-14
5.20167e-14
5.18526e-14
5.14315e-14
5.13438e-14
5.11666e-14
5.11006e-14
5.10492e-14
5.10039e-14
5.09956e-14
5.09632e-14
5.09652e-14
5.09443e-14
5.09483e-14
5.09346e-14
5.09411e-14
5.09316e-14
5.09353e-14
5.09317e-14
5.09336e-14
5.09317e-14
5.09317e-14
5.09336e-14
5.09316e-14
5.09351e-14
5.09314e-14
5.09408e-14
5.09343e-14
5.09479e-14
5.09442e-14
5.09652e-14
5.09634e-14
5.09958e-14
5.1004e-14
5.10492e-14
5.11013e-14
5.1167e-14
5.13439e-14
5.1431e-14
5.18521e-14
5.20163e-14
5.27763e-14
5.3311e-14
5.4367e-14
5.58915e-14
5.73886e-14
4.23776e-14
4.12245e-14
4.00565e-14
3.92177e-14
3.88123e-14
3.82188e-14
3.8102e-14
3.77742e-14
3.7712e-14
3.75417e-14
3.74923e-14
3.74524e-14
3.74185e-14
3.74122e-14
3.73867e-14
3.73878e-14
3.73708e-14
3.73738e-14
3.73627e-14
3.7367e-14
3.73597e-14
3.73625e-14
3.73591e-14
3.73606e-14
3.73591e-14
3.73591e-14
3.73606e-14
3.7359e-14
3.73624e-14
3.73595e-14
3.73668e-14
3.73624e-14
3.73735e-14
3.73706e-14
3.73878e-14
3.73868e-14
3.74123e-14
3.74186e-14
3.74524e-14
3.74929e-14
3.75419e-14
3.7712e-14
3.77738e-14
3.81017e-14
3.82184e-14
3.88119e-14
3.9217e-14
4.00561e-14
4.12221e-14
4.23777e-14
3.03792e-14
2.95098e-14
2.86444e-14
2.80223e-14
2.77297e-14
2.72944e-14
2.72148e-14
2.69794e-14
2.69456e-14
2.69029e-14
2.68678e-14
2.68371e-14
2.68134e-14
2.68086e-14
2.67893e-14
2.67898e-14
2.67768e-14
2.67792e-14
2.67707e-14
2.67736e-14
2.67683e-14
2.67704e-14
2.67676e-14
2.67687e-14
2.67676e-14
2.67676e-14
2.67687e-14
2.67675e-14
2.67703e-14
2.67681e-14
2.67735e-14
2.67705e-14
2.6779e-14
2.67767e-14
2.67899e-14
2.67894e-14
2.68088e-14
2.68135e-14
2.68371e-14
2.68683e-14
2.69029e-14
2.69456e-14
2.69791e-14
2.72145e-14
2.72942e-14
2.77294e-14
2.80218e-14
2.86441e-14
2.95082e-14
3.03792e-14
2.12533e-14
2.0618e-14
1.9996e-14
1.95452e-14
1.93422e-14
1.90283e-14
1.89785e-14
1.88122e-14
1.87943e-14
1.87477e-14
1.87224e-14
1.86981e-14
1.86821e-14
1.86784e-14
1.86637e-14
1.8664e-14
1.86542e-14
1.86561e-14
1.86497e-14
1.86519e-14
1.86479e-14
1.86495e-14
1.86474e-14
1.86483e-14
1.86474e-14
1.86474e-14
1.86483e-14
1.86474e-14
1.86495e-14
1.86478e-14
1.86518e-14
1.86495e-14
1.86559e-14
1.86541e-14
1.8664e-14
1.86637e-14
1.86784e-14
1.86821e-14
1.86981e-14
1.87227e-14
1.87478e-14
1.87943e-14
1.88119e-14
1.89782e-14
1.90281e-14
1.9342e-14
1.95449e-14
1.99958e-14
2.06168e-14
2.12533e-14
1.44024e-14
1.39551e-14
1.35247e-14
1.3206e-14
1.30702e-14
1.2851e-14
1.28217e-14
1.27064e-14
1.26961e-14
1.26569e-14
1.26398e-14
1.26213e-14
1.26117e-14
1.26088e-14
1.25982e-14
1.25984e-14
1.25915e-14
1.2593e-14
1.25885e-14
1.259e-14
1.25873e-14
1.25884e-14
1.25869e-14
1.25875e-14
1.25869e-14
1.25869e-14
1.25875e-14
1.25869e-14
1.25884e-14
1.25872e-14
1.25899e-14
1.25884e-14
1.25928e-14
1.25915e-14
1.25984e-14
1.25983e-14
1.26088e-14
1.26117e-14
1.26213e-14
1.264e-14
1.26569e-14
1.26961e-14
1.27061e-14
1.28215e-14
1.28508e-14
1.30701e-14
1.32058e-14
1.35245e-14
1.39545e-14
1.44023e-14
9.40561e-15
9.1021e-15
8.81516e-15
8.59807e-15
8.51087e-15
8.36336e-15
8.34736e-15
8.26891e-15
8.26293e-15
8.23397e-15
8.22289e-15
8.20904e-15
8.20389e-15
8.2016e-15
8.19439e-15
8.1945e-15
8.19e-15
8.19103e-15
8.18805e-15
8.18906e-15
8.18724e-15
8.18801e-15
8.187e-15
8.1874e-15
8.18702e-15
8.18702e-15
8.1874e-15
8.18697e-15
8.18798e-15
8.18719e-15
8.18901e-15
8.18797e-15
8.19092e-15
8.18996e-15
8.19449e-15
8.19443e-15
8.20166e-15
8.20393e-15
8.20901e-15
8.223e-15
8.23395e-15
8.26286e-15
8.26874e-15
8.34722e-15
8.36324e-15
8.51077e-15
8.59789e-15
8.81504e-15
9.10172e-15
9.40555e-15
5.88525e-15
5.68774e-15
5.50356e-15
5.36209e-15
5.30888e-15
5.21386e-15
5.20598e-15
5.15424e-15
5.15102e-15
5.13143e-15
5.12464e-15
5.11532e-15
5.1124e-15
5.11057e-15
5.10588e-15
5.10599e-15
5.10327e-15
5.10398e-15
5.10208e-15
5.10273e-15
5.10158e-15
5.10208e-15
5.10143e-15
5.10168e-15
5.10144e-15
5.10144e-15
5.10168e-15
5.10141e-15
5.10205e-15
5.10155e-15
5.1027e-15
5.10203e-15
5.1039e-15
5.10324e-15
5.10599e-15
5.1059e-15
5.11062e-15
5.11242e-15
5.1153e-15
5.12471e-15
5.13141e-15
5.15097e-15
5.15414e-15
5.20589e-15
5.21378e-15
5.30881e-15
5.36198e-15
5.50348e-15
5.68754e-15
5.88518e-15
3.49954e-15
3.3784e-15
3.26511e-15
3.17877e-15
3.14772e-15
3.09036e-15
3.08651e-15
3.05453e-15
3.05288e-15
3.04071e-15
3.03686e-15
3.03348e-15
3.02943e-15
3.02791e-15
3.02507e-15
3.02529e-15
3.0238e-15
3.02424e-15
3.02311e-15
3.0235e-15
3.02281e-15
3.0231e-15
3.02272e-15
3.02287e-15
3.02272e-15
3.02272e-15
3.02287e-15
3.02271e-15
3.02309e-15
3.02279e-15
3.02348e-15
3.02308e-15
3.02419e-15
3.02379e-15
3.02528e-15
3.02509e-15
3.02794e-15
3.02945e-15
3.03347e-15
3.0369e-15
3.0407e-15
3.05285e-15
3.05446e-15
3.08645e-15
3.09031e-15
3.14767e-15
3.1787e-15
3.26506e-15
3.37827e-15
3.49951e-15
1.97753e-15
1.90864e-15
1.85286e-15
1.8029e-15
1.786e-15
1.75307e-15
1.75154e-15
1.73269e-15
1.73201e-15
1.7249e-15
1.72286e-15
1.72159e-15
1.71859e-15
1.71724e-15
1.71563e-15
1.71614e-15
1.71534e-15
1.71558e-15
1.71494e-15
1.71515e-15
1.71476e-15
1.71493e-15
1.71471e-15
1.7148e-15
1.71472e-15
1.71472e-15
1.7148e-15
1.71471e-15
1.71492e-15
1.71475e-15
1.71514e-15
1.71492e-15
1.71555e-15
1.71533e-15
1.71614e-15
1.71563e-15
1.71726e-15
1.7186e-15
1.72159e-15
1.72288e-15
1.72488e-15
1.73199e-15
1.73265e-15
1.75151e-15
1.75304e-15
1.78597e-15
1.80286e-15
1.85283e-15
1.90859e-15
1.9775e-15
1.07904e-15
1.04162e-15
1.01174e-15
9.84052e-16
9.75185e-16
9.57143e-16
9.56588e-16
9.46015e-16
9.45775e-16
9.41819e-16
9.40779e-16
9.40204e-16
9.38464e-16
9.38525e-16
9.37667e-16
9.37245e-16
9.36664e-16
9.3678e-16
9.36431e-16
9.36544e-16
9.36333e-16
9.36422e-16
9.36303e-16
9.3635e-16
9.36305e-16
9.36305e-16
9.3635e-16
9.363e-16
9.36417e-16
9.36328e-16
9.36537e-16
9.36421e-16
9.36766e-16
9.36659e-16
9.37244e-16
9.37671e-16
9.38535e-16
9.38469e-16
9.40203e-16
9.40788e-16
9.41812e-16
9.45764e-16
9.45994e-16
9.56569e-16
9.57126e-16
9.75169e-16
9.84029e-16
1.01172e-15
1.0416e-15
1.07902e-15
5.78737e-16
5.59233e-16
5.43898e-16
5.29401e-16
5.24927e-16
5.1554e-16
5.15349e-16
5.09751e-16
5.0968e-16
5.07594e-16
5.07082e-16
5.06773e-16
5.05889e-16
5.05881e-16
5.05449e-16
5.05315e-16
5.04951e-16
5.04996e-16
5.04814e-16
5.04869e-16
5.0476e-16
5.04805e-16
5.04744e-16
5.04767e-16
5.04744e-16
5.04744e-16
5.04767e-16
5.04742e-16
5.04802e-16
5.04757e-16
5.04866e-16
5.04809e-16
5.0499e-16
5.04948e-16
5.05314e-16
5.05451e-16
5.05886e-16
5.05891e-16
5.06774e-16
5.07086e-16
5.0759e-16
5.09673e-16
5.0974e-16
5.15339e-16
5.1553e-16
5.24918e-16
5.29389e-16
5.43889e-16
5.59225e-16
5.78722e-16
3.19281e-16
3.09167e-16
3.01302e-16
2.938e-16
2.91484e-16
2.86662e-16
2.86557e-16
2.83656e-16
2.83623e-16
2.82538e-16
2.82278e-16
2.82098e-16
2.81666e-16
2.81637e-16
2.81422e-16
2.81382e-16
2.8118e-16
2.81193e-16
2.81098e-16
2.81124e-16
2.81068e-16
2.8109e-16
2.81058e-16
2.8107e-16
2.81059e-16
2.81059e-16
2.8107e-16
2.81057e-16
2.81089e-16
2.81066e-16
2.81123e-16
2.81095e-16
2.81192e-16
2.81179e-16
2.81381e-16
2.81423e-16
2.81639e-16
2.81667e-16
2.82099e-16
2.82281e-16
2.82536e-16
2.8362e-16
2.8365e-16
2.86552e-16
2.86657e-16
2.9148e-16
2.93794e-16
3.01297e-16
3.09164e-16
3.19272e-16
1.9529e-16
1.89694e-16
1.85351e-16
1.8127e-16
1.79916e-16
1.77308e-16
1.7716e-16
1.75551e-16
1.75498e-16
1.74897e-16
1.74746e-16
1.74628e-16
1.74411e-16
1.74374e-16
1.74261e-16
1.74247e-16
1.74139e-16
1.74139e-16
1.74085e-16
1.74097e-16
1.74065e-16
1.74077e-16
1.74059e-16
1.74066e-16
1.74059e-16
1.74059e-16
1.74066e-16
1.74058e-16
1.74076e-16
1.74064e-16
1.74096e-16
1.74083e-16
1.74139e-16
1.74138e-16
1.74246e-16
1.74261e-16
1.74375e-16
1.74411e-16
1.74629e-16
1.74748e-16
1.74896e-16
1.75497e-16
1.75548e-16
1.77158e-16
1.77305e-16
1.79913e-16
1.81266e-16
1.85349e-16
1.89693e-16
1.95285e-16
1.42946e-16
1.39304e-16
1.3646e-16
1.33907e-16
1.32917e-16
1.31312e-16
1.31113e-16
1.30125e-16
1.30049e-16
1.2967e-16
1.2956e-16
1.29466e-16
1.29347e-16
1.29307e-16
1.29237e-16
1.29228e-16
1.29166e-16
1.29163e-16
1.29128e-16
1.29134e-16
1.29113e-16
1.2912e-16
1.29107e-16
1.29112e-16
1.29108e-16
1.29107e-16
1.29112e-16
1.29107e-16
1.29119e-16
1.29112e-16
1.29133e-16
1.29127e-16
1.29164e-16
1.29165e-16
1.29228e-16
1.29237e-16
1.29307e-16
1.29347e-16
1.29467e-16
1.29561e-16
1.29669e-16
1.30048e-16
1.30124e-16
1.31111e-16
1.3131e-16
1.32915e-16
1.33904e-16
1.36459e-16
1.39304e-16
1.42942e-16
1.2555e-16
1.22623e-16
1.20322e-16
1.1837e-16
1.17473e-16
1.16272e-16
1.16016e-16
1.15284e-16
1.15183e-16
1.1489e-16
1.1479e-16
1.14701e-16
1.14624e-16
1.14582e-16
1.14527e-16
1.14518e-16
1.14475e-16
1.14473e-16
1.14445e-16
1.14449e-16
1.14432e-16
1.14437e-16
1.14427e-16
1.14431e-16
1.14427e-16
1.14427e-16
1.14431e-16
1.14427e-16
1.14437e-16
1.14432e-16
1.14449e-16
1.14444e-16
1.14473e-16
1.14474e-16
1.14517e-16
1.14526e-16
1.14583e-16
1.14624e-16
1.14701e-16
1.14791e-16
1.14889e-16
1.15182e-16
1.15282e-16
1.16014e-16
1.1627e-16
1.17472e-16
1.18368e-16
1.20321e-16
1.22622e-16
1.25547e-16
1.2212e-16
1.19389e-16
1.17241e-16
1.15483e-16
1.14587e-16
1.13522e-16
1.13226e-16
1.12583e-16
1.12464e-16
1.12199e-16
1.121e-16
1.12007e-16
1.11946e-16
1.11905e-16
1.11852e-16
1.11843e-16
1.11806e-16
1.11805e-16
1.11781e-16
1.11784e-16
1.11769e-16
1.11773e-16
1.11764e-16
1.11767e-16
1.11764e-16
1.11764e-16
1.11767e-16
1.11763e-16
1.11772e-16
1.11768e-16
1.11783e-16
1.1178e-16
1.11805e-16
1.11805e-16
1.11842e-16
1.11852e-16
1.11906e-16
1.11946e-16
1.12007e-16
1.121e-16
1.12198e-16
1.12464e-16
1.12581e-16
1.13224e-16
1.13521e-16
1.14586e-16
1.15481e-16
1.17239e-16
1.19388e-16
1.22117e-16
)
;

boundaryField
{
    fuel
    {
        type            fixedValue;
        value           nonuniform 0();
    }
    wall
    {
        type            zeroGradient;
    }
    outlet
    {
        type            zeroGradient;
    }
    frontAndBack
    {
        type            empty;
    }
    procBoundary3to2
    {
        type            processor;
        value           nonuniform List<scalar> 
51
(
2.3696e-12
2.36832e-12
2.36775e-12
2.36697e-12
2.36679e-12
2.36632e-12
2.36629e-12
2.36601e-12
2.36604e-12
2.36588e-12
2.36592e-12
2.36583e-12
2.36585e-12
2.36583e-12
2.36582e-12
2.36585e-12
2.36583e-12
2.36592e-12
2.36588e-12
2.36604e-12
2.366e-12
2.36628e-12
2.36631e-12
2.36678e-12
2.36696e-12
2.36774e-12
2.36831e-12
2.36957e-12
2.37103e-12
2.37312e-12
2.37633e-12
2.38001e-12
2.38672e-12
2.39366e-12
2.40566e-12
2.42031e-12
2.43793e-12
2.46536e-12
2.4807e-12
2.28604e-12
2.27095e-12
2.24426e-12
2.22718e-12
2.21318e-12
2.20158e-12
2.19494e-12
2.18853e-12
2.18504e-12
2.18195e-12
2.17991e-12
2.17991e-12
)
;
    }
}


// ************************************************************************* //
