/*--------------------------------*- C++ -*----------------------------------*\
| =========                 |                                                 |
| \\      /  F ield         | OpenFOAM: The Open Source CFD Toolbox           |
|  \\    /   O peration     | Version:  dev                                   |
|   \\  /    A nd           | Web:      www.OpenFOAM.org                      |
|    \\/     M anipulation  |                                                 |
\*---------------------------------------------------------------------------*/
FoamFile
{
    version     2.0;
    format      ascii;
    class       volScalarField;
    location    "0.065";
    object      PC3H4;
}
// * * * * * * * * * * * * * * * * * * * * * * * * * * * * * * * * * * * * * //

dimensions      [0 0 0 0 0 0 0];

internalField   nonuniform List<scalar> 
250
(
5.07379e-07
5.07313e-07
5.07067e-07
5.06781e-07
5.07144e-07
5.07125e-07
5.07039e-07
5.08614e-07
5.17984e-07
5.90545e-07
1.02722e-06
3.5191e-07
3.51891e-07
3.51829e-07
3.51784e-07
3.51863e-07
3.51876e-07
3.51945e-07
3.53001e-07
3.59678e-07
4.07618e-07
2.34705e-06
2.87667e-07
2.87661e-07
2.87643e-07
2.87643e-07
2.87661e-07
2.87684e-07
2.87799e-07
2.88853e-07
2.95538e-07
3.39082e-07
3.15404e-06
2.62611e-07
2.62617e-07
2.62613e-07
2.62618e-07
2.62623e-07
2.62651e-07
2.62798e-07
2.64029e-07
2.71712e-07
3.17596e-07
3.61674e-06
2.49915e-07
2.49935e-07
2.4994e-07
2.4994e-07
2.49946e-07
2.49978e-07
2.50151e-07
2.51611e-07
2.6053e-07
3.10984e-07
3.87939e-06
2.39874e-07
2.39928e-07
2.39942e-07
2.39931e-07
2.39941e-07
2.39984e-07
2.40201e-07
2.42132e-07
2.52735e-07
3.08461e-07
4.00178e-06
2.3126e-07
2.31358e-07
2.31381e-07
2.3136e-07
2.31376e-07
2.31424e-07
2.31662e-07
2.33857e-07
2.45796e-07
3.06772e-07
3.95931e-06
2.2254e-07
2.22743e-07
2.22779e-07
2.22739e-07
2.22768e-07
2.22837e-07
2.23186e-07
2.26009e-07
2.38823e-07
3.04922e-07
3.62148e-06
2.14637e-07
2.14963e-07
2.1501e-07
2.14957e-07
2.14995e-07
2.15069e-07
2.1545e-07
2.18054e-07
2.31432e-07
3.02549e-07
2.82489e-06
2.06612e-07
2.06478e-07
2.06531e-07
2.06464e-07
2.06514e-07
2.0659e-07
2.07005e-07
2.09823e-07
2.25179e-07
2.99972e-07
2.24481e-06
1.99423e-07
1.99485e-07
1.99404e-07
1.99465e-07
1.99542e-07
1.99985e-07
2.0293e-07
2.18759e-07
2.96619e-07
1.84349e-06
1.92092e-07
1.92164e-07
1.92064e-07
1.92139e-07
1.92229e-07
1.92754e-07
1.96382e-07
2.12074e-07
2.91885e-07
1.42148e-06
1.84903e-07
1.84982e-07
1.84869e-07
1.84955e-07
1.85047e-07
1.85611e-07
1.89416e-07
2.05427e-07
2.85582e-07
1.06747e-06
1.7806e-07
1.78144e-07
1.78021e-07
1.78116e-07
1.78211e-07
1.78814e-07
1.82764e-07
1.99727e-07
2.78314e-07
8.16971e-07
1.71562e-07
1.7165e-07
1.71518e-07
1.71621e-07
1.71719e-07
1.72357e-07
1.76414e-07
1.93641e-07
2.70139e-07
6.52122e-07
1.65409e-07
1.65499e-07
1.6536e-07
1.65469e-07
1.65571e-07
1.66238e-07
1.70369e-07
1.87474e-07
2.60936e-07
5.42736e-07
1.59601e-07
1.59692e-07
1.59549e-07
1.59662e-07
1.59767e-07
1.60456e-07
1.64628e-07
1.81553e-07
2.51707e-07
4.69359e-07
1.54141e-07
1.5423e-07
1.54085e-07
1.542e-07
1.54309e-07
1.55012e-07
1.5919e-07
1.76414e-07
2.4185e-07
4.16019e-07
1.49029e-07
1.49114e-07
1.4897e-07
1.49085e-07
1.49197e-07
1.49908e-07
1.5405e-07
1.70747e-07
2.3121e-07
3.74716e-07
1.44264e-07
1.44343e-07
1.44203e-07
1.44315e-07
1.4443e-07
1.45142e-07
1.49207e-07
1.65228e-07
2.20732e-07
3.40974e-07
1.39844e-07
1.39914e-07
1.39781e-07
1.39888e-07
1.40005e-07
1.40711e-07
1.44657e-07
1.59944e-07
2.10564e-07
3.12368e-07
1.35759e-07
1.3582e-07
1.35695e-07
1.35795e-07
1.35914e-07
1.36608e-07
1.40392e-07
1.54925e-07
2.00812e-07
2.8757e-07
1.32448e-07
1.32499e-07
1.32381e-07
1.32476e-07
1.32594e-07
1.33275e-07
1.36885e-07
1.50203e-07
1.91514e-07
2.6582e-07
1.29231e-07
1.29279e-07
1.29167e-07
1.2926e-07
1.29381e-07
1.30046e-07
1.33557e-07
1.45778e-07
1.83791e-07
2.46656e-07
)
;

boundaryField
{
    fuel
    {
        type            fixedValue;
        value           uniform 0;
    }
    wall
    {
        type            zeroGradient;
    }
    outlet
    {
        type            zeroGradient;
    }
    frontAndBack
    {
        type            empty;
    }
    procBoundary3to0
    {
        type            processor;
        value           nonuniform List<scalar> 10(1.26585e-07 1.26624e-07 1.2652e-07 1.26607e-07 1.26727e-07 1.27371e-07 1.30678e-07 1.41637e-07 1.75979e-07 2.29787e-07);
    }
    procBoundary3to2
    {
        type            processor;
        value           nonuniform List<scalar> 
25
(
5.071e-07
3.51847e-07
2.87655e-07
2.62622e-07
2.49949e-07
2.39951e-07
2.3139e-07
2.22786e-07
2.15017e-07
2.06542e-07
1.99524e-07
1.99524e-07
1.92205e-07
1.85078e-07
1.78237e-07
1.7172e-07
1.65543e-07
1.59714e-07
1.54235e-07
1.49106e-07
1.44327e-07
1.39894e-07
1.35799e-07
1.32479e-07
1.29255e-07
)
;
    }
}


// ************************************************************************* //
