/*--------------------------------*- C++ -*----------------------------------*\
| =========                 |                                                 |
| \\      /  F ield         | OpenFOAM: The Open Source CFD Toolbox           |
|  \\    /   O peration     | Version:  dev                                   |
|   \\  /    A nd           | Web:      www.OpenFOAM.org                      |
|    \\/     M anipulation  |                                                 |
\*---------------------------------------------------------------------------*/
FoamFile
{
    version     2.0;
    format      ascii;
    class       surfaceScalarField;
    location    "0.065";
    object      phi;
}
// * * * * * * * * * * * * * * * * * * * * * * * * * * * * * * * * * * * * * //

dimensions      [1 0 -1 0 0 0 0];

internalField   nonuniform List<scalar> 
24
(
-9.80922e-05
-0.000104005
-0.000111796
-0.000119155
-0.000126463
-0.000133845
-0.000145716
-0.000157842
-0.000168858
-0.000180667
-0.000194233
-0.000209332
-0.00022614
-0.000244965
-0.000266223
-0.000290467
-0.000318439
-0.000351141
-0.000389947
-0.000437342
-0.000495686
-0.000569673
-0.000664779
-0.000798059
)
;

boundaryField
{
    wall
    {
        type            calculated;
        value           nonuniform List<scalar> 
100
(
2.24952e-19
2.2526e-19
2.25691e-19
2.258e-19
2.25766e-19
2.25471e-19
2.25603e-19
2.25774e-19
2.25441e-19
2.24818e-19
2.23686e-19
2.2217e-19
2.20278e-19
2.178e-19
2.14566e-19
2.11158e-19
2.05978e-19
1.99678e-19
1.91598e-19
1.8206e-19
1.68881e-19
1.50903e-19
1.26988e-19
8.89082e-20
5.36486e-20
-2.24952e-19
-2.2526e-19
-2.25691e-19
-2.258e-19
-2.25766e-19
-2.25471e-19
-2.25603e-19
-2.25774e-19
-2.25441e-19
-2.24818e-19
-2.23686e-19
-2.2217e-19
-2.20278e-19
-2.178e-19
-2.14566e-19
-2.11158e-19
-2.05978e-19
-1.99678e-19
-1.91598e-19
-1.8206e-19
-1.68881e-19
-1.50903e-19
-1.26988e-19
-8.89082e-20
-5.36486e-20
2.24952e-19
2.2526e-19
2.25691e-19
2.258e-19
2.25766e-19
2.25471e-19
2.25603e-19
2.25774e-19
2.25441e-19
2.24818e-19
2.23686e-19
2.2217e-19
2.20278e-19
2.178e-19
2.14566e-19
2.11158e-19
2.05978e-19
1.99678e-19
1.91598e-19
1.8206e-19
1.68881e-19
1.50903e-19
1.26988e-19
8.89082e-20
5.36486e-20
-2.24952e-19
-2.2526e-19
-2.25691e-19
-2.258e-19
-2.25766e-19
-2.25471e-19
-2.25603e-19
-2.25774e-19
-2.25441e-19
-2.24818e-19
-2.23686e-19
-2.2217e-19
-2.20278e-19
-2.178e-19
-2.14566e-19
-2.11158e-19
-2.05978e-19
-1.99678e-19
-1.91598e-19
-1.8206e-19
-1.68881e-19
-1.50903e-19
-1.26988e-19
-8.89082e-20
-5.36486e-20
)
;
    }
    fuel
    {
        type            calculated;
        value           nonuniform 0();
    }
    outlet
    {
        type            calculated;
        value           uniform -0.00113223;
    }
    procBoundary3to2
    {
        type            processor;
        value           uniform 9.19887e-05;
    }
}


// ************************************************************************* //
