/*--------------------------------*- C++ -*----------------------------------*\
| =========                 |                                                 |
| \\      /  F ield         | OpenFOAM: The Open Source CFD Toolbox           |
|  \\    /   O peration     | Version:  dev                                   |
|   \\  /    A nd           | Web:      www.OpenFOAM.org                      |
|    \\/     M anipulation  |                                                 |
\*---------------------------------------------------------------------------*/
FoamFile
{
    version     2.0;
    format      ascii;
    class       surfaceScalarField;
    location    "0.065";
    object      phi;
}
// * * * * * * * * * * * * * * * * * * * * * * * * * * * * * * * * * * * * * //

dimensions      [1 0 -1 0 0 0 0];

internalField   nonuniform List<scalar> 
12
(
2.03469e-05
2.09982e-05
2.16506e-05
2.23193e-05
2.30089e-05
2.372e-05
2.44509e-05
2.51997e-05
2.59669e-05
2.67545e-05
2.75637e-05
2.83951e-05
)
;

boundaryField
{
    wall
    {
        type            calculated;
        value           nonuniform List<scalar> 
52
(
2.13157e-19
2.12013e-19
2.10823e-19
2.09538e-19
2.08183e-19
2.06757e-19
2.05261e-19
2.03718e-19
2.02077e-19
2.00363e-19
1.98575e-19
1.96713e-19
1.94775e-19
-2.13157e-19
-2.12013e-19
-2.10823e-19
-2.09538e-19
-2.08183e-19
-2.06757e-19
-2.05261e-19
-2.03718e-19
-2.02077e-19
-2.00363e-19
-1.98575e-19
-1.96713e-19
-1.94775e-19
2.13157e-19
2.12013e-19
2.10823e-19
2.09538e-19
2.08183e-19
2.06757e-19
2.05261e-19
2.03718e-19
2.02077e-19
2.00363e-19
1.98575e-19
1.96713e-19
1.94775e-19
-2.13157e-19
-2.12013e-19
-2.10823e-19
-2.09538e-19
-2.08183e-19
-2.06757e-19
-2.05261e-19
-2.03718e-19
-2.02077e-19
-2.00363e-19
-1.98575e-19
-1.96713e-19
-1.94775e-19
)
;
    }
    fuel
    {
        type            calculated;
        value           nonuniform 0();
    }
    outlet
    {
        type            calculated;
        value           nonuniform 0();
    }
    procBoundary3to2
    {
        type            processor;
        value           uniform -1.97105e-05;
    }
    procBoundary3to4
    {
        type            processor;
        value           uniform 2.92495e-05;
    }
}


// ************************************************************************* //
