/*--------------------------------*- C++ -*----------------------------------*\
| =========                 |                                                 |
| \\      /  F ield         | OpenFOAM: The Open Source CFD Toolbox           |
|  \\    /   O peration     | Version:  dev                                   |
|   \\  /    A nd           | Web:      www.OpenFOAM.org                      |
|    \\/     M anipulation  |                                                 |
\*---------------------------------------------------------------------------*/
FoamFile
{
    version     2.0;
    format      ascii;
    class       volVectorField;
    location    "0.065";
    object      U;
}
// * * * * * * * * * * * * * * * * * * * * * * * * * * * * * * * * * * * * * //

dimensions      [0 1 -1 0 0 0 0];

internalField   nonuniform List<vector> 
250
(
(0 0.00478236 0.487494)
(0 -0.00395435 0.487499)
(0 -0.012946 0.487427)
(0 -0.0192739 0.487652)
(0 -0.0312609 0.487175)
(0 -0.0317937 0.48774)
(0 -0.0525849 0.486949)
(0 -0.0363691 0.488096)
(0 -0.0921951 0.484904)
(0 -0.0201021 0.473012)
(0 -0.0984726 0.122528)
(0 0.00850112 0.686211)
(0 -0.00762648 0.686181)
(0 -0.0240776 0.686108)
(0 -0.0359399 0.68647)
(0 -0.057425 0.685654)
(0 -0.0595227 0.686574)
(0 -0.0958939 0.685326)
(0 -0.0702382 0.686943)
(0 -0.163791 0.682246)
(0 -0.0314808 0.659406)
(0 -0.1771 0.157335)
(0 0.0118438 0.73329)
(0 -0.0114564 0.73326)
(0 -0.0350763 0.733206)
(0 -0.0524709 0.733694)
(0 -0.0825908 0.733375)
(0 -0.0870363 0.734624)
(0 -0.136983 0.732814)
(0 -0.105455 0.734925)
(0 -0.227573 0.729074)
(0 -0.0477437 0.686083)
(0 -0.219074 0.184405)
(0 0.0144848 0.727514)
(0 -0.014853 0.727465)
(0 -0.044524 0.727483)
(0 -0.0667614 0.727943)
(0 -0.107411 0.727416)
(0 -0.114773 0.728819)
(0 -0.17694 0.726805)
(0 -0.142186 0.728863)
(0 -0.285947 0.723527)
(0 -0.0677301 0.663802)
(0 -0.250644 0.209152)
(0 0.0172245 0.722004)
(0 -0.0187843 0.721912)
(0 -0.0552272 0.722056)
(0 -0.0829658 0.722336)
(0 -0.13195 0.721753)
(0 -0.142728 0.723193)
(0 -0.216025 0.721264)
(0 -0.180153 0.722881)
(0 -0.340112 0.719384)
(0 -0.0958662 0.644446)
(0 -0.279846 0.234318)
(0 0.0197281 0.720213)
(0 -0.0227653 0.720057)
(0 -0.0659468 0.72036)
(0 -0.0991716 0.720405)
(0 -0.156209 0.719853)
(0 -0.170812 0.721219)
(0 -0.254331 0.719541)
(0 -0.219031 0.72055)
(0 -0.390893 0.719739)
(0 -0.128272 0.63339)
(0 -0.310279 0.261594)
(0 0.0220034 0.718053)
(0 -0.026759 0.717805)
(0 -0.0766709 0.718303)
(0 -0.115346 0.718068)
(0 -0.180189 0.717755)
(0 -0.198931 0.718963)
(0 -0.291905 0.717639)
(0 -0.258534 0.718019)
(0 -0.438896 0.720518)
(0 -0.164234 0.625482)
(0 -0.344573 0.294354)
(0 0.0240642 0.714479)
(0 -0.0307285 0.714114)
(0 -0.0873816 0.71484)
(0 -0.131448 0.714285)
(0 -0.203881 0.714291)
(0 -0.227001 0.715277)
(0 -0.328782 0.714381)
(0 -0.298426 0.714201)
(0 -0.484643 0.720464)
(0 -0.203517 0.619361)
(0 -0.384056 0.339627)
(0 0.0259273 0.709855)
(0 -0.0346432 0.709372)
(0 -0.09806 0.71035)
(0 -0.147439 0.709442)
(0 -0.227275 0.709796)
(0 -0.254945 0.710515)
(0 -0.364987 0.710094)
(0 -0.338509 0.70949)
(0 -0.528605 0.719784)
(0 -0.246311 0.615404)
(0 -0.4281 0.404431)
(0 0.0276132 0.704518)
(0 -0.0384782 0.703904)
(0 -0.108685 0.705151)
(0 -0.163282 0.703865)
(0 -0.250355 0.70459)
(0 -0.282696 0.705008)
(0 -0.400535 0.705086)
(0 -0.37861 0.704229)
(0 -0.571208 0.718664)
(0 -0.292931 0.613817)
(0 -0.4743 0.483752)
(0 -0.0422102 0.697799)
(0 -0.119234 0.699325)
(0 -0.178943 0.697646)
(0 -0.273105 0.698761)
(0 -0.310189 0.698857)
(0 -0.435432 0.699435)
(0 -0.418578 0.698515)
(0 -0.612822 0.717056)
(0 -0.343167 0.614074)
(0 -0.520743 0.558852)
(0 -0.0458216 0.691077)
(0 -0.129681 0.692885)
(0 -0.194387 0.690805)
(0 -0.295509 0.692324)
(0 -0.337365 0.692083)
(0 -0.469675 0.693149)
(0 -0.45827 0.692364)
(0 -0.653748 0.714836)
(0 -0.396063 0.615282)
(0 -0.567525 0.61589)
(0 -0.049298 0.683751)
(0 -0.140002 0.68584)
(0 -0.209586 0.683357)
(0 -0.317546 0.685286)
(0 -0.364169 0.684704)
(0 -0.503254 0.686231)
(0 -0.497557 0.685779)
(0 -0.694214 0.711906)
(0 -0.450569 0.616688)
(0 -0.61571 0.654942)
(0 -0.0526278 0.675827)
(0 -0.150171 0.678189)
(0 -0.224511 0.675305)
(0 -0.339198 0.67765)
(0 -0.390552 0.676727)
(0 -0.536154 0.67868)
(0 -0.536319 0.678744)
(0 -0.734395 0.7082)
(0 -0.505943 0.617886)
(0 -0.666157 0.681529)
(0 -0.0558022 0.667306)
(0 -0.160161 0.669933)
(0 -0.239135 0.666654)
(0 -0.360444 0.669415)
(0 -0.416471 0.668158)
(0 -0.568366 0.670496)
(0 -0.574483 0.671229)
(0 -0.774388 0.703665)
(0 -0.561725 0.618689)
(0 -0.719263 0.699983)
(0 -0.0588154 0.65819)
(0 -0.169949 0.661069)
(0 -0.253435 0.657405)
(0 -0.381265 0.660582)
(0 -0.441889 0.659001)
(0 -0.599906 0.661682)
(0 -0.611998 0.663203)
(0 -0.814213 0.698252)
(0 -0.617621 0.618931)
(0 -0.775081 0.713652)
(0 -0.0616633 0.64848)
(0 -0.179513 0.651596)
(0 -0.267393 0.647559)
(0 -0.401643 0.65115)
(0 -0.466773 0.649254)
(0 -0.63078 0.652237)
(0 -0.648813 0.654634)
(0 -0.853877 0.69193)
(0 -0.673526 0.618472)
(0 -0.833344 0.723742)
(0 -0.064344 0.638169)
(0 -0.188834 0.641509)
(0 -0.28099 0.637112)
(0 -0.421559 0.641113)
(0 -0.491098 0.638915)
(0 -0.660988 0.642155)
(0 -0.684882 0.645489)
(0 -0.893365 0.684675)
(0 -0.729278 0.617179)
(0 -0.893743 0.729979)
(0 -0.0668574 0.627251)
(0 -0.197894 0.6308)
(0 -0.294212 0.626056)
(0 -0.440998 0.630465)
(0 -0.51484 0.627975)
(0 -0.690521 0.631432)
(0 -0.720165 0.635732)
(0 -0.932638 0.676468)
(0 -0.784736 0.614956)
(0 -0.955885 0.733016)
(0 -0.0692053 0.615717)
(0 -0.20668 0.61946)
(0 -0.307048 0.614385)
(0 -0.459941 0.619197)
(0 -0.537982 0.616425)
(0 -0.719371 0.620059)
(0 -0.754627 0.625329)
(0 -0.971635 0.667291)
(0 -0.839769 0.611733)
(0 -1.01934 0.733258)
(0 -0.0713907 0.603558)
(0 -0.215179 0.607483)
(0 -0.319487 0.602089)
(0 -0.478371 0.607303)
(0 -0.560508 0.604256)
(0 -0.747521 0.608031)
(0 -0.788237 0.614247)
(0 -1.01028 0.657125)
(0 -0.894231 0.607434)
(0 -1.08366 0.730938)
(0 -0.0734182 0.590783)
(0 -0.223385 0.594879)
(0 -0.331522 0.589181)
(0 -0.496271 0.59479)
(0 -0.582404 0.591474)
(0 -0.774952 0.59536)
(0 -0.820965 0.60248)
(0 -1.04846 0.645951)
(0 -0.947953 0.602006)
(0 -1.14842 0.726245)
(0 -0.0752931 0.577391)
(0 -0.231289 0.581648)
(0 -0.343145 0.575657)
(0 -0.513622 0.58166)
(0 -0.603656 0.57808)
(0 -0.801638 0.582047)
(0 -0.85278 0.590011)
(0 -1.08605 0.633747)
(0 -1.00074 0.59539)
(0 -1.21324 0.71934)
(0 -0.0770217 0.563358)
(0 -0.238889 0.56777)
(0 -0.354348 0.5615)
(0 -0.530402 0.56789)
(0 -0.624247 0.564048)
(0 -0.827544 0.568074)
(0 -0.883649 0.57681)
(0 -1.12294 0.620497)
(0 -1.05239 0.587552)
(0 -1.27774 0.710374)
)
;

boundaryField
{
    fuel
    {
        type            fixedValue;
        value           uniform (0 0 0.1055);
    }
    wall
    {
        type            slip;
    }
    outlet
    {
        type            pressureInletOutletVelocity;
        value           nonuniform List<vector> 
24
(
(0 -0.0984726 0.122528)
(0 -0.1771 0.157335)
(0 -0.219074 0.184405)
(0 -0.250644 0.209152)
(0 -0.279846 0.234318)
(0 -0.310279 0.261594)
(0 -0.344573 0.294354)
(0 -0.384056 0.339627)
(0 -0.4281 0.404431)
(0 -0.4743 0.483752)
(0 -0.520743 0.558852)
(0 -0.567525 0.61589)
(0 -0.61571 0.654942)
(0 -0.666157 0.681529)
(0 -0.719263 0.699983)
(0 -0.775081 0.713652)
(0 -0.833344 0.723742)
(0 -0.893743 0.729979)
(0 -0.955885 0.733016)
(0 -1.01934 0.733258)
(0 -1.08366 0.730938)
(0 -1.14842 0.726245)
(0 -1.21324 0.71934)
(0 -1.27774 0.710374)
)
;
    }
    frontAndBack
    {
        type            empty;
    }
    procBoundary3to0
    {
        type            processor;
        value           nonuniform List<vector> 10((0 -0.0786102 0.548688) (0 -0.24618 0.553248) (0 -0.365122 0.546711) (0 -0.546591 0.553482) (0 -0.644163 0.549379) (0 -0.852632 0.553446) (0 -0.913535 0.562851) (0 -1.15896 0.606227) (0 -1.10266 0.578479) (0 -1.34158 0.699459));
    }
    procBoundary3to2
    {
        type            processor;
        value           nonuniform List<vector> 
25
(
(0 0.0124799 0.487481)
(0 0.0225913 0.686158)
(0 0.0321047 0.733329)
(0 0.0399966 0.727654)
(0 0.0486908 0.722247)
(0 0.0572192 0.720548)
(0 0.0656291 0.718465)
(0 0.0739639 0.714959)
(0 0.0822589 0.710413)
(0 0.0905432 0.705152)
(0 0.0291458 0.698563)
(0 0.0291458 0.698563)
(0 0.0305517 0.691982)
(0 0.03186 0.684794)
(0 0.0331006 0.676998)
(0 0.0343038 0.668589)
(0 0.0354989 0.659566)
(0 0.0367127 0.649928)
(0 0.0379686 0.639668)
(0 0.0392858 0.62878)
(0 0.0406777 0.617254)
(0 0.0421522 0.605084)
(0 0.0437109 0.592281)
(0 0.0453491 0.578847)
(0 0.0470564 0.564762)
)
;
    }
}


// ************************************************************************* //
