/*--------------------------------*- C++ -*----------------------------------*\
| =========                 |                                                 |
| \\      /  F ield         | OpenFOAM: The Open Source CFD Toolbox           |
|  \\    /   O peration     | Version:  dev                                   |
|   \\  /    A nd           | Web:      www.OpenFOAM.org                      |
|    \\/     M anipulation  |                                                 |
\*---------------------------------------------------------------------------*/
FoamFile
{
    version     2.0;
    format      ascii;
    class       volScalarField;
    location    "0.195";
    object      CH;
}
// * * * * * * * * * * * * * * * * * * * * * * * * * * * * * * * * * * * * * //

dimensions      [0 0 0 0 0 0 0];

internalField   nonuniform List<scalar> 
250
(
3.64599e-06
3.641e-06
3.64281e-06
3.64563e-06
3.64244e-06
3.6426e-06
3.64043e-06
3.63767e-06
3.57326e-06
3.11166e-06
1.29295e-09
2.01071e-06
2.00948e-06
2.01011e-06
2.01077e-06
2.00999e-06
2.00986e-06
2.00894e-06
2.00652e-06
1.97368e-06
1.78061e-06
1.05944e-09
7.81016e-07
7.80518e-07
7.8096e-07
7.80721e-07
7.80883e-07
7.80718e-07
7.8022e-07
7.78911e-07
7.61071e-07
6.85235e-07
4.6172e-10
2.91168e-07
2.90943e-07
2.91184e-07
2.90966e-07
2.9116e-07
2.91056e-07
2.90781e-07
2.90427e-07
2.80135e-07
2.53823e-07
1.85639e-10
1.21583e-07
1.21484e-07
1.21572e-07
1.2145e-07
1.21611e-07
1.21549e-07
1.21391e-07
1.22082e-07
1.14695e-07
1.04703e-07
8.42732e-11
6.17292e-08
6.16923e-08
6.16247e-08
6.15652e-08
6.1777e-08
6.17353e-08
6.1624e-08
6.00295e-08
5.6558e-08
5.09239e-08
4.68122e-11
3.85854e-08
3.86823e-08
3.81716e-08
3.81205e-08
3.86451e-08
3.8626e-08
3.85869e-08
3.73866e-08
3.40857e-08
2.88945e-08
3.16106e-11
2.75446e-08
2.75644e-08
2.79113e-08
2.78777e-08
2.75241e-08
2.75403e-08
2.74735e-08
2.73226e-08
2.42645e-08
1.84166e-08
2.45884e-11
2.26713e-08
2.26529e-08
2.28197e-08
2.27927e-08
2.26251e-08
2.26599e-08
2.257e-08
2.2174e-08
1.90158e-08
1.26019e-08
2.113e-11
1.99283e-08
1.99127e-08
1.99989e-08
1.99717e-08
1.98963e-08
1.99317e-08
1.98427e-08
1.94466e-08
1.59976e-08
9.20706e-09
2.56065e-11
1.80396e-08
1.80787e-08
1.80495e-08
1.80175e-08
1.80563e-08
1.79765e-08
1.7573e-08
1.4327e-08
7.0305e-09
7.45491e-11
1.67628e-08
1.67792e-08
1.67453e-08
1.67241e-08
1.67745e-08
1.67048e-08
1.62891e-08
1.30527e-08
5.58697e-09
2.59696e-10
1.57854e-08
1.57915e-08
1.57479e-08
1.57176e-08
1.57947e-08
1.57324e-08
1.53138e-08
1.20846e-08
4.61026e-09
5.54107e-10
1.49589e-08
1.49608e-08
1.48958e-08
1.49631e-08
1.49703e-08
1.49115e-08
1.45e-08
1.13075e-08
3.92897e-09
7.5893e-10
1.42065e-08
1.42074e-08
1.42068e-08
1.42671e-08
1.42229e-08
1.41659e-08
1.37704e-08
1.07311e-08
3.48259e-09
8.21841e-10
1.34872e-08
1.34879e-08
1.34728e-08
1.35451e-08
1.35094e-08
1.34544e-08
1.30817e-08
1.01919e-08
3.15695e-09
8.04178e-10
1.27773e-08
1.27783e-08
1.27528e-08
1.28316e-08
1.28059e-08
1.27535e-08
1.24075e-08
9.68071e-09
2.94303e-09
7.51378e-10
1.20624e-08
1.20635e-08
1.20272e-08
1.21141e-08
1.20978e-08
1.20483e-08
1.173e-08
9.20317e-09
2.83567e-09
6.8423e-10
1.13325e-08
1.13334e-08
1.12815e-08
1.13831e-08
1.13749e-08
1.13288e-08
1.10348e-08
8.7424e-09
2.78628e-09
6.16556e-10
1.05803e-08
1.05804e-08
1.05033e-08
1.06316e-08
1.06298e-08
1.05871e-08
1.04047e-08
8.28513e-09
2.77802e-09
5.59898e-10
9.79984e-09
9.79822e-09
9.78047e-09
9.85393e-09
9.85633e-09
9.81615e-09
9.7176e-09
7.81773e-09
2.79599e-09
5.21991e-10
8.9855e-09
8.98001e-09
9.03455e-09
9.04323e-09
9.04857e-09
9.00876e-09
8.95922e-09
7.32963e-09
2.82617e-09
5.06433e-10
8.23216e-09
8.2184e-09
8.26992e-09
8.29177e-09
8.30008e-09
8.25575e-09
8.25689e-09
6.81477e-09
2.85435e-09
5.13736e-10
7.38845e-09
7.43462e-09
7.4176e-09
7.45319e-09
7.46416e-09
7.47929e-09
7.50306e-09
6.26682e-09
2.86579e-09
5.42336e-10
)
;

boundaryField
{
    fuel
    {
        type            fixedValue;
        value           uniform 0;
    }
    wall
    {
        type            zeroGradient;
    }
    outlet
    {
        type            zeroGradient;
    }
    frontAndBack
    {
        type            empty;
    }
    procBoundary3to0
    {
        type            processor;
        value           nonuniform List<scalar> 10(6.59183e-09 6.63505e-09 6.61421e-09 6.65732e-09 6.67052e-09 6.68588e-09 6.75204e-09 5.68002e-09 2.84743e-09 5.89887e-10);
    }
    procBoundary3to2
    {
        type            processor;
        value           nonuniform List<scalar> 
25
(
3.6423e-06
2.00956e-06
7.80495e-07
2.90947e-07
1.21512e-07
6.17289e-08
3.86381e-08
2.75791e-08
2.2706e-08
1.9976e-08
1.80397e-08
1.80397e-08
1.675e-08
1.5765e-08
1.49345e-08
1.41801e-08
1.34595e-08
1.27487e-08
1.20331e-08
1.13027e-08
1.05502e-08
9.76967e-09
8.95573e-09
8.2012e-09
7.35616e-09
)
;
    }
}


// ************************************************************************* //
