/*--------------------------------*- C++ -*----------------------------------*\
| =========                 |                                                 |
| \\      /  F ield         | OpenFOAM: The Open Source CFD Toolbox           |
|  \\    /   O peration     | Version:  dev                                   |
|   \\  /    A nd           | Web:      www.OpenFOAM.org                      |
|    \\/     M anipulation  |                                                 |
\*---------------------------------------------------------------------------*/
FoamFile
{
    version     2.0;
    format      ascii;
    class       volScalarField;
    location    "0.195";
    object      CH2(S);
}
// * * * * * * * * * * * * * * * * * * * * * * * * * * * * * * * * * * * * * //

dimensions      [0 0 0 0 0 0 0];

internalField   nonuniform List<scalar> 
250
(
2.29079e-06
2.28844e-06
2.28949e-06
2.29064e-06
2.28917e-06
2.28941e-06
2.28827e-06
2.28814e-06
2.26523e-06
2.09464e-06
8.71031e-10
1.33924e-06
1.33869e-06
1.33904e-06
1.33918e-06
1.33892e-06
1.3389e-06
1.33848e-06
1.33776e-06
1.32475e-06
1.24638e-06
7.42013e-10
6.43722e-07
6.43457e-07
6.43722e-07
6.43512e-07
6.43654e-07
6.4357e-07
6.43299e-07
6.42707e-07
6.32847e-07
5.90831e-07
3.93655e-10
3.14867e-07
3.1471e-07
3.14887e-07
3.14697e-07
3.14862e-07
3.1479e-07
3.14593e-07
3.14431e-07
3.06277e-07
2.8523e-07
2.04621e-10
1.7307e-07
1.72983e-07
1.73052e-07
1.72924e-07
1.73101e-07
1.73044e-07
1.72895e-07
1.73653e-07
1.65762e-07
1.53662e-07
1.21242e-10
1.10575e-07
1.10542e-07
1.10422e-07
1.10346e-07
1.10639e-07
1.1059e-07
1.10458e-07
1.08423e-07
1.03653e-07
9.3893e-08
8.49951e-11
8.11857e-08
8.13438e-08
8.0563e-08
8.04859e-08
8.12746e-08
8.12517e-08
8.12015e-08
7.94238e-08
7.41791e-08
6.35718e-08
6.89173e-11
6.47541e-08
6.47877e-08
6.53448e-08
6.52871e-08
6.47147e-08
6.47483e-08
6.46381e-08
6.43793e-08
5.90352e-08
4.63508e-08
6.25107e-11
5.66636e-08
5.66319e-08
5.69187e-08
5.68679e-08
5.65788e-08
5.66464e-08
5.64877e-08
5.57851e-08
4.98975e-08
3.53598e-08
6.85906e-11
5.17443e-08
5.17196e-08
5.18748e-08
5.18209e-08
5.16853e-08
5.17562e-08
5.1594e-08
5.0868e-08
4.41664e-08
2.81991e-08
1.38592e-10
4.81574e-08
4.82301e-08
4.81701e-08
4.81097e-08
4.81905e-08
4.80419e-08
4.72845e-08
4.07959e-08
2.31948e-08
4.14784e-10
4.56139e-08
4.56446e-08
4.55734e-08
4.55306e-08
4.56378e-08
4.55065e-08
4.47131e-08
3.81023e-08
1.96343e-08
1.06924e-09
4.35951e-08
4.36063e-08
4.35134e-08
4.345e-08
4.36152e-08
4.34969e-08
4.26885e-08
3.59793e-08
1.70831e-08
1.90055e-09
4.18419e-08
4.18451e-08
4.17054e-08
4.18497e-08
4.18673e-08
4.17549e-08
4.0953e-08
3.42246e-08
1.52198e-08
2.47522e-09
4.02155e-08
4.02167e-08
4.02154e-08
4.03461e-08
4.02522e-08
4.01422e-08
3.93659e-08
3.2892e-08
1.39572e-08
2.72697e-09
3.86384e-08
3.86394e-08
3.86063e-08
3.87649e-08
3.86884e-08
3.85814e-08
3.78448e-08
3.16222e-08
1.30138e-08
2.79743e-09
3.70641e-08
3.70657e-08
3.70096e-08
3.71841e-08
3.71288e-08
3.7026e-08
3.63374e-08
3.03987e-08
1.23876e-08
2.78738e-09
3.54617e-08
3.54637e-08
3.5383e-08
3.55774e-08
3.55422e-08
3.54446e-08
3.48057e-08
2.92392e-08
1.20785e-08
2.74146e-09
3.3808e-08
3.38095e-08
3.36927e-08
3.39227e-08
3.39053e-08
3.38135e-08
3.32168e-08
2.81063e-08
1.19459e-08
2.68748e-09
3.20834e-08
3.20831e-08
3.19077e-08
3.22011e-08
3.21983e-08
3.21124e-08
3.17587e-08
2.69691e-08
1.19389e-08
2.65284e-09
3.02696e-08
3.02653e-08
3.02253e-08
3.03955e-08
3.04024e-08
3.03203e-08
3.01497e-08
2.57941e-08
1.20102e-08
2.66354e-09
2.83462e-08
2.83329e-08
2.84623e-08
2.84831e-08
2.84971e-08
2.84136e-08
2.83489e-08
2.45531e-08
1.21151e-08
2.7401e-09
2.65315e-08
2.64985e-08
2.66225e-08
2.66757e-08
2.66972e-08
2.66005e-08
2.66509e-08
2.32271e-08
1.22079e-08
2.89441e-09
2.4456e-08
2.45701e-08
2.45283e-08
2.46167e-08
2.46453e-08
2.46916e-08
2.47935e-08
2.17947e-08
1.22446e-08
3.12789e-09
)
;

boundaryField
{
    fuel
    {
        type            fixedValue;
        value           uniform 0;
    }
    wall
    {
        type            zeroGradient;
    }
    outlet
    {
        type            zeroGradient;
    }
    frontAndBack
    {
        type            empty;
    }
    procBoundary3to0
    {
        type            processor;
        value           nonuniform List<scalar> 10(2.24435e-08 2.2553e-08 2.25007e-08 2.26107e-08 2.26455e-08 2.26924e-08 2.28988e-08 2.02298e-08 1.21798e-08 3.431e-09);
    }
    procBoundary3to2
    {
        type            processor;
        value           nonuniform List<scalar> 
25
(
2.28911e-06
1.33871e-06
6.43426e-07
3.14708e-07
1.73013e-07
1.10588e-07
8.12748e-08
6.48178e-08
5.67317e-08
5.1841e-08
4.81548e-08
4.81548e-08
4.55853e-08
4.35507e-08
4.17889e-08
4.01576e-08
3.85771e-08
3.70002e-08
3.53955e-08
3.37398e-08
3.20135e-08
3.01984e-08
2.82747e-08
2.64558e-08
2.43753e-08
)
;
    }
}


// ************************************************************************* //
