/*--------------------------------*- C++ -*----------------------------------*\
| =========                 |                                                 |
| \\      /  F ield         | OpenFOAM: The Open Source CFD Toolbox           |
|  \\    /   O peration     | Version:  dev                                   |
|   \\  /    A nd           | Web:      www.OpenFOAM.org                      |
|    \\/     M anipulation  |                                                 |
\*---------------------------------------------------------------------------*/
FoamFile
{
    version     2.0;
    format      ascii;
    class       volScalarField;
    location    "0.195";
    object      CH2O;
}
// * * * * * * * * * * * * * * * * * * * * * * * * * * * * * * * * * * * * * //

dimensions      [0 0 0 0 0 0 0];

internalField   nonuniform List<scalar> 
250
(
0.000150508
0.000150557
0.000150526
0.000150517
0.000150517
0.000150529
0.000150571
0.000150586
0.000152654
0.000169326
4.82937e-05
7.31961e-05
7.32006e-05
7.32004e-05
7.32e-05
7.31956e-05
7.31973e-05
7.32065e-05
7.32808e-05
7.40192e-05
8.06707e-05
9.81689e-05
3.52727e-05
3.5267e-05
3.52749e-05
3.52648e-05
3.52712e-05
3.52695e-05
3.52705e-05
3.53247e-05
3.5573e-05
3.89614e-05
0.00012572
1.87463e-05
1.87409e-05
1.87474e-05
1.87385e-05
1.87457e-05
1.87437e-05
1.87433e-05
1.87949e-05
1.88428e-05
2.12316e-05
0.000141888
1.15307e-05
1.15278e-05
1.15294e-05
1.1523e-05
1.1532e-05
1.15302e-05
1.153e-05
1.16166e-05
1.15316e-05
1.34725e-05
0.000152293
8.17429e-06
8.17419e-06
8.16466e-06
8.1604e-06
8.17777e-06
8.17607e-06
8.17546e-06
8.10091e-06
8.10615e-06
9.70104e-06
0.0001597
6.4802e-06
6.49142e-06
6.44125e-06
6.43648e-06
6.4853e-06
6.48517e-06
6.48851e-06
6.42071e-06
6.35565e-06
7.60591e-06
0.000166812
5.45736e-06
5.45996e-06
5.49544e-06
5.49155e-06
5.45383e-06
5.45767e-06
5.45619e-06
5.48178e-06
5.38811e-06
6.29837e-06
0.00017707
4.91545e-06
4.91356e-06
4.93245e-06
4.92878e-06
4.90879e-06
4.91513e-06
4.91005e-06
4.90641e-06
4.76261e-06
5.38663e-06
0.000192969
4.56159e-06
4.56032e-06
4.57076e-06
4.56666e-06
4.55676e-06
4.56347e-06
4.55825e-06
4.55443e-06
4.3447e-06
4.73052e-06
0.000206575
4.28596e-06
4.29076e-06
4.28606e-06
4.28104e-06
4.2888e-06
4.28483e-06
4.28041e-06
4.08518e-06
4.19191e-06
0.000194419
4.07928e-06
4.0811e-06
4.07543e-06
4.07113e-06
4.08139e-06
4.07899e-06
4.07325e-06
3.86642e-06
3.71889e-06
0.000153581
3.91026e-06
3.91066e-06
3.90319e-06
3.89669e-06
3.91203e-06
3.91084e-06
3.90481e-06
3.68614e-06
3.30803e-06
0.000102529
3.76272e-06
3.76252e-06
3.75122e-06
3.76231e-06
3.76486e-06
3.76425e-06
3.75888e-06
3.53182e-06
2.96542e-06
6.03859e-05
3.62782e-06
3.62745e-06
3.62801e-06
3.6379e-06
3.63074e-06
3.63036e-06
3.62635e-06
3.41208e-06
2.70982e-06
3.29167e-05
3.50047e-06
3.50009e-06
3.49827e-06
3.51015e-06
3.50427e-06
3.50409e-06
3.50172e-06
3.29599e-06
2.50255e-06
1.73244e-05
3.37757e-06
3.37722e-06
3.3738e-06
3.38648e-06
3.38228e-06
3.3823e-06
3.38141e-06
3.18322e-06
2.3454e-06
9.18236e-06
3.25698e-06
3.25664e-06
3.25157e-06
3.26522e-06
3.26262e-06
3.26285e-06
3.26277e-06
3.07677e-06
2.24525e-06
5.1224e-06
3.13704e-06
3.13666e-06
3.1291e-06
3.14484e-06
3.14364e-06
3.14404e-06
3.14354e-06
2.97433e-06
2.17231e-06
3.12827e-06
3.01629e-06
3.01578e-06
3.00411e-06
3.02396e-06
3.02388e-06
3.0244e-06
3.03788e-06
2.87408e-06
2.11848e-06
2.13891e-06
2.89328e-06
2.89247e-06
2.8902e-06
2.90121e-06
2.90187e-06
2.90228e-06
2.92481e-06
2.77393e-06
2.07735e-06
1.636e-06
2.7663e-06
2.76485e-06
2.77408e-06
2.77475e-06
2.77592e-06
2.7758e-06
2.80158e-06
2.67211e-06
2.04329e-06
1.37526e-06
2.64928e-06
2.64648e-06
2.65547e-06
2.65809e-06
2.65977e-06
2.65833e-06
2.68836e-06
2.56739e-06
2.01163e-06
1.24161e-06
2.5171e-06
2.52386e-06
2.52203e-06
2.52695e-06
2.52909e-06
2.53651e-06
2.56666e-06
2.45812e-06
1.97933e-06
1.1786e-06
)
;

boundaryField
{
    fuel
    {
        type            fixedValue;
        value           uniform 0;
    }
    wall
    {
        type            zeroGradient;
    }
    outlet
    {
        type            zeroGradient;
    }
    frontAndBack
    {
        type            empty;
    }
    procBoundary3to0
    {
        type            processor;
        value           nonuniform List<scalar> 10(2.38971e-06 2.39631e-06 2.39365e-06 2.40004e-06 2.40261e-06 2.40972e-06 2.44383e-06 2.34196e-06 1.94237e-06 1.15728e-06);
    }
    procBoundary3to2
    {
        type            processor;
        value           nonuniform List<scalar> 
25
(
0.000150518
7.31882e-05
3.52628e-05
1.87401e-05
1.15291e-05
8.17641e-06
6.48703e-06
5.46274e-06
4.92137e-06
4.56983e-06
4.28522e-06
4.28522e-06
4.07668e-06
3.90649e-06
3.75832e-06
3.62307e-06
3.49553e-06
3.37251e-06
3.25184e-06
3.13187e-06
3.01113e-06
2.88815e-06
2.76127e-06
2.64407e-06
2.51162e-06
)
;
    }
}


// ************************************************************************* //
