/*--------------------------------*- C++ -*----------------------------------*\
| =========                 |                                                 |
| \\      /  F ield         | OpenFOAM: The Open Source CFD Toolbox           |
|  \\    /   O peration     | Version:  dev                                   |
|   \\  /    A nd           | Web:      www.OpenFOAM.org                      |
|    \\/     M anipulation  |                                                 |
\*---------------------------------------------------------------------------*/
FoamFile
{
    version     2.0;
    format      ascii;
    class       volScalarField;
    location    "0.195";
    object      CO2;
}
// * * * * * * * * * * * * * * * * * * * * * * * * * * * * * * * * * * * * * //

dimensions      [0 0 0 0 0 0 0];

internalField   nonuniform List<scalar> 
250
(
0.0387537
0.0387537
0.0387539
0.0387534
0.0387543
0.0387531
0.038757
0.0387574
0.0387778
0.0384757
0.0184709
0.0462684
0.0462679
0.0462693
0.0462669
0.0462699
0.0462667
0.046275
0.0462787
0.0463452
0.0461077
0.0336532
0.0485034
0.0485032
0.048505
0.0485018
0.0485054
0.0485013
0.048516
0.0485237
0.048644
0.0484512
0.0401035
0.0492402
0.0492406
0.0492429
0.0492387
0.0492429
0.0492381
0.0492608
0.0492737
0.0494535
0.0492833
0.0427763
0.0494504
0.0494516
0.0494546
0.0494487
0.0494541
0.0494484
0.0494809
0.0494992
0.0497422
0.0495938
0.0437834
0.0494386
0.0494406
0.0494444
0.0494362
0.0494426
0.0494366
0.0494807
0.0495041
0.0498129
0.0497059
0.0441456
0.0493201
0.0493187
0.0493276
0.0493164
0.049318
0.0493137
0.0493743
0.0494032
0.0497775
0.0497453
0.0442918
0.0491163
0.049115
0.0491252
0.0491109
0.0491366
0.0491087
0.0491852
0.0492173
0.0496853
0.049762
0.044394
0.0489064
0.0489051
0.0489169
0.0488989
0.048926
0.0488973
0.0489885
0.0490217
0.0495437
0.0497751
0.0445162
0.0486571
0.0486552
0.0486696
0.0486464
0.0486789
0.0486454
0.0487565
0.0487938
0.0493827
0.0497819
0.0446722
0.0483851
0.0484015
0.0483734
0.0484103
0.0483738
0.0485008
0.0485351
0.0492194
0.0497728
0.0448561
0.0481139
0.0481319
0.0480986
0.0481396
0.0481015
0.0482426
0.0482749
0.0490248
0.0497468
0.045059
0.0478474
0.0478665
0.0478271
0.0478709
0.0478343
0.0479866
0.0480183
0.0488249
0.0497049
0.0453309
0.0475895
0.0476092
0.0475625
0.0476447
0.0475763
0.0477366
0.0477688
0.0486228
0.0496342
0.0457231
0.047343
0.0473629
0.0473408
0.0473999
0.0473297
0.0474951
0.0475292
0.0484205
0.0495411
0.0462436
0.0471101
0.0471295
0.047106
0.0471664
0.0470967
0.0472642
0.0473014
0.0482194
0.0494439
0.0468532
0.0468924
0.0469109
0.0468862
0.0469461
0.046879
0.0470454
0.0470871
0.0480209
0.0493295
0.0474883
0.0466915
0.0467086
0.0466829
0.046741
0.0466783
0.0468406
0.0468879
0.0478259
0.0491999
0.0480864
0.0465091
0.0465243
0.0464976
0.0465531
0.0464963
0.0466512
0.0467057
0.0476359
0.0490576
0.0486028
0.0463468
0.0463598
0.0463317
0.0463844
0.0463347
0.046479
0.046543
0.0474778
0.0488977
0.0490145
0.0462063
0.0462168
0.0462043
0.0462369
0.0461954
0.0463257
0.0464019
0.0473204
0.0487398
0.0493177
0.0460897
0.0460972
0.0460873
0.0461124
0.0460804
0.0461933
0.0462958
0.0471678
0.0485624
0.0495208
0.0460095
0.0460147
0.0460071
0.0460261
0.0460017
0.0460989
0.0462122
0.0470282
0.0484006
0.0496393
0.0459506
0.045953
0.0459486
0.0459608
0.0459449
0.0460251
0.0461475
0.0469037
0.0482318
0.0496903
)
;

boundaryField
{
    fuel
    {
        type            fixedValue;
        value           uniform 0;
    }
    wall
    {
        type            zeroGradient;
    }
    outlet
    {
        type            zeroGradient;
    }
    frontAndBack
    {
        type            empty;
    }
    procBoundary3to0
    {
        type            processor;
        value           nonuniform List<scalar> 10(0.0459247 0.0459243 0.0459233 0.0459283 0.0459212 0.0459821 0.0461152 0.0468113 0.0480724 0.0496897);
    }
    procBoundary3to2
    {
        type            processor;
        value           nonuniform List<scalar> 
25
(
0.0387534
0.0462678
0.0485029
0.0492401
0.0494506
0.049439
0.0493207
0.049117
0.0489072
0.0486578
0.0483876
0.0483876
0.0481171
0.0478514
0.0475944
0.047349
0.047117
0.0469001
0.0467
0.046518
0.0463558
0.0462151
0.0460978
0.046017
0.045957
)
;
    }
}


// ************************************************************************* //
