/*--------------------------------*- C++ -*----------------------------------*\
| =========                 |                                                 |
| \\      /  F ield         | OpenFOAM: The Open Source CFD Toolbox           |
|  \\    /   O peration     | Version:  dev                                   |
|   \\  /    A nd           | Web:      www.OpenFOAM.org                      |
|    \\/     M anipulation  |                                                 |
\*---------------------------------------------------------------------------*/
FoamFile
{
    version     2.0;
    format      ascii;
    class       volScalarField;
    location    "0.195";
    object      H;
}
// * * * * * * * * * * * * * * * * * * * * * * * * * * * * * * * * * * * * * //

dimensions      [0 0 0 0 0 0 0];

internalField   nonuniform List<scalar> 
250
(
0.000132734
0.000132741
0.000132723
0.00013274
0.000132738
0.000132713
0.000132741
0.000132591
0.000131871
0.000121524
7.31837e-08
0.000125529
0.000125539
0.000125526
0.000125548
0.00012552
0.000125545
0.0001255
0.000125404
0.000124538
0.000117264
4.97075e-07
9.10858e-05
9.11005e-05
9.10795e-05
9.11165e-05
9.10667e-05
9.11223e-05
9.10286e-05
9.10244e-05
8.99299e-05
8.51972e-05
1.25855e-06
6.45262e-05
6.45413e-05
6.45215e-05
6.45535e-05
6.45092e-05
6.45684e-05
6.44541e-05
6.45213e-05
6.32897e-05
5.99801e-05
1.81749e-06
4.83012e-05
4.83226e-05
4.83013e-05
4.83179e-05
4.82954e-05
4.83459e-05
4.82344e-05
4.83113e-05
4.70678e-05
4.42398e-05
2.26611e-06
3.89593e-05
3.90071e-05
3.89643e-05
3.89652e-05
3.89664e-05
3.90237e-05
3.89122e-05
3.89452e-05
3.75697e-05
3.48881e-05
3.00007e-06
3.37077e-05
3.36601e-05
3.37155e-05
3.37045e-05
3.35482e-05
3.3663e-05
3.36624e-05
3.36492e-05
3.22634e-05
2.94308e-05
4.2795e-06
3.04092e-05
3.0383e-05
3.04159e-05
3.04017e-05
3.05287e-05
3.03811e-05
3.03798e-05
3.02621e-05
2.92644e-05
2.62593e-05
6.323e-06
2.87614e-05
2.87475e-05
2.87685e-05
2.87517e-05
2.88256e-05
2.87412e-05
2.87411e-05
2.85478e-05
2.73792e-05
2.41906e-05
9.30688e-06
2.77544e-05
2.7748e-05
2.77646e-05
2.77436e-05
2.77954e-05
2.77363e-05
2.77512e-05
2.75027e-05
2.62868e-05
2.30353e-05
1.32652e-05
2.71432e-05
2.71571e-05
2.71341e-05
2.7174e-05
2.71284e-05
2.71445e-05
2.6823e-05
2.56479e-05
2.21644e-05
1.79766e-05
2.67605e-05
2.67743e-05
2.67479e-05
2.6785e-05
2.67432e-05
2.67634e-05
2.63829e-05
2.51517e-05
2.14526e-05
2.29224e-05
2.64825e-05
2.64974e-05
2.64653e-05
2.65027e-05
2.6463e-05
2.64897e-05
2.6059e-05
2.47712e-05
2.08527e-05
2.70806e-05
2.6245e-05
2.62622e-05
2.62205e-05
2.62922e-05
2.62235e-05
2.62599e-05
2.57839e-05
2.44473e-05
2.01848e-05
2.95464e-05
2.60125e-05
2.60326e-05
2.60075e-05
2.60642e-05
2.59884e-05
2.60386e-05
2.552e-05
2.41481e-05
1.95279e-05
2.99942e-05
2.57638e-05
2.57877e-05
2.57536e-05
2.58224e-05
2.57368e-05
2.58053e-05
2.52453e-05
2.38558e-05
1.89856e-05
2.87247e-05
2.54852e-05
2.55135e-05
2.54695e-05
2.55525e-05
2.5455e-05
2.55462e-05
2.49457e-05
2.3559e-05
1.84677e-05
2.63591e-05
2.5166e-05
2.51994e-05
2.51438e-05
2.52433e-05
2.51323e-05
2.52508e-05
2.46105e-05
2.32489e-05
1.79874e-05
2.35225e-05
2.47965e-05
2.48359e-05
2.47657e-05
2.48852e-05
2.47593e-05
2.49093e-05
2.42308e-05
2.29169e-05
1.7551e-05
2.06772e-05
2.43671e-05
2.4413e-05
2.43237e-05
2.4468e-05
2.43265e-05
2.45115e-05
2.37984e-05
2.26021e-05
1.71372e-05
1.8094e-05
2.38669e-05
2.39199e-05
2.38663e-05
2.39813e-05
2.38233e-05
2.4046e-05
2.33017e-05
2.22361e-05
1.67788e-05
1.58927e-05
2.32829e-05
2.33428e-05
2.32777e-05
2.34114e-05
2.32372e-05
2.34992e-05
2.27876e-05
2.18094e-05
1.64088e-05
1.4095e-05
2.26804e-05
2.27496e-05
2.26704e-05
2.28292e-05
2.26303e-05
2.29421e-05
2.22006e-05
2.13222e-05
1.6076e-05
1.26715e-05
2.19245e-05
2.20054e-05
2.19112e-05
2.21043e-05
2.18713e-05
2.22629e-05
2.14646e-05
2.0756e-05
1.57044e-05
1.15674e-05
)
;

boundaryField
{
    fuel
    {
        type            fixedValue;
        value           uniform 0;
    }
    wall
    {
        type            zeroGradient;
    }
    outlet
    {
        type            zeroGradient;
    }
    frontAndBack
    {
        type            empty;
    }
    procBoundary3to0
    {
        type            processor;
        value           nonuniform List<scalar> 10(2.11347e-05 2.12261e-05 2.11175e-05 2.13395e-05 2.10772e-05 2.15318e-05 2.06984e-05 2.01812e-05 1.52938e-05 1.07201e-05);
    }
    procBoundary3to2
    {
        type            processor;
        value           nonuniform List<scalar> 
25
(
0.000132732
0.00012554
9.11038e-05
6.45428e-05
4.83134e-05
3.89673e-05
3.37129e-05
3.04127e-05
2.87647e-05
2.7759e-05
2.71463e-05
2.71463e-05
2.67625e-05
2.64849e-05
2.62485e-05
2.60175e-05
2.57706e-05
2.54941e-05
2.51772e-05
2.48104e-05
2.43838e-05
2.38863e-05
2.33049e-05
2.2706e-05
2.19536e-05
)
;
    }
}


// ************************************************************************* //
