/*--------------------------------*- C++ -*----------------------------------*\
| =========                 |                                                 |
| \\      /  F ield         | OpenFOAM: The Open Source CFD Toolbox           |
|  \\    /   O peration     | Version:  dev                                   |
|   \\  /    A nd           | Web:      www.OpenFOAM.org                      |
|    \\/     M anipulation  |                                                 |
\*---------------------------------------------------------------------------*/
FoamFile
{
    version     2.0;
    format      ascii;
    class       volScalarField;
    location    "0.195";
    object      H2C4O;
}
// * * * * * * * * * * * * * * * * * * * * * * * * * * * * * * * * * * * * * //

dimensions      [0 0 0 0 0 0 0];

internalField   nonuniform List<scalar> 
50
(
3.31922e-22
2.90614e-22
2.52696e-22
2.18116e-22
1.87282e-22
1.59641e-22
1.35051e-22
1.13601e-22
9.48535e-23
7.84935e-23
6.45714e-23
5.27104e-23
4.26446e-23
3.42416e-23
2.73394e-23
2.16681e-23
1.7052e-23
1.33254e-23
1.0332e-23
7.96122e-24
6.10716e-24
4.65309e-24
3.52205e-24
2.64832e-24
1.98147e-24
1.47186e-24
1.08403e-24
7.90965e-25
5.71839e-25
4.10613e-25
2.92673e-25
2.07604e-25
1.47242e-25
1.05129e-25
7.65646e-26
5.75652e-26
4.5183e-26
3.71123e-26
3.16952e-26
2.78274e-26
2.48184e-26
2.2245e-26
1.98406e-26
1.74413e-26
1.4967e-26
1.24134e-26
9.83412e-27
7.28943e-27
4.75663e-27
1.88752e-27
)
;

boundaryField
{
    wall
    {
        type            zeroGradient;
    }
    fuel
    {
        type            fixedValue;
        value           nonuniform 0();
    }
    outlet
    {
        type            inletOutlet;
        inletValue      uniform 0;
        value           uniform 0;
    }
    procBoundary3to2
    {
        type            processor;
        value           uniform 3.75707e-22;
    }
}


// ************************************************************************* //
