/*--------------------------------*- C++ -*----------------------------------*\
| =========                 |                                                 |
| \\      /  F ield         | OpenFOAM: The Open Source CFD Toolbox           |
|  \\    /   O peration     | Version:  dev                                   |
|   \\  /    A nd           | Web:      www.OpenFOAM.org                      |
|    \\/     M anipulation  |                                                 |
\*---------------------------------------------------------------------------*/
FoamFile
{
    version     2.0;
    format      ascii;
    class       volScalarField;
    location    "0.195";
    object      H2O2;
}
// * * * * * * * * * * * * * * * * * * * * * * * * * * * * * * * * * * * * * //

dimensions      [0 0 0 0 0 0 0];

internalField   nonuniform List<scalar> 
250
(
5.05602e-08
5.05617e-08
5.05288e-08
5.05576e-08
5.05543e-08
5.0505e-08
5.05635e-08
5.06529e-08
5.13616e-08
2.2883e-07
6.30774e-05
1.85731e-08
1.85754e-08
1.85662e-08
1.85773e-08
1.8568e-08
1.85679e-08
1.85736e-08
1.86172e-08
1.89359e-08
1.41973e-07
2.69658e-05
6.77609e-09
6.77799e-09
6.77399e-09
6.7802e-09
6.77239e-09
6.77921e-09
6.77431e-09
6.80494e-09
6.90661e-09
5.15291e-08
6.60061e-06
2.60625e-09
2.60739e-09
2.6056e-09
2.60865e-09
2.60427e-09
2.60939e-09
2.60406e-09
2.62649e-09
2.64216e-09
1.53651e-08
1.36923e-06
1.09645e-09
1.0974e-09
1.09636e-09
1.0975e-09
1.09579e-09
1.09876e-09
1.09502e-09
1.11007e-09
1.10345e-09
4.40905e-09
2.76186e-07
5.21162e-10
5.23021e-10
5.21308e-10
5.21486e-10
5.2153e-10
5.23824e-10
5.20765e-10
5.299e-10
5.13449e-10
1.36174e-09
5.6833e-08
2.88879e-10
2.87176e-10
2.89102e-10
2.88836e-10
2.83534e-10
2.87367e-10
2.88594e-10
2.94437e-10
2.79078e-10
5.01377e-10
1.19634e-08
1.78301e-10
1.7754e-10
1.78478e-10
1.78151e-10
1.81646e-10
1.77578e-10
1.78531e-10
1.80808e-10
1.78595e-10
2.37825e-10
2.58693e-09
1.32944e-10
1.32603e-10
1.33127e-10
1.3277e-10
1.34525e-10
1.32543e-10
1.33439e-10
1.33967e-10
1.28751e-10
1.37278e-10
6.1126e-10
1.09059e-10
1.08969e-10
1.09339e-10
1.08926e-10
1.10008e-10
1.08817e-10
1.10001e-10
1.09698e-10
1.05014e-10
1.01059e-10
1.90436e-10
9.61623e-11
9.64364e-11
9.60297e-11
9.67633e-11
9.59741e-11
9.71382e-11
9.58574e-11
9.33344e-11
8.2813e-11
1.03067e-10
8.87586e-11
8.89987e-11
8.85737e-11
8.91762e-11
8.85529e-11
8.97362e-11
8.7877e-11
8.55787e-11
7.22345e-11
9.15799e-11
8.38806e-11
8.41099e-11
8.36407e-11
8.41725e-11
8.36671e-11
8.48786e-11
8.26594e-11
8.04063e-11
6.57428e-11
9.88204e-11
8.02052e-11
8.04335e-11
7.98827e-11
8.087e-11
7.99903e-11
8.12318e-11
7.87703e-11
7.6502e-11
6.01325e-11
1.06519e-10
7.71052e-11
7.73382e-11
7.70745e-11
7.77578e-11
7.68867e-11
7.81669e-11
7.55266e-11
7.324e-11
5.54779e-11
1.07932e-10
7.42724e-11
7.4512e-11
7.42018e-11
7.49233e-11
7.40478e-11
7.53758e-11
7.25929e-11
7.03167e-11
5.20134e-11
1.02154e-10
7.15464e-11
7.17943e-11
7.14361e-11
7.2199e-11
7.13139e-11
7.2698e-11
6.97954e-11
6.75744e-11
4.89032e-11
9.14054e-11
6.88356e-11
6.90931e-11
6.86812e-11
6.94909e-11
6.85947e-11
7.00406e-11
6.70363e-11
6.49234e-11
4.61328e-11
7.87914e-11
6.60796e-11
6.63482e-11
6.58708e-11
6.67385e-11
6.58312e-11
6.73414e-11
6.42562e-11
6.2302e-11
4.36879e-11
6.69221e-11
6.32318e-11
6.35125e-11
6.29494e-11
6.38952e-11
6.29785e-11
6.45507e-11
6.14191e-11
6.00221e-11
4.14272e-11
5.74664e-11
6.02501e-11
6.05433e-11
6.02393e-11
6.09206e-11
5.99964e-11
6.16226e-11
5.84808e-11
5.75794e-11
3.95275e-11
5.12492e-11
5.70912e-11
5.73929e-11
5.70594e-11
5.77669e-11
5.68438e-11
5.85099e-11
5.57164e-11
5.49548e-11
3.76419e-11
4.85009e-11
5.41151e-11
5.44389e-11
5.4063e-11
5.48334e-11
5.38624e-11
5.56255e-11
5.28108e-11
5.21986e-11
3.60372e-11
4.91115e-11
5.0658e-11
5.1009e-11
5.05952e-11
5.146e-11
5.04089e-11
5.23839e-11
4.94275e-11
4.9251e-11
3.43598e-11
5.27811e-11
)
;

boundaryField
{
    fuel
    {
        type            fixedValue;
        value           uniform 0;
    }
    wall
    {
        type            zeroGradient;
    }
    outlet
    {
        type            zeroGradient;
    }
    frontAndBack
    {
        type            empty;
    }
    procBoundary3to0
    {
        type            processor;
        value           nonuniform List<scalar> 10(4.73114e-11 4.76833e-11 4.72372e-11 4.81657e-11 4.70612e-11 4.91552e-11 4.6168e-11 4.6495e-11 3.25816e-11 5.58887e-11);
    }
    procBoundary3to2
    {
        type            processor;
        value           nonuniform List<scalar> 
25
(
5.05505e-08
1.85741e-08
6.7782e-09
2.6076e-09
1.09713e-09
5.21471e-10
2.89016e-10
1.78361e-10
1.32999e-10
1.09183e-10
9.60967e-11
9.60967e-11
8.87506e-11
8.3904e-11
8.02497e-11
7.71659e-11
7.43471e-11
7.16343e-11
6.89359e-11
6.61915e-11
6.33536e-11
6.03793e-11
5.72243e-11
5.42572e-11
5.0805e-11
)
;
    }
}


// ************************************************************************* //
