/*--------------------------------*- C++ -*----------------------------------*\
| =========                 |                                                 |
| \\      /  F ield         | OpenFOAM: The Open Source CFD Toolbox           |
|  \\    /   O peration     | Version:  dev                                   |
|   \\  /    A nd           | Web:      www.OpenFOAM.org                      |
|    \\/     M anipulation  |                                                 |
\*---------------------------------------------------------------------------*/
FoamFile
{
    version     2.0;
    format      ascii;
    class       volScalarField;
    location    "0.195";
    object      H2O2;
}
// * * * * * * * * * * * * * * * * * * * * * * * * * * * * * * * * * * * * * //

dimensions      [0 0 0 0 0 0 0];

internalField   nonuniform List<scalar> 
50
(
1.9866e-10
1.95418e-10
1.92321e-10
1.89349e-10
1.86533e-10
1.8383e-10
1.81234e-10
1.78764e-10
1.76383e-10
1.74071e-10
1.7185e-10
1.69679e-10
1.67534e-10
1.65409e-10
1.63285e-10
1.61104e-10
1.58819e-10
1.5637e-10
1.53689e-10
1.50704e-10
1.47337e-10
1.43446e-10
1.38936e-10
1.33696e-10
1.27665e-10
1.20746e-10
1.12915e-10
1.0425e-10
9.49312e-11
8.52394e-11
7.5401e-11
6.57171e-11
5.64701e-11
4.78822e-11
4.02033e-11
3.35038e-11
2.78448e-11
2.31668e-11
1.93656e-11
1.63134e-11
1.38719e-11
1.19044e-11
1.02846e-11
8.90172e-12
7.66116e-12
6.48352e-12
5.30232e-12
4.06185e-12
2.71077e-12
1.08432e-12
)
;

boundaryField
{
    wall
    {
        type            zeroGradient;
    }
    fuel
    {
        type            fixedValue;
        value           nonuniform 0();
    }
    outlet
    {
        type            inletOutlet;
        inletValue      uniform 0;
        value           uniform 0;
    }
    procBoundary3to2
    {
        type            processor;
        value           uniform 2.02045e-10;
    }
}


// ************************************************************************* //
