/*--------------------------------*- C++ -*----------------------------------*\
| =========                 |                                                 |
| \\      /  F ield         | OpenFOAM: The Open Source CFD Toolbox           |
|  \\    /   O peration     | Version:  dev                                   |
|   \\  /    A nd           | Web:      www.OpenFOAM.org                      |
|    \\/     M anipulation  |                                                 |
\*---------------------------------------------------------------------------*/
FoamFile
{
    version     2.0;
    format      ascii;
    class       volScalarField;
    location    "0.195";
    object      i-C6H7;
}
// * * * * * * * * * * * * * * * * * * * * * * * * * * * * * * * * * * * * * //

dimensions      [0 0 0 0 0 0 0];

internalField   nonuniform List<scalar> 
50
(
2.31479e-26
2.12171e-26
1.9388e-26
1.76525e-26
1.60344e-26
1.45116e-26
1.30843e-26
1.1768e-26
1.05476e-26
9.41298e-27
8.37981e-27
7.43379e-27
6.56635e-27
5.77943e-27
5.0731e-27
4.43549e-27
3.86223e-27
3.34834e-27
2.88751e-27
2.47785e-27
2.11671e-27
1.79646e-27
1.51403e-27
1.26607e-27
1.05068e-27
8.63286e-28
7.01036e-28
5.61769e-28
4.43649e-28
3.45179e-28
2.63689e-28
1.9728e-28
1.44107e-28
1.02338e-28
7.05344e-29
4.69552e-29
3.01222e-29
1.85424e-29
1.09029e-29
6.09965e-30
3.23889e-30
1.63386e-30
7.89333e-31
3.73857e-31
1.84008e-31
1.06482e-31
8.33462e-32
8.28313e-32
7.63453e-32
3.33327e-32
)
;

boundaryField
{
    wall
    {
        type            zeroGradient;
    }
    fuel
    {
        type            fixedValue;
        value           nonuniform 0();
    }
    outlet
    {
        type            inletOutlet;
        inletValue      uniform 0;
        value           uniform 0;
    }
    procBoundary3to2
    {
        type            processor;
        value           uniform 2.51355e-26;
    }
}


// ************************************************************************* //
