/*--------------------------------*- C++ -*----------------------------------*\
| =========                 |                                                 |
| \\      /  F ield         | OpenFOAM: The Open Source CFD Toolbox           |
|  \\    /   O peration     | Version:  dev                                   |
|   \\  /    A nd           | Web:      www.OpenFOAM.org                      |
|    \\/     M anipulation  |                                                 |
\*---------------------------------------------------------------------------*/
FoamFile
{
    version     2.0;
    format      ascii;
    class       volScalarField;
    location    "0.195";
    object      l-C6H6;
}
// * * * * * * * * * * * * * * * * * * * * * * * * * * * * * * * * * * * * * //

dimensions      [0 0 0 0 0 0 0];

internalField   nonuniform List<scalar> 
250
(
4.10718e-08
4.13969e-08
4.11163e-08
4.10783e-08
4.12037e-08
4.11138e-08
4.13826e-08
4.0575e-08
4.3021e-08
6.20873e-08
1.62357e-08
2.92313e-08
2.92815e-08
2.92383e-08
2.92384e-08
2.92524e-08
2.92375e-08
2.9287e-08
2.92226e-08
2.99869e-08
3.4898e-08
4.38654e-08
2.48237e-08
2.48302e-08
2.48258e-08
2.48213e-08
2.48269e-08
2.48245e-08
2.48438e-08
2.49333e-08
2.55987e-08
2.88381e-08
7.2147e-08
2.09383e-08
2.09397e-08
2.09389e-08
2.09332e-08
2.09412e-08
2.09395e-08
2.09583e-08
2.11215e-08
2.18871e-08
2.52673e-08
9.90052e-08
1.71235e-08
1.71285e-08
1.71189e-08
1.71127e-08
1.71321e-08
1.71279e-08
1.71512e-08
1.73923e-08
1.82142e-08
2.1885e-08
1.23036e-07
1.37425e-08
1.37558e-08
1.37167e-08
1.37113e-08
1.37595e-08
1.37526e-08
1.37791e-08
1.38193e-08
1.49019e-08
1.8811e-08
1.43673e-07
1.09811e-08
1.10207e-08
1.08833e-08
1.08751e-08
1.10021e-08
1.09986e-08
1.10335e-08
1.10577e-08
1.21598e-08
1.62141e-08
1.61248e-07
8.58636e-09
8.59416e-09
8.68547e-09
8.67844e-09
8.57648e-09
8.5876e-09
8.60279e-09
8.86207e-09
1.00171e-08
1.41156e-08
1.76866e-07
6.98001e-09
6.96926e-09
7.02706e-09
7.02073e-09
6.95753e-09
6.9778e-09
6.97729e-09
7.15784e-09
8.23878e-09
1.24051e-08
1.9221e-07
5.77357e-09
5.76294e-09
5.79904e-09
5.79204e-09
5.75744e-09
5.77778e-09
5.77488e-09
5.95786e-09
6.85044e-09
1.10756e-08
2.09354e-07
4.77647e-09
4.79447e-09
4.78687e-09
4.76874e-09
4.78955e-09
4.79062e-09
4.96835e-09
5.92637e-09
1.00086e-08
2.29554e-07
4.05743e-09
4.06468e-09
4.05564e-09
4.04133e-09
4.06634e-09
4.07325e-09
4.23855e-09
5.14292e-09
9.13497e-09
2.44951e-07
3.52477e-09
3.52653e-09
3.51402e-09
3.4932e-09
3.53047e-09
3.54209e-09
3.69595e-09
4.52406e-09
8.37718e-09
2.32694e-07
3.12054e-09
3.11987e-09
3.09892e-09
3.12226e-09
3.12511e-09
3.13914e-09
3.28327e-09
4.03048e-09
7.66728e-09
1.86401e-07
2.80488e-09
2.80339e-09
2.80964e-09
2.82705e-09
2.80956e-09
2.82451e-09
2.9604e-09
3.67622e-09
7.03525e-09
1.26903e-07
2.55093e-09
2.54923e-09
2.55041e-09
2.56937e-09
2.55603e-09
2.57132e-09
2.69951e-09
3.36053e-09
6.39839e-09
7.56052e-08
2.34075e-09
2.33908e-09
2.33761e-09
2.35544e-09
2.34635e-09
2.36165e-09
2.48186e-09
3.07851e-09
5.79142e-09
4.06778e-08
2.16247e-09
2.16086e-09
2.15752e-09
2.17407e-09
2.1685e-09
2.1836e-09
2.2948e-09
2.83373e-09
5.31188e-09
2.04144e-08
2.00814e-09
2.00656e-09
2.00086e-09
2.01739e-09
2.01451e-09
2.02927e-09
2.1296e-09
2.61758e-09
4.87163e-09
9.93288e-09
1.87245e-09
1.8708e-09
1.86142e-09
1.88e-09
1.87907e-09
1.89335e-09
1.99939e-09
2.42453e-09
4.4606e-09
4.96476e-09
1.75176e-09
1.74994e-09
1.74953e-09
1.75822e-09
1.75851e-09
1.77207e-09
1.87644e-09
2.25045e-09
4.07362e-09
2.79028e-09
1.64331e-09
1.64111e-09
1.64964e-09
1.64907e-09
1.6501e-09
1.66259e-09
1.75905e-09
2.09274e-09
3.70592e-09
1.93578e-09
1.55573e-09
1.5527e-09
1.56064e-09
1.56091e-09
1.56245e-09
1.5734e-09
1.66376e-09
1.94992e-09
3.35628e-09
1.67102e-09
1.47086e-09
1.47327e-09
1.47466e-09
1.47588e-09
1.47777e-09
1.49303e-09
1.5746e-09
1.82061e-09
3.03614e-09
1.64926e-09
)
;

boundaryField
{
    fuel
    {
        type            fixedValue;
        value           uniform 0;
    }
    wall
    {
        type            zeroGradient;
    }
    outlet
    {
        type            zeroGradient;
    }
    frontAndBack
    {
        type            empty;
    }
    procBoundary3to0
    {
        type            processor;
        value           nonuniform List<scalar> 10(1.39962e-09 1.40177e-09 1.40253e-09 1.40428e-09 1.4064e-09 1.42051e-09 1.49612e-09 1.70311e-09 2.74519e-09 1.70768e-09);
    }
    procBoundary3to2
    {
        type            processor;
        value           nonuniform List<scalar> 
25
(
4.12032e-08
2.92493e-08
2.4824e-08
2.09384e-08
1.71281e-08
1.37541e-08
1.10034e-08
8.60286e-09
6.99695e-09
5.79687e-09
4.78071e-09
4.78071e-09
4.05587e-09
3.51934e-09
3.1133e-09
2.79708e-09
2.54318e-09
2.33333e-09
2.15547e-09
2.00164e-09
1.86649e-09
1.74636e-09
1.63851e-09
1.55128e-09
1.46676e-09
)
;
    }
}


// ************************************************************************* //
