/*--------------------------------*- C++ -*----------------------------------*\
| =========                 |                                                 |
| \\      /  F ield         | OpenFOAM: The Open Source CFD Toolbox           |
|  \\    /   O peration     | Version:  dev                                   |
|   \\  /    A nd           | Web:      www.OpenFOAM.org                      |
|    \\/     M anipulation  |                                                 |
\*---------------------------------------------------------------------------*/
FoamFile
{
    version     2.0;
    format      ascii;
    class       volScalarField;
    location    "0.195";
    object      PC3H4;
}
// * * * * * * * * * * * * * * * * * * * * * * * * * * * * * * * * * * * * * //

dimensions      [0 0 0 0 0 0 0];

internalField   nonuniform List<scalar> 
250
(
6.89064e-07
6.8907e-07
6.88696e-07
6.89029e-07
6.89001e-07
6.88541e-07
6.89171e-07
6.90393e-07
6.97533e-07
8.19273e-07
3.3952e-06
4.01228e-07
4.01242e-07
4.01151e-07
4.01245e-07
4.01193e-07
4.01148e-07
4.01411e-07
4.0226e-07
4.06536e-07
4.64255e-07
3.17852e-06
3.08212e-07
3.08225e-07
3.08222e-07
3.08213e-07
3.08219e-07
3.08192e-07
3.08559e-07
3.09365e-07
3.13945e-07
3.45847e-07
1.7996e-06
2.77832e-07
2.77854e-07
2.77896e-07
2.77806e-07
2.77887e-07
2.77801e-07
2.78425e-07
2.79256e-07
2.85296e-07
3.03183e-07
8.75492e-07
2.63657e-07
2.63708e-07
2.63777e-07
2.63602e-07
2.6376e-07
2.63619e-07
2.64565e-07
2.65446e-07
2.73263e-07
2.83285e-07
4.42944e-07
2.52906e-07
2.53012e-07
2.53083e-07
2.5281e-07
2.5303e-07
2.52888e-07
2.54181e-07
2.55107e-07
2.64525e-07
2.71195e-07
2.49336e-07
2.42841e-07
2.42713e-07
2.43067e-07
2.42689e-07
2.42536e-07
2.42537e-07
2.44453e-07
2.4546e-07
2.56506e-07
2.63057e-07
1.5838e-07
2.31628e-07
2.31526e-07
2.31888e-07
2.31416e-07
2.32453e-07
2.31305e-07
2.33656e-07
2.34572e-07
2.48735e-07
2.57583e-07
1.17291e-07
2.22216e-07
2.2213e-07
2.22514e-07
2.21941e-07
2.22923e-07
2.2186e-07
2.24591e-07
2.25377e-07
2.40381e-07
2.53639e-07
1.03927e-07
2.12516e-07
2.12424e-07
2.12874e-07
2.12154e-07
2.13238e-07
2.12091e-07
2.15362e-07
2.16139e-07
2.32611e-07
2.5126e-07
1.07135e-07
2.02977e-07
2.03465e-07
2.02627e-07
2.03783e-07
2.02606e-07
2.0623e-07
2.06732e-07
2.25744e-07
2.49098e-07
1.19886e-07
1.9422e-07
1.94737e-07
1.93775e-07
1.94997e-07
1.93825e-07
1.97737e-07
1.98035e-07
2.18355e-07
2.46915e-07
1.36027e-07
1.86122e-07
1.86658e-07
1.8555e-07
1.86797e-07
1.85718e-07
1.89839e-07
1.89995e-07
2.11329e-07
2.4462e-07
1.52039e-07
1.78637e-07
1.79179e-07
1.77885e-07
1.80189e-07
1.78239e-07
1.82484e-07
1.82552e-07
2.04629e-07
2.41462e-07
1.6877e-07
1.71712e-07
1.72252e-07
1.71651e-07
1.73275e-07
1.7132e-07
1.75624e-07
1.75645e-07
1.98213e-07
2.37665e-07
1.87433e-07
1.65298e-07
1.65825e-07
1.65182e-07
1.66826e-07
1.64909e-07
1.69216e-07
1.69222e-07
1.9204e-07
2.33874e-07
2.08497e-07
1.59354e-07
1.59858e-07
1.59176e-07
1.60808e-07
1.58967e-07
1.63223e-07
1.63241e-07
1.86075e-07
2.29523e-07
2.3157e-07
1.53847e-07
1.54321e-07
1.53597e-07
1.55197e-07
1.53463e-07
1.57617e-07
1.57668e-07
1.80288e-07
2.2466e-07
2.55576e-07
1.48751e-07
1.4919e-07
1.48415e-07
1.49979e-07
1.48374e-07
1.52374e-07
1.52484e-07
1.74661e-07
2.19343e-07
2.79017e-07
1.44046e-07
1.44446e-07
1.43601e-07
1.4514e-07
1.43682e-07
1.47476e-07
1.47693e-07
1.6993e-07
2.1334e-07
3.00259e-07
1.39715e-07
1.40073e-07
1.39666e-07
1.40672e-07
1.39373e-07
1.42906e-07
1.43286e-07
1.65114e-07
2.0733e-07
3.17824e-07
1.35739e-07
1.36047e-07
1.35673e-07
1.36552e-07
1.3543e-07
1.38646e-07
1.39644e-07
1.60268e-07
2.00411e-07
3.30581e-07
1.32526e-07
1.32807e-07
1.32447e-07
1.33254e-07
1.32238e-07
1.35222e-07
1.36323e-07
1.55571e-07
1.93869e-07
3.37909e-07
1.29385e-07
1.29638e-07
1.29306e-07
1.30059e-07
1.29133e-07
1.31947e-07
1.33023e-07
1.50998e-07
1.86688e-07
3.3969e-07
)
;

boundaryField
{
    fuel
    {
        type            fixedValue;
        value           uniform 0;
    }
    wall
    {
        type            zeroGradient;
    }
    outlet
    {
        type            zeroGradient;
    }
    frontAndBack
    {
        type            empty;
    }
    procBoundary3to0
    {
        type            processor;
        value           nonuniform List<scalar> 10(1.26835e-07 1.2706e-07 1.26759e-07 1.27443e-07 1.26617e-07 1.29191e-07 1.30319e-07 1.4714e-07 1.79385e-07 3.36162e-07);
    }
    procBoundary3to2
    {
        type            processor;
        value           nonuniform List<scalar> 
25
(
6.88938e-07
4.01217e-07
3.08215e-07
2.77835e-07
2.63662e-07
2.52914e-07
2.42852e-07
2.31641e-07
2.22228e-07
2.12529e-07
2.03075e-07
2.03075e-07
1.94329e-07
1.86249e-07
1.78784e-07
1.71881e-07
1.65489e-07
1.59565e-07
1.54075e-07
1.48991e-07
1.44293e-07
1.3996e-07
1.35974e-07
1.32756e-07
1.296e-07
)
;
    }
}


// ************************************************************************* //
