/*--------------------------------*- C++ -*----------------------------------*\
| =========                 |                                                 |
| \\      /  F ield         | OpenFOAM: The Open Source CFD Toolbox           |
|  \\    /   O peration     | Version:  dev                                   |
|   \\  /    A nd           | Web:      www.OpenFOAM.org                      |
|    \\/     M anipulation  |                                                 |
\*---------------------------------------------------------------------------*/
FoamFile
{
    version     2.0;
    format      ascii;
    class       volScalarField;
    location    "0.015";
    object      A1C2H;
}
// * * * * * * * * * * * * * * * * * * * * * * * * * * * * * * * * * * * * * //

dimensions      [0 0 0 0 0 0 0];

internalField   nonuniform List<scalar> 
250
(
1.67035e-07
1.96593e-07
2.75586e-07
5.01545e-07
1.10295e-06
2.42693e-06
5.23012e-06
9.311e-06
1.72254e-05
2.26581e-05
1.45686e-07
1.74558e-07
2.51843e-07
4.92491e-07
1.1788e-06
2.75648e-06
5.92086e-06
1.03364e-05
1.79651e-05
2.19431e-05
2.10015e-05
1.85646e-05
1.13904e-05
6.7094e-06
3.17897e-06
1.29491e-06
4.94699e-07
2.35943e-07
1.5504e-07
1.27238e-07
1.27136e-07
1.54424e-07
2.33915e-07
4.90006e-07
1.27788e-06
3.14338e-06
6.68083e-06
1.13952e-05
1.86271e-05
2.10936e-05
2.00886e-05
1.91728e-05
1.24614e-05
7.55661e-06
3.5819e-06
1.41591e-06
4.99062e-07
2.21655e-07
1.39427e-07
1.10724e-07
1.10625e-07
1.38869e-07
2.19584e-07
4.93981e-07
1.39582e-06
3.54303e-06
7.52485e-06
1.24693e-05
1.92421e-05
2.01801e-05
1.91578e-05
1.97312e-05
1.35239e-05
8.396e-06
4.0183e-06
1.55548e-06
5.10075e-07
2.10663e-07
1.25808e-07
9.83029e-08
9.82028e-08
1.25489e-07
2.08608e-07
5.04537e-07
1.53346e-06
3.9777e-06
8.36481e-06
1.35354e-05
1.98068e-05
1.92471e-05
1.82537e-05
2.02293e-05
1.45537e-05
9.23618e-06
4.48357e-06
1.71055e-06
5.27147e-07
2.03115e-07
1.14802e-07
8.73481e-08
8.72502e-08
1.14012e-07
2.01068e-07
5.21167e-07
1.68686e-06
4.43771e-06
9.20609e-06
1.45695e-05
2.03107e-05
1.83396e-05
1.74267e-05
2.06463e-05
1.55248e-05
1.00492e-05
4.94685e-06
1.87539e-06
5.50083e-07
1.98469e-07
1.06321e-07
7.92159e-08
7.9119e-08
1.05728e-07
1.9645e-07
5.43692e-07
1.85049e-06
4.9013e-06
1.00214e-05
1.55455e-05
2.0733e-05
1.75089e-05
1.67148e-05
2.09535e-05
1.64098e-05
1.0806e-05
5.39617e-06
2.04259e-06
5.77795e-07
1.96488e-07
1.00008e-07
7.28004e-08
7.27079e-08
9.94809e-08
1.94501e-07
5.71081e-07
2.0171e-06
5.35169e-06
1.07818e-05
1.64361e-05
2.10448e-05
1.67939e-05
1.6125e-05
2.11212e-05
1.71809e-05
1.14785e-05
5.81245e-06
2.2035e-06
6.08627e-07
1.96837e-07
9.5602e-08
6.82311e-08
6.81417e-08
9.51051e-08
1.94887e-07
6.0172e-07
2.17815e-06
5.77005e-06
1.14591e-05
1.72132e-05
2.12162e-05
1.62021e-05
1.56309e-05
2.11272e-05
1.781e-05
1.20406e-05
6.17727e-06
2.34904e-06
6.41036e-07
1.99065e-07
9.29102e-08
6.52456e-08
6.51595e-08
9.24348e-08
1.9716e-07
6.33951e-07
2.32457e-06
6.13808e-06
1.2027e-05
1.78486e-05
2.1225e-05
1.57072e-05
1.51889e-05
2.09632e-05
1.82701e-05
1.24692e-05
6.47469e-06
2.47078e-06
6.71462e-07
2.02607e-07
9.17439e-08
6.37274e-08
6.36445e-08
9.12885e-08
2.00765e-07
6.64503e-07
2.44788e-06
6.4398e-06
1.24622e-05
1.83151e-05
2.10627e-05
1.52652e-05
1.47599e-05
2.06339e-05
1.85371e-05
1.27447e-05
6.69244e-06
2.56198e-06
6.97981e-07
2.06848e-07
9.18985e-08
6.35497e-08
6.34691e-08
9.14632e-08
2.0509e-07
6.9132e-07
2.54123e-06
6.66273e-06
1.27447e-05
1.85883e-05
2.07337e-05
1.48365e-05
1.43227e-05
2.01521e-05
1.85918e-05
1.28523e-05
6.82231e-06
2.61831e-06
7.18505e-07
2.11209e-07
9.31603e-08
6.45707e-08
6.44911e-08
9.27451e-08
2.09557e-07
7.12292e-07
2.60016e-06
6.79845e-06
1.28597e-05
1.8649e-05
2.02506e-05
1.43995e-05
6.65652e-08
9.4936e-08
2.13713e-07
7.25981e-07
2.62276e-06
6.84243e-06
1.27978e-05
1.84853e-05
1.96403e-05
1.39506e-05
)
;

boundaryField
{
    fuel
    {
        type            fixedValue;
        value           nonuniform 0();
    }
    wall
    {
        type            zeroGradient;
    }
    outlet
    {
        type            zeroGradient;
    }
    frontAndBack
    {
        type            empty;
    }
    procBoundary0to1
    {
        type            processor;
        value           nonuniform List<scalar> 
21
(
1.38735e-05
1.95437e-05
1.8423e-05
1.27834e-05
6.86021e-06
2.63809e-06
7.31632e-07
2.15238e-07
9.53302e-08
6.66449e-08
6.66449e-08
6.95631e-08
9.78805e-08
2.17284e-07
7.3175e-07
2.60934e-06
6.79375e-06
1.25567e-05
1.80964e-05
1.89199e-05
1.34946e-05
)
;
    }
    procBoundary0to2
    {
        type            processor;
        value           nonuniform List<scalar> 
12
(
1.67164e-07
2.18514e-05
1.79092e-05
1.03343e-05
5.94576e-06
2.78764e-06
1.19523e-06
4.96852e-07
2.53797e-07
1.75224e-07
1.45803e-07
1.45803e-07
)
;
    }
    procBoundary0to3
    {
        type            processor;
        value           nonuniform List<scalar> 10(1.9507e-07 2.25416e-07 3.02586e-07 5.1645e-07 1.0468e-06 2.17326e-06 4.5562e-06 8.29468e-06 1.64377e-05 2.31294e-05);
    }
}


// ************************************************************************* //
