/*--------------------------------*- C++ -*----------------------------------*\
| =========                 |                                                 |
| \\      /  F ield         | OpenFOAM: The Open Source CFD Toolbox           |
|  \\    /   O peration     | Version:  dev                                   |
|   \\  /    A nd           | Web:      www.OpenFOAM.org                      |
|    \\/     M anipulation  |                                                 |
\*---------------------------------------------------------------------------*/
FoamFile
{
    version     2.0;
    format      ascii;
    class       volScalarField;
    location    "0.015";
    object      A1C2H-;
}
// * * * * * * * * * * * * * * * * * * * * * * * * * * * * * * * * * * * * * //

dimensions      [0 0 0 0 0 0 0];

internalField   nonuniform List<scalar> 
250
(
1.67316e-09
1.9037e-09
2.44874e-09
3.90652e-09
6.98275e-09
1.24108e-08
1.98746e-08
2.59475e-08
3.15517e-08
3.00374e-08
1.42055e-09
1.64089e-09
2.14372e-09
3.64366e-09
6.93771e-09
1.27211e-08
1.9953e-08
2.4971e-08
2.8228e-08
2.38636e-08
1.80379e-08
2.48119e-08
2.35659e-08
1.9723e-08
1.29976e-08
6.97184e-09
3.43908e-09
1.91308e-09
1.401e-09
1.19899e-09
1.19833e-09
1.39671e-09
1.90136e-09
3.41931e-09
6.92222e-09
1.29565e-08
1.97644e-08
2.36673e-08
2.49519e-08
1.81621e-08
1.3181e-08
2.15479e-08
2.19679e-08
1.9188e-08
1.30572e-08
6.95576e-09
3.24509e-09
1.70255e-09
1.20635e-09
9.98183e-10
9.97571e-10
1.20293e-09
1.69113e-09
3.22545e-09
6.90886e-09
1.30306e-08
1.92521e-08
2.20788e-08
2.16804e-08
1.32782e-08
9.30561e-09
1.83651e-08
2.01476e-08
1.83441e-08
1.29324e-08
6.90693e-09
3.07412e-09
1.51895e-09
1.03032e-09
8.43838e-10
8.43221e-10
1.03021e-09
1.50835e-09
3.05469e-09
6.86509e-09
1.29234e-08
1.84277e-08
2.02661e-08
1.8489e-08
9.37956e-09
6.42179e-09
1.53299e-08
1.81754e-08
1.72006e-08
1.25837e-08
6.7921e-09
2.915e-09
1.35999e-09
8.80841e-10
7.03419e-10
7.02846e-10
8.74415e-10
1.35028e-09
2.89635e-09
6.75772e-09
1.25968e-08
1.73017e-08
1.82984e-08
1.54432e-08
6.47774e-09
4.40011e-09
1.25093e-08
1.61236e-08
1.58027e-08
1.20006e-08
6.58206e-09
2.75909e-09
1.2195e-09
7.56609e-10
5.94065e-10
5.93524e-10
7.52906e-10
1.21088e-09
2.74176e-09
6.55717e-09
1.20329e-08
1.59173e-08
1.62477e-08
1.261e-08
4.44282e-09
3.01874e-09
9.96652e-09
1.40596e-08
1.42125e-08
1.11886e-08
6.25702e-09
2.59555e-09
1.09328e-09
6.52035e-10
5.00759e-10
5.003e-10
6.49271e-10
1.0858e-09
2.58015e-09
6.24276e-09
1.1238e-08
1.43356e-08
1.41815e-08
1.0054e-08
3.05114e-09
2.07061e-09
7.75298e-09
1.20412e-08
1.25017e-08
1.01788e-08
5.8111e-09
2.41493e-09
9.77243e-10
5.62938e-10
4.24872e-10
4.24472e-10
5.60661e-10
9.70907e-10
2.40192e-09
5.80746e-09
1.02419e-08
1.26278e-08
1.21578e-08
7.82728e-09
2.09454e-09
1.42437e-09
5.89937e-09
1.01152e-08
1.0743e-08
9.02098e-09
5.2548e-09
2.20737e-09
8.67789e-10
4.86282e-10
3.61839e-10
3.61503e-10
4.84376e-10
8.62584e-10
2.1979e-09
5.26063e-09
9.09309e-09
1.08667e-08
1.02239e-08
5.96137e-09
1.44168e-09
9.97432e-10
4.40619e-09
8.31857e-09
9.00366e-09
7.77654e-09
4.61457e-09
1.97763e-09
7.62328e-10
4.19512e-10
3.09281e-10
3.09006e-10
4.17938e-10
7.58208e-10
1.97101e-09
4.62772e-09
7.8526e-09
9.12026e-09
8.41733e-09
4.45707e-09
1.01006e-09
7.24293e-10
3.24424e-09
6.68046e-09
7.34253e-09
6.5105e-09
3.92782e-09
1.72738e-09
6.59734e-10
3.60504e-10
2.64969e-10
2.6475e-10
3.59234e-10
6.56618e-10
1.72337e-09
3.94564e-09
6.58553e-09
7.44823e-09
6.76772e-09
3.28501e-09
7.33816e-10
5.51102e-10
2.36379e-09
5.2232e-09
5.80891e-09
5.28396e-09
3.23628e-09
1.46664e-09
5.60478e-10
3.07672e-10
2.2696e-10
2.26793e-10
3.06678e-10
5.58244e-10
1.46476e-09
3.25606e-09
5.35371e-09
5.90099e-09
5.29801e-09
2.39537e-09
5.58583e-10
1.93622e-10
2.59282e-10
4.64761e-10
1.2079e-09
2.59802e-09
4.20982e-09
4.51913e-09
4.02475e-09
1.74169e-09
4.4477e-10
)
;

boundaryField
{
    fuel
    {
        type            fixedValue;
        value           nonuniform 0();
    }
    wall
    {
        type            zeroGradient;
    }
    outlet
    {
        type            zeroGradient;
    }
    frontAndBack
    {
        type            empty;
    }
    procBoundary0to1
    {
        type            processor;
        value           nonuniform List<scalar> 
21
(
4.38845e-10
1.7189e-09
3.96315e-09
4.44284e-09
4.14841e-09
2.5784e-09
1.20813e-09
4.66276e-10
2.60064e-10
1.93774e-10
1.93774e-10
1.64216e-10
2.16583e-10
3.78331e-10
9.65286e-10
2.00188e-09
3.19348e-09
3.33228e-09
2.9579e-09
1.26879e-09
3.66618e-10
)
;
    }
    procBoundary0to2
    {
        type            processor;
        value           nonuniform List<scalar> 
12
(
1.67407e-09
2.37099e-08
2.80776e-08
2.48792e-08
1.99293e-08
1.27725e-08
6.98702e-09
3.66336e-09
2.15533e-09
1.64576e-09
1.42129e-09
1.42129e-09
)
;
    }
    procBoundary0to3
    {
        type            processor;
        value           nonuniform List<scalar> 10(2.00189e-09 2.24288e-09 2.78175e-09 4.20983e-09 7.07899e-09 1.21266e-08 1.95373e-08 2.65894e-08 3.46681e-08 3.61728e-08);
    }
}


// ************************************************************************* //
