/*--------------------------------*- C++ -*----------------------------------*\
| =========                 |                                                 |
| \\      /  F ield         | OpenFOAM: The Open Source CFD Toolbox           |
|  \\    /   O peration     | Version:  dev                                   |
|   \\  /    A nd           | Web:      www.OpenFOAM.org                      |
|    \\/     M anipulation  |                                                 |
\*---------------------------------------------------------------------------*/
FoamFile
{
    version     2.0;
    format      ascii;
    class       volScalarField;
    location    "0.015";
    object      A2C2HB;
}
// * * * * * * * * * * * * * * * * * * * * * * * * * * * * * * * * * * * * * //

dimensions      [0 0 0 0 0 0 0];

internalField   nonuniform List<scalar> 
250
(
2.23804e-10
2.48124e-10
3.26009e-10
6.38474e-10
2.02647e-09
7.01714e-09
2.25181e-08
4.84748e-08
1.01486e-07
1.25726e-07
1.99891e-10
2.24154e-10
3.03494e-10
6.57546e-10
2.4008e-09
8.96106e-09
2.7316e-08
5.57909e-08
1.05519e-07
1.21917e-07
1.17263e-07
1.07876e-07
6.29296e-08
3.27578e-08
1.15479e-08
2.96456e-09
7.01698e-10
2.89833e-10
2.02489e-10
1.78678e-10
1.78587e-10
2.01934e-10
2.87476e-10
6.92999e-10
2.90537e-09
1.13596e-08
3.26025e-08
6.30144e-08
1.08323e-07
1.17741e-07
1.13151e-07
1.09724e-07
6.97608e-08
3.85449e-08
1.41574e-08
3.61357e-09
7.57592e-10
2.78596e-10
1.84901e-10
1.59043e-10
1.58952e-10
1.84388e-10
2.76057e-10
7.47191e-10
3.5349e-09
1.39426e-08
3.83764e-08
6.98711e-08
1.10178e-07
1.13606e-07
1.09216e-07
1.10779e-07
7.59555e-08
4.40748e-08
1.70686e-08
4.40504e-09
8.36004e-10
2.71896e-10
1.69168e-10
1.4364e-10
1.43543e-10
1.68909e-10
2.69247e-10
8.23472e-10
4.31099e-09
1.68382e-08
4.39219e-08
7.60925e-08
1.11233e-07
1.09649e-07
1.0543e-07
1.11189e-07
8.13046e-08
4.93023e-08
2.02257e-08
5.33751e-09
9.39473e-10
2.70734e-10
1.56165e-10
1.29423e-10
1.29323e-10
1.55315e-10
2.67916e-10
9.24525e-10
5.22809e-09
1.99582e-08
4.91713e-08
8.14683e-08
1.11637e-07
1.05843e-07
1.01705e-07
1.11064e-07
8.56619e-08
5.39699e-08
2.33847e-08
6.38934e-09
1.07118e-09
2.74989e-10
1.46087e-10
1.18445e-10
1.1834e-10
1.45438e-10
2.71988e-10
1.05359e-09
6.26629e-09
2.31206e-08
5.38695e-08
8.58509e-08
1.11501e-07
1.02098e-07
9.79579e-08
1.10467e-07
8.89477e-08
5.78672e-08
2.6425e-08
7.52214e-09
1.2319e-09
2.85385e-10
1.3894e-10
1.09641e-10
1.09534e-10
1.3833e-10
2.82153e-10
1.21165e-09
7.38881e-09
2.61729e-08
5.78042e-08
8.9159e-08
1.10891e-07
9.83343e-08
9.41485e-08
1.09419e-07
9.11409e-08
6.08514e-08
2.91851e-08
8.68251e-09
1.41973e-09
3.02663e-10
1.35004e-10
1.0373e-10
1.03616e-10
1.34385e-10
2.99154e-10
1.39703e-09
8.54357e-09
2.89544e-08
6.0829e-08
9.13701e-08
1.09829e-07
9.45089e-08
9.02773e-08
1.0792e-07
9.22655e-08
6.28494e-08
3.15226e-08
9.80799e-09
1.63356e-09
3.2742e-10
1.3482e-10
1.01042e-10
1.00921e-10
1.34174e-10
3.23602e-10
1.60793e-09
9.66884e-09
3.13224e-08
6.28675e-08
9.25075e-08
1.08315e-07
9.06232e-08
8.63787e-08
1.05951e-07
9.23751e-08
6.38497e-08
3.33317e-08
1.08351e-08
1.85837e-09
3.59905e-10
1.3909e-10
1.02286e-10
1.02153e-10
1.38407e-10
3.55783e-10
1.8313e-09
1.07012e-08
3.31689e-08
6.39053e-08
9.26246e-08
1.06332e-07
8.67119e-08
8.25082e-08
1.03493e-07
9.15385e-08
6.38879e-08
3.45491e-08
1.17074e-08
2.08712e-09
3.99973e-10
1.48613e-10
1.08319e-10
1.08169e-10
1.47883e-10
3.95585e-10
2.0594e-09
1.15839e-08
3.44281e-08
6.39765e-08
9.17906e-08
1.03856e-07
8.28305e-08
7.87277e-08
1.00522e-07
8.98289e-08
6.30321e-08
3.51531e-08
1.23815e-08
2.30827e-09
4.47106e-10
1.64238e-10
1.20125e-10
1.19952e-10
1.63454e-10
4.42519e-10
2.28077e-09
1.22726e-08
3.50752e-08
6.31484e-08
9.00797e-08
1.00863e-07
7.90401e-08
1.38597e-10
1.86017e-10
4.95856e-10
2.4844e-09
1.27379e-08
3.51203e-08
6.15075e-08
8.75663e-08
9.74043e-08
7.54006e-08
)
;

boundaryField
{
    fuel
    {
        type            fixedValue;
        value           nonuniform 0();
    }
    wall
    {
        type            zeroGradient;
    }
    outlet
    {
        type            zeroGradient;
    }
    frontAndBack
    {
        type            empty;
    }
    procBoundary0to1
    {
        type            processor;
        value           nonuniform List<scalar> 
21
(
7.50941e-08
9.70852e-08
8.7321e-08
6.13705e-08
3.51571e-08
1.28296e-08
2.51081e-09
5.00558e-10
1.86861e-10
1.38798e-10
1.38798e-10
1.65308e-10
2.16522e-10
5.54786e-10
2.6608e-09
1.2966e-08
3.45999e-08
5.91498e-08
8.43285e-08
9.34892e-08
7.19435e-08
)
;
    }
    procBoundary0to2
    {
        type            processor;
        value           nonuniform List<scalar> 
12
(
2.23904e-10
1.21414e-07
1.05087e-07
5.57296e-08
2.74507e-08
9.1155e-09
2.45503e-09
6.64917e-10
3.05649e-10
2.24736e-10
1.9999e-10
1.9999e-10
)
;
    }
    procBoundary0to3
    {
        type            processor;
        value           nonuniform List<scalar> 10(2.54717e-10 2.79268e-10 3.53049e-10 6.32953e-10 1.74984e-09 5.59899e-09 1.79226e-08 4.1046e-08 9.63443e-08 1.28464e-07);
    }
}


// ************************************************************************* //
