/*--------------------------------*- C++ -*----------------------------------*\
| =========                 |                                                 |
| \\      /  F ield         | OpenFOAM: The Open Source CFD Toolbox           |
|  \\    /   O peration     | Version:  dev                                   |
|   \\  /    A nd           | Web:      www.OpenFOAM.org                      |
|    \\/     M anipulation  |                                                 |
\*---------------------------------------------------------------------------*/
FoamFile
{
    version     2.0;
    format      ascii;
    class       volScalarField;
    location    "0.015";
    object      A2C2HB*;
}
// * * * * * * * * * * * * * * * * * * * * * * * * * * * * * * * * * * * * * //

dimensions      [0 0 0 0 0 0 0];

internalField   nonuniform List<scalar> 
25
(
8.31281e-13
3.1339e-13
1.13442e-13
4.25029e-14
1.72202e-14
8.3165e-15
5.44956e-15
4.94691e-15
5.52079e-15
6.75501e-15
8.57592e-15
1.10811e-14
1.44986e-14
1.91817e-14
2.5585e-14
3.41909e-14
4.53839e-14
5.9315e-14
7.59642e-14
9.48e-14
1.15559e-13
1.38217e-13
1.63149e-13
1.91171e-13
2.23156e-13
)
;

boundaryField
{
    wall
    {
        type            zeroGradient;
    }
    fuel
    {
        type            fixedValue;
        value           uniform 0;
    }
    outlet
    {
        type            inletOutlet;
        inletValue      nonuniform 0();
        value           nonuniform 0();
    }
    procBoundary0to1
    {
        type            processor;
        value           uniform 2.59574e-13;
    }
}


// ************************************************************************* //
