/*--------------------------------*- C++ -*----------------------------------*\
| =========                 |                                                 |
| \\      /  F ield         | OpenFOAM: The Open Source CFD Toolbox           |
|  \\    /   O peration     | Version:  dev                                   |
|   \\  /    A nd           | Web:      www.OpenFOAM.org                      |
|    \\/     M anipulation  |                                                 |
\*---------------------------------------------------------------------------*/
FoamFile
{
    version     2.0;
    format      ascii;
    class       volScalarField;
    location    "0.015";
    object      A2C2HB;
}
// * * * * * * * * * * * * * * * * * * * * * * * * * * * * * * * * * * * * * //

dimensions      [0 0 0 0 0 0 0];

internalField   nonuniform List<scalar> 
250
(
2.81773e-10
3.67745e-10
8.12362e-10
3.76781e-09
2.69262e-08
1.44646e-07
1.01928e-07
4.32817e-08
1.45655e-08
7.03884e-09
2.54425e-10
3.43034e-10
8.3769e-10
4.30992e-09
2.96345e-08
1.40107e-07
9.62591e-08
4.0872e-08
1.40964e-08
7.23866e-09
7.33687e-09
1.30835e-08
3.80273e-08
9.30319e-08
1.38313e-07
3.71257e-08
6.02273e-09
9.97902e-10
3.40206e-10
2.31364e-10
2.28944e-10
3.25149e-10
8.83407e-10
4.99303e-09
3.25456e-08
1.34421e-07
9.18611e-08
3.87152e-08
1.37236e-08
7.44677e-09
7.57861e-09
1.2819e-08
3.59314e-08
8.85997e-08
1.31767e-07
4.07306e-08
7.08857e-09
1.09364e-09
3.28905e-10
2.11506e-10
2.08922e-10
3.1229e-10
9.53617e-10
5.84807e-09
3.5584e-08
1.28016e-07
8.75784e-08
3.66933e-08
1.34308e-08
7.6708e-09
7.83833e-09
1.26272e-08
3.39383e-08
8.37431e-08
1.25053e-07
4.43592e-08
8.34612e-09
1.22481e-09
3.23907e-10
1.93584e-10
1.90785e-10
3.04164e-10
1.05288e-09
6.85412e-09
3.86665e-08
1.21306e-07
8.29545e-08
3.47618e-08
1.32077e-08
7.91533e-09
8.12274e-09
1.251e-08
3.21064e-08
7.87355e-08
1.18512e-07
4.78948e-08
9.77978e-09
1.39657e-09
3.25629e-10
1.79836e-10
1.76744e-10
3.02443e-10
1.1857e-09
8.01643e-09
4.16963e-08
1.14656e-07
7.81162e-08
3.29378e-08
1.3055e-08
8.18666e-09
8.44141e-09
1.24697e-08
3.04399e-08
7.39205e-08
1.1239e-07
5.12084e-08
1.13506e-08
1.61222e-09
3.35029e-10
1.6879e-10
1.6538e-10
3.07424e-10
1.35542e-09
9.32101e-09
4.4565e-08
1.08383e-07
7.33708e-08
3.12507e-08
1.29755e-08
8.49317e-09
8.80691e-09
1.25124e-08
2.89892e-08
6.95474e-08
1.06849e-07
5.41685e-08
1.29973e-08
1.89102e-09
3.53169e-10
1.61799e-10
1.57911e-10
3.20062e-10
1.57416e-09
1.07e-08
4.71587e-08
1.02363e-07
6.89783e-08
2.97474e-08
1.29759e-08
8.84639e-09
9.23475e-09
1.26514e-08
2.78143e-08
6.57528e-08
1.0147e-07
5.66502e-08
1.46435e-08
2.19355e-09
3.80825e-10
1.58895e-10
1.5441e-10
3.41173e-10
1.81887e-09
1.21017e-08
4.93694e-08
9.7083e-08
6.51053e-08
2.84815e-08
1.30678e-08
9.26063e-09
9.74191e-09
1.29024e-08
2.69431e-08
6.26002e-08
9.71033e-08
5.8549e-08
1.62073e-08
2.52655e-09
4.18489e-10
1.60736e-10
1.55529e-10
3.71364e-10
2.0923e-09
1.3458e-08
5.11022e-08
9.23844e-08
6.18267e-08
2.75054e-08
1.32664e-08
9.75223e-09
1.03471e-08
1.32841e-08
2.63857e-08
6.00635e-08
9.31409e-08
5.97836e-08
1.761e-08
2.87593e-09
4.66062e-10
1.68058e-10
1.6201e-10
4.10792e-10
2.38365e-09
1.47004e-08
5.22834e-08
8.81914e-08
5.91449e-08
2.68325e-08
1.35895e-08
1.03395e-08
1.10707e-08
1.38185e-08
2.61476e-08
5.80815e-08
8.9433e-08
6.0306e-08
1.87851e-08
3.22491e-09
5.22808e-10
1.81624e-10
1.74636e-10
4.59091e-10
2.68387e-09
1.57685e-08
5.28654e-08
8.43719e-08
5.70156e-08
2.64681e-08
1.40581e-08
1.10446e-08
1.19797e-08
1.45299e-08
2.62329e-08
5.65767e-08
8.5887e-08
6.01027e-08
1.96832e-08
3.55623e-09
5.87475e-10
2.02203e-10
1.94209e-10
5.15419e-10
2.97046e-09
1.66151e-08
5.28291e-08
8.07872e-08
5.53675e-08
2.64171e-08
1.46955e-08
1.19292e-08
2.21562e-10
5.78683e-10
3.23361e-09
1.72083e-08
5.21817e-08
7.71874e-08
5.41193e-08
2.66822e-08
1.55252e-08
1.30612e-08
)
;

boundaryField
{
    fuel
    {
        type            fixedValue;
        value           nonuniform 0();
    }
    wall
    {
        type            zeroGradient;
    }
    outlet
    {
        type            zeroGradient;
    }
    frontAndBack
    {
        type            empty;
    }
    procBoundary0to1
    {
        type            processor;
        value           nonuniform List<scalar> 
21
(
1.31986e-08
1.54445e-08
2.6644e-08
5.54596e-08
8.24046e-08
5.91909e-08
2.02731e-08
3.85386e-09
6.58501e-10
2.30579e-10
2.30579e-10
2.57547e-10
6.47664e-10
3.46145e-09
1.75304e-08
5.09509e-08
7.38681e-08
5.31806e-08
2.72624e-08
1.65779e-08
1.43798e-08
)
;
    }
    procBoundary0to2
    {
        type            processor;
        value           nonuniform List<scalar> 
12
(
2.84091e-10
7.10755e-09
1.34137e-08
4.0169e-08
9.72833e-08
1.4429e-07
3.36407e-08
5.14494e-09
9.31947e-10
3.567e-10
2.56743e-10
2.56743e-10
)
;
    }
    procBoundary0to3
    {
        type            processor;
        value           nonuniform List<scalar> 10(3.12861e-10 3.95591e-10 8.04179e-10 3.34596e-09 2.42407e-08 1.47638e-07 1.1015e-07 4.6072e-08 1.51424e-08 6.86845e-09);
    }
}


// ************************************************************************* //
