/*--------------------------------*- C++ -*----------------------------------*\
| =========                 |                                                 |
| \\      /  F ield         | OpenFOAM: The Open Source CFD Toolbox           |
|  \\    /   O peration     | Version:  dev                                   |
|   \\  /    A nd           | Web:      www.OpenFOAM.org                      |
|    \\/     M anipulation  |                                                 |
\*---------------------------------------------------------------------------*/
FoamFile
{
    version     2.0;
    format      ascii;
    class       volScalarField;
    location    "0.015";
    object      C5H2;
}
// * * * * * * * * * * * * * * * * * * * * * * * * * * * * * * * * * * * * * //

dimensions      [0 0 0 0 0 0 0];

internalField   nonuniform List<scalar> 
250
(
1.23276e-07
1.30651e-07
1.43337e-07
1.7165e-07
1.97741e-07
2.26897e-07
2.33143e-07
2.29526e-07
1.71772e-07
5.88377e-08
1.0799e-07
1.15254e-07
1.25902e-07
1.54826e-07
1.79785e-07
2.05067e-07
2.10421e-07
2.0247e-07
1.38933e-07
4.01787e-08
2.66287e-08
1.09072e-07
1.75535e-07
1.8717e-07
1.83242e-07
1.62069e-07
1.39107e-07
1.11396e-07
1.00117e-07
9.35918e-08
9.36802e-08
1.00077e-07
1.11278e-07
1.3912e-07
1.62361e-07
1.84091e-07
1.883e-07
1.76477e-07
1.10487e-07
2.70305e-08
1.79077e-08
8.49886e-08
1.50799e-07
1.64955e-07
1.64862e-07
1.45704e-07
1.24382e-07
9.80258e-08
8.73635e-08
7.98687e-08
7.98964e-08
8.73222e-08
9.78699e-08
1.24422e-07
1.46168e-07
1.65712e-07
1.66053e-07
1.51606e-07
8.5877e-08
1.80658e-08
1.20206e-08
6.48277e-08
1.27356e-07
1.44406e-07
1.47438e-07
1.30313e-07
1.10628e-07
8.57406e-08
7.51266e-08
6.86503e-08
6.86524e-08
7.52923e-08
8.55851e-08
1.10689e-07
1.3079e-07
1.48258e-07
1.45442e-07
1.28085e-07
6.53936e-08
1.20959e-08
8.19245e-09
4.8502e-08
1.05514e-07
1.24742e-07
1.30698e-07
1.15873e-07
9.78021e-08
7.45323e-08
6.41267e-08
5.7781e-08
5.77737e-08
6.37979e-08
7.43908e-08
9.78781e-08
1.16354e-07
1.31643e-07
1.25751e-07
1.06187e-07
4.88745e-08
8.23855e-09
5.80092e-09
3.56616e-08
8.5596e-08
1.06129e-07
1.15178e-07
1.02464e-07
8.59495e-08
6.43553e-08
5.45435e-08
4.88313e-08
4.88194e-08
5.4401e-08
6.42376e-08
8.6035e-08
1.02941e-07
1.16087e-07
1.07113e-07
8.62181e-08
3.59141e-08
5.83556e-09
4.33525e-09
2.58082e-08
6.78895e-08
8.878e-08
1.00676e-07
9.01531e-08
7.51133e-08
5.52043e-08
4.61532e-08
4.07823e-08
4.0772e-08
4.60658e-08
5.51109e-08
7.52009e-08
9.06175e-08
1.01562e-07
8.97294e-08
6.84574e-08
2.59849e-08
4.36446e-09
3.41472e-09
1.84055e-08
5.25915e-08
7.29204e-08
8.722e-08
7.89886e-08
6.53498e-08
4.70815e-08
3.88197e-08
3.39455e-08
3.39363e-08
3.87535e-08
4.70096e-08
6.54319e-08
7.94336e-08
8.80896e-08
7.38233e-08
5.31018e-08
1.85344e-08
3.44038e-09
2.80287e-09
1.29558e-08
3.97751e-08
5.87466e-08
7.48503e-08
6.89907e-08
5.6545e-08
3.99885e-08
3.24821e-08
2.80922e-08
2.80854e-08
3.24287e-08
3.99343e-08
5.66523e-08
6.94139e-08
7.57037e-08
5.95939e-08
4.02266e-08
1.30547e-08
2.8255e-09
2.37356e-09
9.02041e-09
2.93734e-08
4.639e-08
6.36049e-08
6.01511e-08
4.89996e-08
3.39146e-08
2.7094e-08
2.3166e-08
2.31633e-08
2.7052e-08
3.38747e-08
4.90958e-08
6.0553e-08
6.44398e-08
4.71802e-08
2.97701e-08
9.10111e-09
2.3935e-09
2.06185e-09
6.22519e-09
2.11885e-08
3.5886e-08
5.35071e-08
5.24224e-08
4.25592e-08
2.88243e-08
2.25999e-08
1.90977e-08
1.91024e-08
2.25707e-08
2.8797e-08
4.2642e-08
5.28069e-08
5.43233e-08
3.66318e-08
2.15431e-08
6.29756e-09
2.07973e-09
1.82888e-09
4.25292e-09
1.49188e-08
2.71569e-08
4.4555e-08
4.57262e-08
3.7174e-08
2.46511e-08
1.8925e-08
1.58e-08
1.58195e-08
1.89139e-08
2.46378e-08
3.72411e-08
4.6099e-08
4.53591e-08
2.78973e-08
1.52593e-08
4.33337e-09
1.84658e-09
1.32159e-08
1.59906e-08
2.13038e-08
3.28041e-08
4.03277e-08
3.75214e-08
2.08252e-08
1.05768e-08
2.98214e-09
1.66843e-09
)
;

boundaryField
{
    fuel
    {
        type            fixedValue;
        value           nonuniform 0();
    }
    wall
    {
        type            zeroGradient;
    }
    outlet
    {
        type            zeroGradient;
    }
    frontAndBack
    {
        type            empty;
    }
    procBoundary0to1
    {
        type            processor;
        value           nonuniform List<scalar> 
21
(
1.6519e-09
2.90923e-09
1.0313e-08
2.02378e-08
3.68258e-08
3.99769e-08
3.27319e-08
2.13158e-08
1.60067e-08
1.32072e-08
1.32072e-08
1.12152e-08
1.37216e-08
1.86914e-08
2.91872e-08
3.53927e-08
3.08553e-08
1.53527e-08
7.22048e-09
2.07309e-09
1.52578e-09
)
;
    }
    procBoundary0to2
    {
        type            processor;
        value           nonuniform List<scalar> 
12
(
1.23395e-07
4.00342e-08
1.3845e-07
2.01669e-07
2.09544e-07
2.04257e-07
1.79258e-07
1.54843e-07
1.2605e-07
1.1537e-07
1.07961e-07
1.07961e-07
)
;
    }
    procBoundary0to3
    {
        type            processor;
        value           nonuniform List<scalar> 10(1.42171e-07 1.4957e-07 1.61293e-07 1.89623e-07 2.16766e-07 2.47991e-07 2.59318e-07 2.59074e-07 2.08427e-07 8.52367e-08);
    }
}


// ************************************************************************* //
