/*--------------------------------*- C++ -*----------------------------------*\
| =========                 |                                                 |
| \\      /  F ield         | OpenFOAM: The Open Source CFD Toolbox           |
|  \\    /   O peration     | Version:  dev                                   |
|   \\  /    A nd           | Web:      www.OpenFOAM.org                      |
|    \\/     M anipulation  |                                                 |
\*---------------------------------------------------------------------------*/
FoamFile
{
    version     2.0;
    format      ascii;
    class       volScalarField;
    location    "0.015";
    object      C5H4OH;
}
// * * * * * * * * * * * * * * * * * * * * * * * * * * * * * * * * * * * * * //

dimensions      [0 0 0 0 0 0 0];

internalField   nonuniform List<scalar> 
250
(
1.39304e-11
1.69849e-11
2.77744e-11
5.99944e-11
1.47426e-10
6.56821e-10
1.65971e-08
1.98901e-05
2.15418e-05
5.63846e-06
1.23492e-11
1.53876e-11
2.67829e-11
6.05464e-11
1.47747e-10
7.08815e-10
1.8689e-08
2.03676e-05
1.94196e-05
5.02345e-06
4.05099e-06
1.6637e-05
2.05896e-05
3.01459e-08
8.35328e-10
1.57696e-10
6.60538e-11
2.75886e-11
1.4519e-11
1.0971e-11
1.08866e-11
1.4156e-11
2.60882e-11
6.13309e-11
1.48031e-10
7.64662e-10
2.50669e-08
2.05871e-05
1.75766e-05
4.59334e-06
3.80474e-06
1.51258e-05
2.04113e-05
4.78414e-08
9.06568e-10
1.58428e-10
6.72222e-11
2.72795e-11
1.34797e-11
9.84103e-12
9.75352e-12
1.31391e-11
2.5648e-11
6.22394e-11
1.48256e-10
8.23882e-10
3.73476e-08
2.05007e-05
1.59901e-05
4.29272e-06
3.64764e-06
1.38302e-05
1.99163e-05
8.64092e-08
9.90746e-10
1.59127e-10
6.83474e-11
2.71784e-11
1.26638e-11
8.81558e-12
8.72495e-12
1.22364e-11
2.54162e-11
6.31493e-11
1.48419e-10
8.86863e-10
5.59006e-08
2.00961e-05
1.46273e-05
4.09412e-06
3.55811e-06
1.27215e-05
1.91638e-05
2.06937e-07
1.11675e-09
1.59858e-10
6.93205e-11
2.72331e-11
1.20173e-11
8.01576e-12
7.91988e-12
1.15628e-11
2.53469e-11
6.3962e-11
1.48548e-10
9.60545e-10
9.25945e-08
1.94071e-05
1.34538e-05
3.97369e-06
3.51257e-06
1.1762e-05
1.81935e-05
4.89357e-07
1.31986e-09
1.60721e-10
7.00528e-11
2.73912e-11
1.15187e-11
7.321e-12
7.22472e-12
1.10348e-11
2.5392e-11
6.45782e-11
1.48698e-10
1.0614e-09
1.80326e-07
1.84791e-05
1.24341e-05
3.90543e-06
3.48702e-06
1.0917e-05
1.70607e-05
8.95927e-07
1.58699e-09
1.61825e-10
7.04874e-11
2.7576e-11
1.11495e-11
6.79018e-12
6.68831e-12
1.06351e-11
2.5484e-11
6.49413e-11
1.48954e-10
1.20352e-09
3.3654e-07
1.73652e-05
1.15347e-05
3.86395e-06
3.45829e-06
1.01574e-05
1.58365e-05
1.26882e-06
1.87066e-09
1.63297e-10
7.06207e-11
2.77711e-11
1.08934e-11
6.38007e-12
6.27233e-12
1.03491e-11
2.56086e-11
6.50311e-11
1.49414e-10
1.3692e-09
5.18199e-07
1.61301e-05
1.07261e-05
3.8249e-06
3.40436e-06
9.4559e-06
1.45621e-05
1.47755e-06
2.10194e-09
1.65329e-10
7.04866e-11
2.79498e-11
1.07399e-11
6.08469e-12
5.97105e-12
1.01674e-11
2.57381e-11
6.48682e-11
1.50221e-10
1.53386e-09
6.48435e-07
1.48411e-05
9.98128e-06
3.76536e-06
3.31068e-06
8.78813e-06
1.32624e-05
1.48775e-06
2.27607e-09
1.68267e-10
7.01681e-11
2.81182e-11
1.06871e-11
5.90315e-12
5.78369e-12
1.00885e-11
2.58765e-11
6.45217e-11
1.51609e-10
1.67919e-09
6.78885e-07
1.3523e-05
9.27441e-06
3.66673e-06
3.17166e-06
8.13388e-06
1.19571e-05
1.33256e-06
2.39834e-09
1.72749e-10
6.98115e-11
2.83199e-11
1.07469e-11
5.84171e-12
5.71638e-12
1.01233e-11
2.60474e-11
6.41189e-11
1.54019e-10
1.80322e-09
6.13012e-07
1.21924e-05
8.58301e-06
3.5187e-06
2.98015e-06
7.47679e-06
1.06606e-05
1.07518e-06
2.48e-09
1.79958e-10
6.96706e-11
2.86482e-11
1.09513e-11
5.91807e-12
5.78642e-12
1.03012e-11
2.63486e-11
6.38822e-11
1.58295e-10
1.91171e-09
4.89079e-07
1.0864e-05
7.88902e-06
3.31218e-06
6.03085e-12
1.06833e-11
2.69321e-11
6.42191e-11
1.65964e-10
2.01467e-09
3.52277e-07
9.54903e-06
7.17847e-06
3.04225e-06
)
;

boundaryField
{
    fuel
    {
        type            fixedValue;
        value           nonuniform 0();
    }
    wall
    {
        type            zeroGradient;
    }
    outlet
    {
        type            zeroGradient;
    }
    frontAndBack
    {
        type            empty;
    }
    procBoundary0to1
    {
        type            processor;
        value           nonuniform List<scalar> 
21
(
2.7237e-06
6.80571e-06
9.38256e-06
7.85386e-07
2.5313e-09
1.91902e-10
7.02253e-11
2.92779e-11
1.13658e-11
6.16988e-12
6.16988e-12
6.52694e-12
1.13947e-11
2.81051e-11
6.59099e-11
1.79296e-10
2.09975e-09
2.3421e-07
8.25459e-06
6.43977e-06
2.73339e-06
)
;
    }
    procBoundary0to2
    {
        type            processor;
        value           nonuniform List<scalar> 
12
(
1.40181e-11
4.41127e-06
1.83978e-05
2.04351e-05
2.06035e-08
7.69427e-10
1.56923e-10
6.49652e-11
2.81549e-11
1.57384e-11
1.24331e-11
1.24331e-11
)
;
    }
    procBoundary0to3
    {
        type            processor;
        value           nonuniform List<scalar> 10(1.57427e-11 1.87105e-11 2.91017e-11 5.97792e-11 1.47212e-10 6.08911e-10 1.59835e-08 1.91842e-05 2.39411e-05 6.4456e-06);
    }
}


// ************************************************************************* //
