/*--------------------------------*- C++ -*----------------------------------*\
| =========                 |                                                 |
| \\      /  F ield         | OpenFOAM: The Open Source CFD Toolbox           |
|  \\    /   O peration     | Version:  dev                                   |
|   \\  /    A nd           | Web:      www.OpenFOAM.org                      |
|    \\/     M anipulation  |                                                 |
\*---------------------------------------------------------------------------*/
FoamFile
{
    version     2.0;
    format      ascii;
    class       volScalarField;
    location    "0.015";
    object      C5H5O;
}
// * * * * * * * * * * * * * * * * * * * * * * * * * * * * * * * * * * * * * //

dimensions      [0 0 0 0 0 0 0];

internalField   nonuniform List<scalar> 
25
(
3.25264e-13
1.65055e-13
7.29219e-14
3.11236e-14
1.29776e-14
5.34178e-15
2.18122e-15
9.08078e-16
3.97096e-16
1.93583e-16
1.16555e-16
9.48897e-17
1.01026e-16
1.2448e-16
1.61285e-16
2.09777e-16
2.69103e-16
3.39337e-16
4.24255e-16
5.35185e-16
7.07978e-16
1.03257e-15
1.71647e-15
3.21313e-15
6.45948e-15
)
;

boundaryField
{
    wall
    {
        type            zeroGradient;
    }
    fuel
    {
        type            fixedValue;
        value           uniform 0;
    }
    outlet
    {
        type            inletOutlet;
        inletValue      nonuniform 0();
        value           nonuniform 0();
    }
    procBoundary0to1
    {
        type            processor;
        value           uniform 1.32834e-14;
    }
}


// ************************************************************************* //
