/*--------------------------------*- C++ -*----------------------------------*\
| =========                 |                                                 |
| \\      /  F ield         | OpenFOAM: The Open Source CFD Toolbox           |
|  \\    /   O peration     | Version:  dev                                   |
|   \\  /    A nd           | Web:      www.OpenFOAM.org                      |
|    \\/     M anipulation  |                                                 |
\*---------------------------------------------------------------------------*/
FoamFile
{
    version     2.0;
    format      ascii;
    class       volScalarField;
    location    "0.015";
    object      CH2OH;
}
// * * * * * * * * * * * * * * * * * * * * * * * * * * * * * * * * * * * * * //

dimensions      [0 0 0 0 0 0 0];

internalField   nonuniform List<scalar> 
250
(
1.44045e-08
1.39434e-08
1.26574e-08
1.1065e-08
8.68692e-09
6.80055e-09
4.65804e-09
3.15701e-09
2.22951e-09
4.69955e-09
1.3431e-08
1.29729e-08
1.15422e-08
1.00429e-08
7.67193e-09
5.76618e-09
3.86529e-09
2.5539e-09
1.8773e-09
5.26753e-09
6.62871e-09
1.5877e-09
2.03577e-09
3.13177e-09
4.74439e-09
6.60391e-09
8.96029e-09
1.0454e-08
1.18495e-08
1.23544e-08
1.23588e-08
1.18626e-08
1.04875e-08
9.00881e-09
6.66258e-09
4.80165e-09
3.16041e-09
2.04661e-09
1.59308e-09
6.66242e-09
9.26154e-09
1.36383e-09
1.61645e-09
2.49998e-09
3.93839e-09
5.65015e-09
7.92548e-09
9.37203e-09
1.07655e-08
1.11444e-08
1.11489e-08
1.0783e-08
9.40431e-09
7.97343e-09
5.71412e-09
3.99091e-09
2.527e-09
1.62603e-09
1.36886e-09
9.31686e-09
1.31776e-08
1.21226e-09
1.27531e-09
1.98661e-09
3.21788e-09
4.75547e-09
6.90208e-09
8.27247e-09
9.57507e-09
9.9987e-09
1.00027e-08
9.61599e-09
8.30323e-09
6.94873e-09
4.81491e-09
3.26367e-09
2.00992e-09
1.2837e-09
1.21708e-09
1.32639e-08
1.77329e-08
1.14874e-09
1.00275e-09
1.56011e-09
2.57648e-09
3.92841e-09
5.90731e-09
7.17156e-09
8.36841e-09
8.72406e-09
8.72786e-09
8.35384e-09
7.20033e-09
5.9515e-09
3.98228e-09
2.62086e-09
1.58005e-09
1.00996e-09
1.1534e-09
1.78612e-08
2.18347e-08
1.18669e-09
7.89436e-10
1.21196e-09
2.03377e-09
3.18057e-09
4.95723e-09
6.09351e-09
7.19772e-09
7.53559e-09
7.53893e-09
7.2017e-09
6.12009e-09
4.99789e-09
3.22814e-09
2.07067e-09
1.22864e-09
7.95459e-10
1.19132e-09
2.20098e-08
2.43373e-08
1.32847e-09
6.26743e-10
9.3247e-10
1.5779e-09
2.52016e-09
4.07054e-09
5.06278e-09
6.06792e-09
6.34164e-09
6.34498e-09
6.0756e-09
5.08674e-09
4.10663e-09
2.56095e-09
1.60813e-09
9.46073e-10
6.31611e-10
1.33324e-09
2.45474e-08
2.44741e-08
1.55762e-09
5.07188e-10
7.11529e-10
1.20287e-09
1.95173e-09
3.26504e-09
4.10435e-09
4.99681e-09
5.22779e-09
5.23075e-09
5.00439e-09
4.12529e-09
3.29575e-09
1.98561e-09
1.22719e-09
7.22338e-10
5.10942e-10
1.56272e-09
2.46893e-08
2.24566e-08
1.83813e-09
4.24642e-10
5.39436e-10
9.00854e-10
1.47586e-09
2.54234e-09
3.24096e-09
4.0102e-09
4.19847e-09
4.20105e-09
4.01676e-09
3.25865e-09
2.57012e-09
1.50308e-09
9.19966e-10
5.47789e-10
4.27315e-10
1.84378e-09
2.26482e-08
1.93345e-08
2.12411e-09
3.74136e-10
4.07434e-10
6.62761e-10
1.08933e-09
1.93445e-09
2.49013e-09
3.1322e-09
3.28094e-09
3.28312e-09
3.13757e-09
2.50452e-09
1.95666e-09
1.11043e-09
6.77379e-10
4.13676e-10
3.7574e-10
2.13058e-09
1.94913e-08
1.61553e-08
2.3735e-09
3.51237e-10
3.0806e-10
4.79074e-10
7.84943e-10
1.43251e-09
1.86144e-09
2.37994e-09
2.49427e-09
2.49604e-09
2.38414e-09
1.87268e-09
1.44959e-09
8.00725e-10
4.89926e-10
3.12515e-10
3.51775e-10
2.38118e-09
1.62814e-08
1.34761e-08
2.55819e-09
3.51163e-10
2.35229e-10
3.40554e-10
5.52713e-10
1.03321e-09
1.35536e-09
1.76068e-09
1.84664e-09
1.84799e-09
1.76382e-09
1.3638e-09
1.04586e-09
5.64122e-10
3.4836e-10
2.38181e-10
3.50632e-10
2.56679e-09
1.3581e-08
1.33573e-09
1.27336e-09
9.69817e-10
7.36345e-10
3.89064e-10
2.44123e-10
1.85692e-10
3.66348e-10
2.67248e-09
1.15207e-08
)
;

boundaryField
{
    fuel
    {
        type            fixedValue;
        value           nonuniform 0();
    }
    wall
    {
        type            zeroGradient;
    }
    outlet
    {
        type            zeroGradient;
    }
    frontAndBack
    {
        type            empty;
    }
    procBoundary0to1
    {
        type            processor;
        value           nonuniform List<scalar> 
21
(
1.14323e-08
2.66492e-09
3.67923e-10
1.8405e-10
2.38765e-10
3.81187e-10
7.27317e-10
9.63688e-10
1.27098e-09
1.33459e-09
1.33459e-09
9.46185e-10
9.00349e-10
6.76076e-10
5.07631e-10
2.63694e-10
1.69632e-10
1.50786e-10
3.91651e-10
2.70695e-09
1.00131e-08
)
;
    }
    procBoundary0to2
    {
        type            processor;
        value           nonuniform List<scalar> 
12
(
1.44004e-08
5.2426e-09
1.87057e-09
2.5412e-09
3.8351e-09
5.70526e-09
7.59581e-09
9.99452e-09
1.15078e-08
1.29614e-08
1.3427e-08
1.3427e-08
)
;
    }
    procBoundary0to3
    {
        type            processor;
        value           nonuniform List<scalar> 10(1.54169e-08 1.49582e-08 1.36574e-08 1.20706e-08 9.72315e-09 7.82063e-09 5.61951e-09 3.89275e-09 2.63362e-09 4.51886e-09);
    }
}


// ************************************************************************* //
