/*--------------------------------*- C++ -*----------------------------------*\
| =========                 |                                                 |
| \\      /  F ield         | OpenFOAM: The Open Source CFD Toolbox           |
|  \\    /   O peration     | Version:  dev                                   |
|   \\  /    A nd           | Web:      www.OpenFOAM.org                      |
|    \\/     M anipulation  |                                                 |
\*---------------------------------------------------------------------------*/
FoamFile
{
    version     2.0;
    format      ascii;
    class       volScalarField;
    location    "0.015";
    object      CH3;
}
// * * * * * * * * * * * * * * * * * * * * * * * * * * * * * * * * * * * * * //

dimensions      [0 0 0 0 0 0 0];

internalField   nonuniform List<scalar> 
2014
(
9.88457e-05
9.99432e-05
0.000101102
0.000102031
0.000102577
0.000102827
0.000102866
0.000102787
0.000102651
0.000102495
0.000102363
0.000102276
0.000102216
0.00010219
0.000102182
0.000102194
0.000102211
0.000102236
0.000102258
0.00010228
0.000102297
0.000102312
0.000102321
0.000102328
0.000102331
0.000102331
0.000102328
0.000102321
0.000102311
0.000102297
0.00010228
0.000102259
0.000102237
0.000102213
0.000102197
0.000102186
0.000102194
0.000102221
0.000102281
0.000102368
0.0001025
0.000102655
0.00010279
0.000102868
0.000102827
0.000102574
0.000102026
0.000101092
9.99312e-05
9.88297e-05
9.79737e-05
9.91086e-05
0.000100308
0.000101269
0.000101833
0.000102089
0.000102124
0.000102037
0.000101892
0.000101724
0.000101583
0.00010149
0.000101426
0.000101397
0.000101388
0.000101399
0.000101417
0.000101442
0.000101466
0.000101489
0.000101506
0.000101521
0.000101531
0.000101538
0.000101541
0.000101541
0.000101538
0.000101531
0.000101521
0.000101506
0.000101489
0.000101466
0.000101444
0.000101419
0.000101403
0.000101392
0.000101402
0.000101432
0.000101495
0.000101589
0.000101729
0.000101897
0.00010204
0.000102126
0.000102089
0.00010183
0.000101263
0.000100299
9.90959e-05
9.79568e-05
9.71157e-05
9.82898e-05
9.9531e-05
0.000100524
0.000101107
0.000101368
0.0001014
0.000101305
0.000101149
0.000100968
0.000100818
0.000100719
0.000100651
0.000100619
0.000100608
0.000100619
0.000100637
0.000100663
0.000100687
0.000100711
0.000100729
0.000100745
0.000100755
0.000100763
0.000100766
0.000100766
0.000100762
0.000100755
0.000100744
0.000100729
0.000100711
0.000100688
0.000100665
0.00010064
0.000100622
0.000100612
0.000100624
0.000100656
0.000100724
0.000100824
0.000100974
0.000101154
0.000101308
0.000101402
0.000101368
0.000101104
0.000100519
9.95221e-05
9.82765e-05
9.70979e-05
9.62703e-05
9.74847e-05
9.87976e-05
9.97945e-05
0.000100395
0.000100661
0.00010069
0.000100586
0.000100419
0.000100225
0.000100065
9.99585e-05
9.98858e-05
9.98506e-05
9.98388e-05
9.98492e-05
9.98673e-05
9.98942e-05
9.99191e-05
9.9944e-05
9.99629e-05
9.99789e-05
9.99898e-05
9.99974e-05
0.000100001
0.000100001
9.99969e-05
9.99891e-05
9.99783e-05
9.99626e-05
9.99441e-05
9.99198e-05
9.98957e-05
9.98701e-05
9.98528e-05
9.98433e-05
9.9856e-05
9.98916e-05
9.99646e-05
0.000100071
0.000100231
0.000100424
0.000100589
0.000100692
0.000100661
0.000100392
9.97888e-05
9.87889e-05
9.74708e-05
9.62522e-05
9.54348e-05
9.66904e-05
9.80525e-05
9.90766e-05
9.96957e-05
9.99662e-05
9.99901e-05
9.98772e-05
9.96981e-05
9.94906e-05
9.93194e-05
9.92064e-05
9.91285e-05
9.90902e-05
9.90767e-05
9.90867e-05
9.9105e-05
9.91326e-05
9.91583e-05
9.91842e-05
9.92038e-05
9.92204e-05
9.92317e-05
9.92395e-05
9.9243e-05
9.92428e-05
9.9239e-05
9.9231e-05
9.92197e-05
9.92034e-05
9.91843e-05
9.91592e-05
9.91342e-05
9.9108e-05
9.90905e-05
9.90816e-05
9.90959e-05
9.91347e-05
9.92128e-05
9.93259e-05
9.94973e-05
9.97036e-05
9.98811e-05
9.99925e-05
9.99663e-05
9.96928e-05
9.90707e-05
9.80426e-05
9.6676e-05
9.54181e-05
9.46361e-05
9.59046e-05
9.73108e-05
9.83681e-05
9.90056e-05
9.92801e-05
9.92991e-05
9.91764e-05
9.8984e-05
9.87627e-05
9.85797e-05
9.84595e-05
9.83763e-05
9.83347e-05
9.83194e-05
9.83288e-05
9.83474e-05
9.83757e-05
9.84022e-05
9.8429e-05
9.84493e-05
9.84664e-05
9.84782e-05
9.84864e-05
9.849e-05
9.84898e-05
9.84859e-05
9.84775e-05
9.84658e-05
9.84489e-05
9.84292e-05
9.84031e-05
9.83773e-05
9.83505e-05
9.83329e-05
9.83246e-05
9.83408e-05
9.83829e-05
9.84664e-05
9.85866e-05
9.87698e-05
9.899e-05
9.91806e-05
9.93018e-05
9.92803e-05
9.90025e-05
9.8362e-05
9.73005e-05
9.58897e-05
9.46194e-05
9.38173e-05
9.51247e-05
9.65767e-05
9.76666e-05
9.83226e-05
9.86007e-05
9.86143e-05
9.84813e-05
9.82741e-05
9.80387e-05
9.78433e-05
9.77154e-05
9.76267e-05
9.75817e-05
9.75645e-05
9.75732e-05
9.7592e-05
9.76209e-05
9.76484e-05
9.76761e-05
9.76971e-05
9.77148e-05
9.77271e-05
9.77355e-05
9.77393e-05
9.77391e-05
9.7735e-05
9.77263e-05
9.77141e-05
9.76966e-05
9.76763e-05
9.76493e-05
9.76227e-05
9.75954e-05
9.75775e-05
9.757e-05
9.75881e-05
9.76338e-05
9.77228e-05
9.78507e-05
9.80463e-05
9.82808e-05
9.84857e-05
9.86172e-05
9.86011e-05
9.83195e-05
9.76602e-05
9.65658e-05
9.51094e-05
9.37991e-05
9.29985e-05
9.43486e-05
9.58482e-05
9.69697e-05
9.76449e-05
9.79261e-05
9.79336e-05
9.77898e-05
9.75664e-05
9.73167e-05
9.71081e-05
9.69722e-05
9.68776e-05
9.6829e-05
9.68098e-05
9.68178e-05
9.68368e-05
9.68663e-05
9.68946e-05
9.69234e-05
9.6945e-05
9.69634e-05
9.69761e-05
9.69849e-05
9.69888e-05
9.69885e-05
9.69843e-05
9.69753e-05
9.69627e-05
9.69446e-05
9.69235e-05
9.68957e-05
9.68682e-05
9.68404e-05
9.68223e-05
9.68156e-05
9.68359e-05
9.68852e-05
9.698e-05
9.7116e-05
9.73247e-05
9.75738e-05
9.77944e-05
9.79368e-05
9.79266e-05
9.76417e-05
9.69633e-05
9.58368e-05
9.43328e-05
9.29793e-05
9.21823e-05
9.36048e-05
9.51239e-05
9.63044e-05
9.69707e-05
9.72544e-05
9.72552e-05
9.70996e-05
9.68593e-05
9.65946e-05
9.63725e-05
9.62277e-05
9.61272e-05
9.60748e-05
9.60534e-05
9.60606e-05
9.60798e-05
9.611e-05
9.61392e-05
9.61689e-05
9.61912e-05
9.62102e-05
9.62234e-05
9.62325e-05
9.62366e-05
9.62363e-05
9.62319e-05
9.62226e-05
9.62095e-05
9.61907e-05
9.6169e-05
9.61403e-05
9.6112e-05
9.60836e-05
9.60654e-05
9.60596e-05
9.60821e-05
9.61352e-05
9.6236e-05
9.63809e-05
9.66032e-05
9.68671e-05
9.71048e-05
9.72586e-05
9.7255e-05
9.69674e-05
9.62978e-05
9.5112e-05
9.35886e-05
9.21622e-05
9.13672e-05
9.28518e-05
9.44019e-05
9.56245e-05
9.62981e-05
9.65841e-05
9.65774e-05
9.64091e-05
9.61512e-05
9.58707e-05
9.56346e-05
9.54804e-05
9.53735e-05
9.53173e-05
9.52936e-05
9.52998e-05
9.53194e-05
9.53502e-05
9.53801e-05
9.54109e-05
9.54339e-05
9.54536e-05
9.54674e-05
9.54768e-05
9.5481e-05
9.54807e-05
9.54761e-05
9.54664e-05
9.54528e-05
9.54333e-05
9.5411e-05
9.53814e-05
9.53523e-05
9.53234e-05
9.5305e-05
9.53001e-05
9.5325e-05
9.53821e-05
9.54892e-05
9.56435e-05
9.58799e-05
9.61594e-05
9.64149e-05
9.65812e-05
9.65848e-05
9.62949e-05
9.56169e-05
9.43895e-05
9.28337e-05
9.13463e-05
9.05516e-05
9.20828e-05
9.36804e-05
9.49361e-05
9.56255e-05
9.59137e-05
9.58987e-05
9.57166e-05
9.54405e-05
9.51434e-05
9.48928e-05
9.47284e-05
9.46152e-05
9.45549e-05
9.45287e-05
9.45339e-05
9.45538e-05
9.45852e-05
9.4616e-05
9.46478e-05
9.46714e-05
9.4692e-05
9.47062e-05
9.4716e-05
9.47203e-05
9.472e-05
9.47153e-05
9.47053e-05
9.46911e-05
9.46708e-05
9.46479e-05
9.46173e-05
9.45875e-05
9.45581e-05
9.45394e-05
9.45356e-05
9.45631e-05
9.46243e-05
9.47378e-05
9.49023e-05
9.51533e-05
9.54492e-05
9.57229e-05
9.59028e-05
9.59147e-05
9.56224e-05
9.49284e-05
9.36677e-05
9.20642e-05
9.05301e-05
8.97345e-05
9.1314e-05
9.29582e-05
9.42477e-05
9.49514e-05
9.52422e-05
9.52176e-05
9.50207e-05
9.47257e-05
9.4411e-05
9.41457e-05
9.39704e-05
9.38505e-05
9.3786e-05
9.37571e-05
9.37613e-05
9.37816e-05
9.38136e-05
9.38451e-05
9.3878e-05
9.39023e-05
9.39238e-05
9.39386e-05
9.39486e-05
9.39531e-05
9.39528e-05
9.39479e-05
9.39375e-05
9.39229e-05
9.39017e-05
9.38781e-05
9.38465e-05
9.3816e-05
9.37861e-05
9.37671e-05
9.37645e-05
9.37947e-05
9.38604e-05
9.39803e-05
9.41557e-05
9.44215e-05
9.4735e-05
9.50275e-05
9.52221e-05
9.52433e-05
9.49484e-05
9.42397e-05
9.29451e-05
9.12949e-05
8.97124e-05
8.89145e-05
9.05441e-05
9.22336e-05
9.3558e-05
9.43023e-05
9.45684e-05
9.45327e-05
9.43199e-05
9.40057e-05
9.36717e-05
9.33918e-05
9.32049e-05
9.30782e-05
9.30093e-05
9.29776e-05
9.29806e-05
9.30014e-05
9.30339e-05
9.30661e-05
9.31001e-05
9.3125e-05
9.31476e-05
9.31629e-05
9.31733e-05
9.31779e-05
9.31776e-05
9.31726e-05
9.31619e-05
9.31466e-05
9.31244e-05
9.31002e-05
9.30676e-05
9.30363e-05
9.30062e-05
9.29866e-05
9.29854e-05
9.30185e-05
9.30888e-05
9.32154e-05
9.34024e-05
9.36831e-05
9.40155e-05
9.43273e-05
9.45376e-05
9.45697e-05
9.42994e-05
9.35497e-05
9.22201e-05
9.05244e-05
8.88919e-05
8.80903e-05
8.9772e-05
9.15349e-05
9.28657e-05
9.36347e-05
9.38912e-05
9.38426e-05
9.36131e-05
9.32792e-05
9.29243e-05
9.26291e-05
9.24305e-05
9.22969e-05
9.22232e-05
9.21885e-05
9.21901e-05
9.22117e-05
9.22446e-05
9.22776e-05
9.23126e-05
9.23383e-05
9.2362e-05
9.2378e-05
9.23886e-05
9.23933e-05
9.2393e-05
9.23878e-05
9.23768e-05
9.2361e-05
9.23376e-05
9.23127e-05
9.22792e-05
9.22472e-05
9.22167e-05
9.21965e-05
9.21968e-05
9.2233e-05
9.23082e-05
9.24416e-05
9.26403e-05
9.29365e-05
9.32896e-05
9.36211e-05
9.38479e-05
9.38927e-05
9.36313e-05
9.2857e-05
9.15211e-05
8.97517e-05
8.80673e-05
8.7291e-05
8.89963e-05
9.08186e-05
9.21696e-05
9.29528e-05
9.32089e-05
9.3146e-05
9.2899e-05
9.25447e-05
9.21674e-05
9.18561e-05
9.16458e-05
9.15054e-05
9.14265e-05
9.13886e-05
9.13887e-05
9.14112e-05
9.14445e-05
9.14782e-05
9.15142e-05
9.15407e-05
9.15658e-05
9.15823e-05
9.15932e-05
9.1598e-05
9.15977e-05
9.15924e-05
9.15811e-05
9.15648e-05
9.154e-05
9.15144e-05
9.14798e-05
9.14473e-05
9.14165e-05
9.13954e-05
9.13973e-05
9.14369e-05
9.15174e-05
9.16576e-05
9.18679e-05
9.21805e-05
9.25558e-05
9.29075e-05
9.31517e-05
9.32107e-05
9.29494e-05
9.21603e-05
9.08034e-05
8.89755e-05
8.72677e-05
8.64759e-05
8.82154e-05
9.0085e-05
9.14687e-05
9.22659e-05
9.25471e-05
9.24414e-05
9.21765e-05
9.17997e-05
9.14005e-05
9.10713e-05
9.08496e-05
9.07024e-05
9.06179e-05
9.05764e-05
9.05749e-05
9.05985e-05
9.06322e-05
9.06665e-05
9.07036e-05
9.0731e-05
9.07578e-05
9.07747e-05
9.07858e-05
9.07907e-05
9.07903e-05
9.0785e-05
9.07734e-05
9.07567e-05
9.07303e-05
9.07038e-05
9.06682e-05
9.06351e-05
9.06041e-05
9.05819e-05
9.05857e-05
9.06288e-05
9.0715e-05
9.08619e-05
9.10838e-05
9.14142e-05
9.18118e-05
9.21856e-05
9.24476e-05
9.2549e-05
9.22624e-05
9.14591e-05
9.00695e-05
8.81944e-05
8.64509e-05
8.56376e-05
8.74281e-05
8.93464e-05
9.07622e-05
9.15725e-05
9.18534e-05
9.17556e-05
9.14443e-05
9.10427e-05
9.0622e-05
9.02736e-05
9.004e-05
8.98866e-05
8.97959e-05
8.97507e-05
8.97472e-05
8.97725e-05
8.98064e-05
8.98412e-05
8.98794e-05
8.9908e-05
8.99365e-05
8.99538e-05
8.99651e-05
8.997e-05
8.99697e-05
8.99642e-05
8.99525e-05
8.99353e-05
8.99073e-05
8.98795e-05
8.9843e-05
8.98095e-05
8.97783e-05
8.97545e-05
8.97604e-05
8.98074e-05
8.98997e-05
9.0053e-05
9.02867e-05
9.06365e-05
9.1056e-05
9.14539e-05
9.17621e-05
9.18554e-05
9.15689e-05
9.07528e-05
8.93306e-05
8.74069e-05
8.56125e-05
8.4823e-05
8.66644e-05
8.86016e-05
9.00484e-05
9.08712e-05
9.11475e-05
9.10448e-05
9.07295e-05
9.03011e-05
8.98303e-05
8.9462e-05
8.92157e-05
8.90566e-05
8.89592e-05
8.891e-05
8.89043e-05
8.89316e-05
8.89657e-05
8.90009e-05
8.90403e-05
8.90709e-05
8.91007e-05
8.91183e-05
8.91297e-05
8.91347e-05
8.91343e-05
8.91288e-05
8.91169e-05
8.90995e-05
8.90701e-05
8.90404e-05
8.90029e-05
8.89691e-05
8.89377e-05
8.8912e-05
8.89202e-05
8.89713e-05
8.90701e-05
8.92293e-05
8.94756e-05
8.98456e-05
9.03156e-05
9.07398e-05
9.10519e-05
9.11498e-05
9.08677e-05
9.00407e-05
8.85855e-05
8.6643e-05
8.47975e-05
8.39769e-05
8.58679e-05
8.7849e-05
8.93547e-05
9.0161e-05
9.04311e-05
9.03124e-05
8.99838e-05
8.95412e-05
8.90531e-05
8.8665e-05
8.84052e-05
8.8211e-05
8.81065e-05
8.8053e-05
8.80447e-05
8.80746e-05
8.81089e-05
8.81444e-05
8.81848e-05
8.82189e-05
8.82491e-05
8.82668e-05
8.82783e-05
8.82834e-05
8.8283e-05
8.82774e-05
8.82654e-05
8.82478e-05
8.82181e-05
8.81849e-05
8.81464e-05
8.81125e-05
8.8081e-05
8.80526e-05
8.80637e-05
8.81193e-05
8.82247e-05
8.84195e-05
8.86792e-05
8.90693e-05
8.95568e-05
8.99949e-05
9.032e-05
9.04335e-05
9.01576e-05
8.93476e-05
8.78328e-05
8.58455e-05
8.39502e-05
8.31169e-05
8.50892e-05
8.7087e-05
8.86257e-05
8.94403e-05
8.97031e-05
8.95675e-05
8.9218e-05
8.87467e-05
8.82384e-05
8.78373e-05
8.75708e-05
8.73784e-05
8.72673e-05
8.72092e-05
8.71981e-05
8.72002e-05
8.72346e-05
8.72701e-05
8.73115e-05
8.73518e-05
8.73804e-05
8.73982e-05
8.74097e-05
8.74148e-05
8.74144e-05
8.74087e-05
8.73967e-05
8.73791e-05
8.7351e-05
8.73116e-05
8.72722e-05
8.72384e-05
8.7207e-05
8.72064e-05
8.72205e-05
8.72807e-05
8.73925e-05
8.75866e-05
8.78535e-05
8.82554e-05
8.87635e-05
8.92298e-05
8.95756e-05
8.97058e-05
8.94371e-05
8.86177e-05
8.70706e-05
8.50665e-05
8.30896e-05
8.22465e-05
8.42918e-05
8.63458e-05
8.78822e-05
8.87075e-05
8.8963e-05
8.88087e-05
8.84376e-05
8.79375e-05
8.74001e-05
8.69787e-05
8.66986e-05
8.65014e-05
8.63894e-05
8.63344e-05
8.63337e-05
8.63387e-05
8.63733e-05
8.64087e-05
8.6451e-05
8.64688e-05
8.64931e-05
8.65108e-05
8.65224e-05
8.65275e-05
8.65272e-05
8.65214e-05
8.65093e-05
8.64917e-05
8.64679e-05
8.64511e-05
8.64108e-05
8.63772e-05
8.63459e-05
8.63434e-05
8.63468e-05
8.64039e-05
8.65164e-05
8.67151e-05
8.69957e-05
8.7418e-05
8.79556e-05
8.84501e-05
8.88172e-05
8.8966e-05
8.87047e-05
8.78736e-05
8.63291e-05
8.4267e-05
8.22185e-05
8.13958e-05
8.34652e-05
8.55701e-05
8.71267e-05
8.79921e-05
8.82114e-05
8.80344e-05
8.76416e-05
8.71107e-05
8.65443e-05
8.61007e-05
8.5807e-05
8.56018e-05
8.54843e-05
8.54245e-05
8.54227e-05
8.5434e-05
8.54744e-05
8.55153e-05
8.55666e-05
8.55961e-05
8.56182e-05
8.56359e-05
8.56475e-05
8.56528e-05
8.56524e-05
8.56465e-05
8.56343e-05
8.56168e-05
8.55951e-05
8.55667e-05
8.55178e-05
8.54788e-05
8.54419e-05
8.5433e-05
8.54374e-05
8.54995e-05
8.56174e-05
8.58243e-05
8.61187e-05
8.65631e-05
8.71302e-05
8.76548e-05
8.80434e-05
8.82146e-05
8.79897e-05
8.71171e-05
8.55525e-05
8.34398e-05
8.1367e-05
8.05351e-05
8.26274e-05
8.48089e-05
8.63903e-05
8.7239e-05
8.74518e-05
8.72429e-05
8.68285e-05
8.6265e-05
8.56696e-05
8.52018e-05
8.48944e-05
8.46807e-05
8.45585e-05
8.44935e-05
8.44896e-05
8.45031e-05
8.45435e-05
8.45843e-05
8.46372e-05
8.46722e-05
8.46958e-05
8.47147e-05
8.47271e-05
8.47331e-05
8.47327e-05
8.4726e-05
8.4713e-05
8.46942e-05
8.46712e-05
8.46373e-05
8.45868e-05
8.45481e-05
8.45116e-05
8.45004e-05
8.45071e-05
8.45744e-05
8.46972e-05
8.49126e-05
8.52207e-05
8.56893e-05
8.62857e-05
8.68425e-05
8.72523e-05
8.74553e-05
8.72365e-05
8.63797e-05
8.47909e-05
8.26013e-05
8.0505e-05
7.96638e-05
8.17764e-05
8.40216e-05
8.56395e-05
8.64649e-05
8.66994e-05
8.64642e-05
8.5997e-05
8.53988e-05
8.47742e-05
8.42807e-05
8.39594e-05
8.37367e-05
8.36106e-05
8.35401e-05
8.35344e-05
8.35506e-05
8.35904e-05
8.36309e-05
8.36855e-05
8.37231e-05
8.37476e-05
8.37667e-05
8.37792e-05
8.3786e-05
8.37855e-05
8.37781e-05
8.3765e-05
8.37459e-05
8.3722e-05
8.36856e-05
8.36336e-05
8.35953e-05
8.35595e-05
8.35455e-05
8.35544e-05
8.36272e-05
8.37541e-05
8.39784e-05
8.43006e-05
8.47948e-05
8.54204e-05
8.60117e-05
8.6474e-05
8.67031e-05
8.64626e-05
8.56274e-05
8.40023e-05
8.17495e-05
7.9631e-05
7.87632e-05
8.09448e-05
8.32057e-05
8.48509e-05
8.5706e-05
8.58985e-05
8.56637e-05
8.51775e-05
8.45097e-05
8.38564e-05
8.33362e-05
8.30004e-05
8.27684e-05
8.26392e-05
8.25629e-05
8.25553e-05
8.25755e-05
8.26139e-05
8.2654e-05
8.27103e-05
8.27499e-05
8.27757e-05
8.27952e-05
8.28078e-05
8.28162e-05
8.28158e-05
8.28065e-05
8.27934e-05
8.2774e-05
8.27487e-05
8.27104e-05
8.26566e-05
8.2619e-05
8.25847e-05
8.25669e-05
8.25779e-05
8.26566e-05
8.27868e-05
8.30203e-05
8.33571e-05
8.38779e-05
8.45323e-05
8.5193e-05
8.56746e-05
8.59024e-05
8.57037e-05
8.48443e-05
8.31861e-05
8.0917e-05
7.87228e-05
7.78353e-05
8.00998e-05
8.2375e-05
8.40777e-05
8.49169e-05
8.51084e-05
8.48173e-05
8.43099e-05
8.36305e-05
8.2948e-05
8.24009e-05
8.20499e-05
8.18084e-05
8.16429e-05
8.15604e-05
8.15511e-05
8.15765e-05
8.16124e-05
8.16519e-05
8.17101e-05
8.17514e-05
8.17788e-05
8.17986e-05
8.18113e-05
8.18233e-05
8.18229e-05
8.18101e-05
8.17967e-05
8.1777e-05
8.17502e-05
8.17101e-05
8.16546e-05
8.16178e-05
8.15858e-05
8.15631e-05
8.15761e-05
8.16611e-05
8.18278e-05
8.20706e-05
8.24228e-05
8.29704e-05
8.3654e-05
8.43266e-05
8.48286e-05
8.51125e-05
8.49141e-05
8.4071e-05
8.23553e-05
8.0071e-05
7.78124e-05
7.69257e-05
7.92401e-05
8.15273e-05
8.32559e-05
8.4125e-05
8.42879e-05
8.39824e-05
8.34469e-05
8.26981e-05
8.19879e-05
8.14216e-05
8.10584e-05
8.08174e-05
8.06551e-05
8.05664e-05
8.05556e-05
8.0552e-05
8.05846e-05
8.06234e-05
8.06835e-05
8.07266e-05
8.07553e-05
8.07756e-05
8.07885e-05
8.08072e-05
8.08067e-05
8.07872e-05
8.07737e-05
8.07534e-05
8.07254e-05
8.06835e-05
8.06261e-05
8.05902e-05
8.05611e-05
8.0568e-05
8.05828e-05
8.06741e-05
8.08387e-05
8.10807e-05
8.14452e-05
8.20117e-05
8.27231e-05
8.34646e-05
8.3994e-05
8.42919e-05
8.41223e-05
8.32482e-05
8.15077e-05
7.92104e-05
7.68967e-05
7.60029e-05
7.83509e-05
8.06963e-05
8.24124e-05
8.32956e-05
8.34604e-05
8.31271e-05
8.25421e-05
8.1771e-05
8.10313e-05
8.04385e-05
8.0058e-05
7.97734e-05
7.96115e-05
7.9523e-05
7.95219e-05
7.95356e-05
7.95653e-05
7.96033e-05
7.96656e-05
7.97106e-05
7.97404e-05
7.97611e-05
7.97742e-05
7.9767e-05
7.97665e-05
7.97728e-05
7.97591e-05
7.97384e-05
7.97093e-05
7.96655e-05
7.96061e-05
7.95711e-05
7.95447e-05
7.9536e-05
7.95404e-05
7.96317e-05
7.97957e-05
8.00813e-05
8.04632e-05
8.10562e-05
8.17976e-05
8.25611e-05
8.3139e-05
8.34645e-05
8.32924e-05
8.24042e-05
8.06768e-05
7.83189e-05
7.59707e-05
7.50662e-05
7.74563e-05
7.98489e-05
8.15474e-05
8.24308e-05
8.25887e-05
8.22426e-05
8.1631e-05
8.08194e-05
8.00497e-05
7.94141e-05
7.90257e-05
7.87369e-05
7.85715e-05
7.84767e-05
7.84388e-05
7.84586e-05
7.84905e-05
7.85329e-05
7.86033e-05
7.86561e-05
7.86919e-05
7.87173e-05
7.87338e-05
7.87329e-05
7.87324e-05
7.87324e-05
7.87152e-05
7.86898e-05
7.86547e-05
7.86033e-05
7.85358e-05
7.84968e-05
7.84683e-05
7.84535e-05
7.84949e-05
7.85925e-05
7.87603e-05
7.90507e-05
7.94406e-05
8.00755e-05
8.08477e-05
8.1651e-05
8.22551e-05
8.25929e-05
8.24276e-05
8.15391e-05
7.98295e-05
7.74261e-05
7.50324e-05
7.41148e-05
7.6549e-05
7.89845e-05
8.06964e-05
8.15421e-05
8.16818e-05
8.13066e-05
8.06643e-05
7.98261e-05
7.90349e-05
7.83793e-05
7.79732e-05
7.76737e-05
7.74798e-05
7.73912e-05
7.73635e-05
7.73865e-05
7.74169e-05
7.74588e-05
7.74943e-05
7.75499e-05
7.75867e-05
7.76134e-05
7.76315e-05
7.76347e-05
7.76341e-05
7.76301e-05
7.76112e-05
7.75844e-05
7.75485e-05
7.74941e-05
7.74617e-05
7.74235e-05
7.73968e-05
7.73789e-05
7.74108e-05
7.75022e-05
7.76981e-05
7.79992e-05
7.84073e-05
7.90629e-05
7.98563e-05
8.06856e-05
8.13194e-05
8.16861e-05
8.15389e-05
8.06883e-05
7.89652e-05
7.65191e-05
7.40796e-05
7.31154e-05
7.5628e-05
7.81021e-05
7.98248e-05
8.06657e-05
8.07482e-05
8.03428e-05
7.96618e-05
7.87852e-05
7.79607e-05
7.72875e-05
7.68717e-05
7.65727e-05
7.63838e-05
7.62902e-05
7.62607e-05
7.6259e-05
7.62974e-05
7.63509e-05
7.63932e-05
7.64522e-05
7.64896e-05
7.6517e-05
7.65362e-05
7.65413e-05
7.65407e-05
7.65348e-05
7.65147e-05
7.64872e-05
7.64507e-05
7.63929e-05
7.63544e-05
7.63045e-05
7.62707e-05
7.62768e-05
7.63107e-05
7.64072e-05
7.65989e-05
7.68992e-05
7.73173e-05
7.799e-05
7.88172e-05
7.96842e-05
8.03559e-05
8.07526e-05
8.06624e-05
7.98172e-05
7.80832e-05
7.5598e-05
7.30818e-05
7.21305e-05
7.46918e-05
7.72011e-05
7.89311e-05
7.97665e-05
7.98247e-05
7.93878e-05
7.86275e-05
7.77137e-05
7.68528e-05
7.61568e-05
7.5724e-05
7.54144e-05
7.52252e-05
7.51368e-05
7.51224e-05
7.51284e-05
7.51667e-05
7.52209e-05
7.52637e-05
7.52942e-05
7.5335e-05
7.53654e-05
7.53879e-05
7.53949e-05
7.53943e-05
7.53866e-05
7.53631e-05
7.53325e-05
7.52928e-05
7.52633e-05
7.52246e-05
7.51741e-05
7.51409e-05
7.51405e-05
7.51585e-05
7.52499e-05
7.54418e-05
7.57525e-05
7.61884e-05
7.68837e-05
7.77474e-05
7.86509e-05
7.94012e-05
7.98293e-05
7.97629e-05
7.89234e-05
7.7183e-05
7.46619e-05
7.20972e-05
7.10929e-05
7.37128e-05
7.62436e-05
7.8015e-05
7.88431e-05
7.88748e-05
7.84043e-05
7.7601e-05
7.66503e-05
7.571e-05
7.49907e-05
7.45438e-05
7.42232e-05
7.40291e-05
7.39371e-05
7.39222e-05
7.39338e-05
7.398e-05
7.40453e-05
7.41006e-05
7.41378e-05
7.41791e-05
7.42101e-05
7.42343e-05
7.42424e-05
7.42418e-05
7.42333e-05
7.42077e-05
7.41765e-05
7.41363e-05
7.41002e-05
7.40493e-05
7.3988e-05
7.39475e-05
7.39412e-05
7.39598e-05
7.4055e-05
7.42517e-05
7.45733e-05
7.50237e-05
7.57423e-05
7.66856e-05
7.76255e-05
7.8418e-05
7.88798e-05
7.88393e-05
7.80078e-05
7.62262e-05
7.36828e-05
7.10569e-05
7.0068e-05
7.27005e-05
7.52983e-05
7.70753e-05
7.78944e-05
7.78973e-05
7.73912e-05
7.6547e-05
7.5554e-05
7.45744e-05
7.38279e-05
7.33301e-05
7.29978e-05
7.2799e-05
7.27038e-05
7.26886e-05
7.27007e-05
7.27473e-05
7.28149e-05
7.28714e-05
7.29141e-05
7.29584e-05
7.29922e-05
7.302e-05
7.30302e-05
7.30296e-05
7.30195e-05
7.29897e-05
7.29558e-05
7.29126e-05
7.28711e-05
7.2819e-05
7.27555e-05
7.27152e-05
7.27086e-05
7.27275e-05
7.28261e-05
7.30275e-05
7.33605e-05
7.38608e-05
7.4608e-05
7.5591e-05
7.65727e-05
7.74052e-05
7.79028e-05
7.78902e-05
7.70684e-05
7.52831e-05
7.26727e-05
7.00302e-05
6.90229e-05
7.16647e-05
7.43301e-05
7.61108e-05
7.68905e-05
7.68908e-05
7.63474e-05
7.54645e-05
7.44236e-05
7.34068e-05
7.2633e-05
7.21224e-05
7.17785e-05
7.15336e-05
7.14357e-05
7.14206e-05
7.1433e-05
7.14803e-05
7.15507e-05
7.16082e-05
7.16534e-05
7.16983e-05
7.17322e-05
7.17617e-05
7.17743e-05
7.17737e-05
7.17622e-05
7.17297e-05
7.16955e-05
7.16519e-05
7.16078e-05
7.1555e-05
7.14886e-05
7.14486e-05
7.14417e-05
7.14605e-05
7.15619e-05
7.18094e-05
7.21537e-05
7.26669e-05
7.3442e-05
7.44621e-05
7.54914e-05
7.63617e-05
7.6897e-05
7.68852e-05
7.61042e-05
7.43179e-05
7.16408e-05
6.89834e-05
6.79569e-05
7.06449e-05
7.33051e-05
7.51206e-05
7.58844e-05
7.5854e-05
7.5252e-05
7.43524e-05
7.32576e-05
7.22063e-05
7.14087e-05
7.08824e-05
7.05097e-05
7.02744e-05
7.01745e-05
7.01174e-05
7.013e-05
7.01779e-05
7.02517e-05
7.03101e-05
7.03582e-05
7.04033e-05
7.04371e-05
7.04668e-05
7.04839e-05
7.04833e-05
7.04687e-05
7.04346e-05
7.04005e-05
7.03565e-05
7.03098e-05
7.02562e-05
7.01863e-05
7.01466e-05
7.01396e-05
7.02005e-05
7.03039e-05
7.05424e-05
7.09147e-05
7.14446e-05
7.2243e-05
7.32977e-05
7.43808e-05
7.52661e-05
7.58613e-05
7.58785e-05
7.51141e-05
7.32973e-05
7.05845e-05
6.79159e-05
6.68573e-05
6.9602e-05
7.22421e-05
7.41035e-05
7.48483e-05
7.47861e-05
7.41427e-05
7.32096e-05
7.20548e-05
7.09718e-05
7.01532e-05
6.96101e-05
6.92242e-05
6.89818e-05
6.886e-05
6.88213e-05
6.88345e-05
6.88833e-05
6.89173e-05
6.89763e-05
6.90274e-05
6.90728e-05
6.91061e-05
6.9133e-05
6.91584e-05
6.91578e-05
6.91353e-05
6.91035e-05
6.90698e-05
6.90258e-05
6.89761e-05
6.89221e-05
6.88918e-05
6.88523e-05
6.88448e-05
6.88879e-05
6.90127e-05
6.92583e-05
6.96435e-05
7.01912e-05
7.10098e-05
7.20963e-05
7.324e-05
7.41572e-05
7.4795e-05
7.4842e-05
7.40973e-05
7.22398e-05
6.95445e-05
6.68183e-05
6.57043e-05
6.85342e-05
7.1192e-05
7.30206e-05
7.37803e-05
7.36856e-05
7.30004e-05
7.20313e-05
7.08178e-05
6.97029e-05
6.88658e-05
6.83051e-05
6.79052e-05
6.76556e-05
6.7532e-05
6.7492e-05
6.75059e-05
6.75525e-05
6.75915e-05
6.7651e-05
6.77054e-05
6.77509e-05
6.77834e-05
6.78039e-05
6.7797e-05
6.77963e-05
6.77988e-05
6.77808e-05
6.77479e-05
6.77038e-05
6.76511e-05
6.75967e-05
6.75649e-05
6.75254e-05
6.75171e-05
6.75616e-05
6.76881e-05
6.79408e-05
6.83402e-05
6.89058e-05
6.97422e-05
7.08605e-05
7.20642e-05
7.30152e-05
7.36969e-05
7.37744e-05
7.30146e-05
7.11513e-05
6.84811e-05
6.56673e-05
6.45545e-05
6.74108e-05
7.01134e-05
7.19426e-05
7.2649e-05
7.25513e-05
7.18238e-05
7.08167e-05
6.95159e-05
6.83782e-05
6.75342e-05
6.69674e-05
6.65522e-05
6.62953e-05
6.61702e-05
6.61289e-05
6.61437e-05
6.61916e-05
6.62328e-05
6.62926e-05
6.63507e-05
6.63962e-05
6.64278e-05
6.6444e-05
6.6444e-05
6.64433e-05
6.64389e-05
6.64252e-05
6.63934e-05
6.63494e-05
6.62934e-05
6.62388e-05
6.62056e-05
6.61656e-05
6.61564e-05
6.62022e-05
6.63299e-05
6.65899e-05
6.70048e-05
6.75766e-05
6.84192e-05
6.95596e-05
7.08526e-05
7.18393e-05
7.25661e-05
7.26451e-05
7.18912e-05
7.00749e-05
6.73765e-05
6.45292e-05
6.48409e-05
6.49007e-05
6.49628e-05
6.50082e-05
6.50389e-05
6.50499e-05
6.50543e-05
6.50536e-05
6.5046e-05
6.50363e-05
6.50063e-05
6.49626e-05
6.49032e-05
6.48485e-05
6.48141e-05
6.47729e-05
6.47625e-05
6.48097e-05
6.49381e-05
6.52053e-05
6.55962e-05
6.61768e-05
6.70818e-05
6.82525e-05
6.96046e-05
7.06283e-05
7.13687e-05
7.15098e-05
7.07796e-05
6.89677e-05
6.62176e-05
6.33643e-05
6.35861e-05
6.35437e-05
6.34808e-05
6.34261e-05
6.33904e-05
6.33399e-05
6.33245e-05
6.33708e-05
6.34994e-05
6.37792e-05
6.41916e-05
6.47867e-05
6.57093e-05
6.69095e-05
6.82975e-05
6.93818e-05
7.01674e-05
7.03401e-05
6.96353e-05
6.78271e-05
6.50727e-05
6.21689e-05
6.43018e-05
6.55307e-05
6.69734e-05
6.80993e-05
6.89309e-05
6.91346e-05
6.84557e-05
6.6653e-05
6.38762e-05
6.09226e-05
)
;

boundaryField
{
    fuel
    {
        type            fixedValue;
        value           nonuniform 0();
    }
    wall
    {
        type            zeroGradient;
    }
    outlet
    {
        type            zeroGradient;
    }
    frontAndBack
    {
        type            empty;
    }
    procBoundary0to1
    {
        type            processor;
        value           nonuniform List<scalar> 
50
(
9.97436e-05
0.000100804
0.00010192
0.000102817
0.000103344
0.000103588
0.000103629
0.000103557
0.000103431
0.000103286
0.000103162
0.00010308
0.000103025
0.000103001
0.000102994
0.000103006
0.000103023
0.000103047
0.000103069
0.00010309
0.000103106
0.00010312
0.000103129
0.000103136
0.000103139
0.000103138
0.000103135
0.000103129
0.00010312
0.000103106
0.00010309
0.000103069
0.000103048
0.000103025
0.000103009
0.000102998
0.000103005
0.000103029
0.000103085
0.000103166
0.000103291
0.000103434
0.000103559
0.000103631
0.000103588
0.000103341
0.000102812
0.000101911
0.000100793
9.97286e-05
)
;
    }
    procBoundary0to2
    {
        type            processor;
        value           nonuniform List<scalar> 
53
(
6.33978e-05
6.62537e-05
6.89912e-05
7.07919e-05
7.15117e-05
7.13486e-05
7.06123e-05
6.95645e-05
6.82077e-05
6.70393e-05
6.61328e-05
6.5557e-05
6.51669e-05
6.49031e-05
6.47773e-05
6.47348e-05
6.47508e-05
6.48005e-05
6.48005e-05
6.34201e-05
6.34794e-05
6.35458e-05
6.35905e-05
6.36204e-05
6.363e-05
6.3637e-05
6.36362e-05
6.3627e-05
6.36178e-05
6.36178e-05
6.21378e-05
6.20899e-05
6.20071e-05
6.19415e-05
6.18953e-05
6.18399e-05
6.18215e-05
6.18682e-05
6.20422e-05
6.233e-05
6.2752e-05
6.33647e-05
6.33647e-05
6.28569e-05
6.4103e-05
6.56114e-05
6.67808e-05
6.76077e-05
6.7874e-05
6.72468e-05
6.54547e-05
6.26491e-05
5.96863e-05
)
;
    }
}


// ************************************************************************* //
