/*--------------------------------*- C++ -*----------------------------------*\
| =========                 |                                                 |
| \\      /  F ield         | OpenFOAM: The Open Source CFD Toolbox           |
|  \\    /   O peration     | Version:  dev                                   |
|   \\  /    A nd           | Web:      www.OpenFOAM.org                      |
|    \\/     M anipulation  |                                                 |
\*---------------------------------------------------------------------------*/
FoamFile
{
    version     2.0;
    format      ascii;
    class       volScalarField;
    location    "0.015";
    object      H;
}
// * * * * * * * * * * * * * * * * * * * * * * * * * * * * * * * * * * * * * //

dimensions      [0 0 0 0 0 0 0];

internalField   nonuniform List<scalar> 
250
(
2.58598e-05
2.49393e-05
2.27796e-05
1.9817e-05
1.60079e-05
1.28661e-05
9.53956e-06
7.00703e-06
4.7008e-06
3.67609e-06
2.52769e-05
2.43069e-05
2.19126e-05
1.88956e-05
1.49387e-05
1.16589e-05
8.49503e-06
6.11144e-06
4.08702e-06
3.11769e-06
2.55949e-06
3.52779e-06
5.27073e-06
7.44644e-06
1.03687e-05
1.37195e-05
1.7821e-05
2.09496e-05
2.34585e-05
2.45247e-05
2.45317e-05
2.34832e-05
2.10054e-05
1.78901e-05
1.38033e-05
1.04508e-05
7.49102e-06
5.28863e-06
3.53338e-06
2.56311e-06
2.0397e-06
3.0112e-06
4.52252e-06
6.46304e-06
9.276e-06
1.25657e-05
1.67339e-05
1.9923e-05
2.25485e-05
2.35604e-05
2.35679e-05
2.25784e-05
1.99799e-05
1.68054e-05
1.26601e-05
9.35673e-06
6.50904e-06
4.54002e-06
3.01664e-06
2.0431e-06
1.58251e-06
2.53377e-06
3.85077e-06
5.58792e-06
8.2193e-06
1.14005e-05
1.55722e-05
1.87767e-05
2.14286e-05
2.25242e-05
2.25315e-05
2.14832e-05
1.88336e-05
1.56454e-05
1.1494e-05
8.29546e-06
5.63139e-06
3.86768e-06
2.53912e-06
1.58581e-06
1.20668e-06
2.09821e-06
3.25434e-06
4.78821e-06
7.1948e-06
1.02336e-05
1.43489e-05
1.75124e-05
2.01607e-05
2.12234e-05
2.12309e-05
2.01577e-05
1.75685e-05
1.44225e-05
1.03246e-05
7.27455e-06
4.8292e-06
3.27044e-06
2.10335e-06
1.20999e-06
9.14691e-07
1.70827e-06
2.73042e-06
4.06677e-06
6.2435e-06
9.08132e-06
1.30739e-05
1.61466e-05
1.87872e-05
1.98575e-05
1.98648e-05
1.88045e-05
1.62013e-05
1.31464e-05
9.16859e-06
6.31645e-06
4.10482e-06
2.74549e-06
1.71311e-06
9.18021e-07
6.91049e-07
1.36749e-06
2.27451e-06
3.42357e-06
5.36008e-06
7.95994e-06
1.17658e-05
1.4698e-05
1.73037e-05
1.83121e-05
1.83196e-05
1.73252e-05
1.47505e-05
1.18356e-05
8.04206e-06
5.42646e-06
3.45828e-06
2.28839e-06
1.37195e-06
6.94155e-07
5.16571e-07
1.07774e-06
1.88076e-06
2.85601e-06
4.55015e-06
6.88524e-06
1.04475e-05
1.31921e-05
1.57226e-05
1.66814e-05
1.66887e-05
1.5744e-05
1.32416e-05
1.05126e-05
6.96096e-06
4.61e-06
2.88716e-06
1.89338e-06
1.08182e-06
5.19158e-07
3.81558e-07
8.38647e-07
1.54271e-06
2.3596e-06
3.8171e-06
5.87205e-06
9.12036e-06
1.16612e-05
1.40739e-05
1.4967e-05
1.49739e-05
1.40938e-05
1.17069e-05
9.18476e-06
5.94043e-06
3.87031e-06
2.38712e-06
1.55404e-06
8.42338e-07
3.83528e-07
2.81688e-07
6.46902e-07
1.25386e-06
1.92866e-06
3.16187e-06
4.9341e-06
7.85251e-06
1.0142e-05
1.23973e-05
1.32129e-05
1.32194e-05
1.24153e-05
1.01832e-05
7.9103e-06
4.99444e-06
3.20836e-06
1.9526e-06
1.26391e-06
6.5022e-07
2.83138e-07
2.11332e-07
4.96811e-07
1.00818e-06
1.55707e-06
2.58328e-06
4.08188e-06
6.64914e-06
8.67286e-06
1.07381e-05
1.14688e-05
1.14747e-05
1.07539e-05
8.70915e-06
6.69971e-06
4.13389e-06
2.62315e-06
1.57755e-06
1.01698e-06
4.9971e-07
2.12423e-07
1.63272e-07
3.81289e-07
8.00394e-07
1.23897e-06
2.07875e-06
3.3225e-06
5.53435e-06
7.29004e-06
9.14186e-06
9.78475e-06
9.79008e-06
9.1554e-06
7.32115e-06
5.57751e-06
3.36623e-06
2.11223e-06
1.25618e-06
8.07974e-07
3.83679e-07
1.64135e-07
8.21046e-06
7.66102e-06
6.04945e-06
4.56299e-06
2.69494e-06
1.67226e-06
9.83399e-07
6.32446e-07
2.96402e-07
1.31555e-07
)
;

boundaryField
{
    fuel
    {
        type            fixedValue;
        value           nonuniform 0();
    }
    wall
    {
        type            zeroGradient;
    }
    outlet
    {
        type            zeroGradient;
    }
    frontAndBack
    {
        type            empty;
    }
    procBoundary0to1
    {
        type            processor;
        value           nonuniform List<scalar> 
21
(
1.30812e-07
2.94561e-07
6.26059e-07
9.69341e-07
1.64487e-06
2.65923e-06
4.52713e-06
6.02345e-06
7.64956e-06
8.20559e-06
8.20559e-06
6.7704e-06
6.3022e-06
4.91464e-06
3.66805e-06
2.11954e-06
1.29933e-06
7.54909e-07
4.86798e-07
2.31346e-07
1.09424e-07
)
;
    }
    procBoundary0to2
    {
        type            processor;
        value           nonuniform List<scalar> 
12
(
2.58536e-05
3.11363e-06
4.08003e-06
6.09253e-06
8.45178e-06
1.15774e-05
1.48394e-05
1.88292e-05
2.18586e-05
2.42847e-05
2.52704e-05
2.52704e-05
)
;
    }
    procBoundary0to3
    {
        type            processor;
        value           nonuniform List<scalar> 10(2.63716e-05 2.55109e-05 2.34747e-05 2.06606e-05 1.70325e-05 1.39812e-05 1.0716e-05 8.01079e-06 5.34607e-06 4.21142e-06);
    }
}


// ************************************************************************* //
