/*--------------------------------*- C++ -*----------------------------------*\
| =========                 |                                                 |
| \\      /  F ield         | OpenFOAM: The Open Source CFD Toolbox           |
|  \\    /   O peration     | Version:  dev                                   |
|   \\  /    A nd           | Web:      www.OpenFOAM.org                      |
|    \\/     M anipulation  |                                                 |
\*---------------------------------------------------------------------------*/
FoamFile
{
    version     2.0;
    format      ascii;
    class       volScalarField;
    location    "0.015";
    object      N2;
}
// * * * * * * * * * * * * * * * * * * * * * * * * * * * * * * * * * * * * * //

dimensions      [0 0 0 0 0 0 0];

internalField   nonuniform List<scalar> 
250
(
0.0215822
0.0227306
0.0264668
0.0296768
0.0346512
0.035746
0.0386524
0.0400111
0.0499665
0.0790813
0.0251766
0.0264333
0.0311637
0.0342493
0.0397811
0.0413379
0.04379
0.0450293
0.0554556
0.0862739
0.0931121
0.060881
0.0503641
0.0495618
0.0478645
0.0459638
0.0396753
0.0362652
0.0311678
0.0295316
0.0294834
0.0310559
0.0360442
0.0394031
0.045655
0.0475953
0.0494969
0.0504823
0.0611927
0.093723
0.100744
0.067016
0.0562778
0.0561382
0.0542563
0.0524791
0.045503
0.0418204
0.0361235
0.0348663
0.0348136
0.0359752
0.041578
0.0451933
0.0520728
0.0539549
0.0560405
0.056402
0.0673561
0.101394
0.108557
0.0735465
0.0626689
0.06307
0.0612798
0.0596762
0.0520337
0.0481159
0.0421515
0.0404403
0.0403844
0.0418563
0.0478484
0.0516827
0.0592236
0.060956
0.0629577
0.0627988
0.0739155
0.109247
0.116511
0.0804611
0.0695574
0.0706562
0.0691149
0.0676318
0.0593273
0.055233
0.0489976
0.0473816
0.0473198
0.0489973
0.0549376
0.0589323
0.067127
0.0686887
0.0705202
0.0696923
0.0808598
0.11724
0.124562
0.0877505
0.0769622
0.0789287
0.0775752
0.0763951
0.0674555
0.0632421
0.05653
0.0547277
0.054661
0.0564022
0.062914
0.0670143
0.0758315
0.0771123
0.0787652
0.0771016
0.0881795
0.125328
0.132667
0.095406
0.0849061
0.0879244
0.0868238
0.0860285
0.0764866
0.0722271
0.0649434
0.0632729
0.0631967
0.0647711
0.0718636
0.0759985
0.0853996
0.0863081
0.0877295
0.0850489
0.0958648
0.133468
0.140782
0.103417
0.093419
0.0976891
0.0969218
0.0966031
0.086491
0.0822769
0.0743951
0.0727254
0.0726415
0.0741988
0.0818756
0.085956
0.0959019
0.09634
0.0974579
0.0935637
0.103904
0.141615
0.148867
0.111764
0.102542
0.10828
0.10793
0.108196
0.0977556
0.0934833
0.0850016
0.0833737
0.0832809
0.0847853
0.0930422
0.0971243
0.107414
0.107272
0.108006
0.102687
0.112276
0.149729
0.156889
0.120444
0.112333
0.119766
0.119916
0.120882
0.110013
0.105939
0.0968692
0.0953189
0.0952163
0.096633
0.105456
0.109324
0.120013
0.119174
0.119443
0.112474
0.120977
0.157774
0.164828
0.129495
0.12287
0.13223
0.132956
0.134742
0.123534
0.119736
0.110102
0.108663
0.108549
0.109845
0.119211
0.122785
0.133778
0.132122
0.131851
0.123002
0.130051
0.165733
0.172681
0.139014
0.134253
0.145767
0.147131
0.149853
0.138407
0.134966
0.124801
0.123505
0.12338
0.124522
0.134396
0.137592
0.148788
0.146197
0.145322
0.13437
0.139602
0.173606
0.139802
0.14076
0.151092
0.153827
0.165119
0.161485
0.159958
0.146692
0.149583
0.181409
)
;

boundaryField
{
    fuel
    {
        type            fixedValue;
        value           nonuniform 0();
    }
    wall
    {
        type            zeroGradient;
    }
    outlet
    {
        type            zeroGradient;
    }
    frontAndBack
    {
        type            empty;
    }
    procBoundary0to1
    {
        type            processor;
        value           nonuniform List<scalar> 
21
(
0.18047
0.148962
0.146598
0.160475
0.162523
0.166283
0.154706
0.151702
0.141055
0.139931
0.139931
0.157889
0.158637
0.169364
0.171561
0.182829
0.178062
0.175867
0.160078
0.160136
0.18922
)
;
    }
    procBoundary0to2
    {
        type            processor;
        value           nonuniform List<scalar> 
12
(
0.0216147
0.0857061
0.0551673
0.0449159
0.043824
0.0415661
0.0401327
0.0344834
0.0313626
0.0265233
0.0252171
0.0252171
)
;
    }
    procBoundary0to3
    {
        type            processor;
        value           nonuniform List<scalar> 10(0.0181315 0.0191649 0.0226326 0.0256274 0.0300565 0.0310891 0.0335883 0.0352012 0.0450031 0.0721769);
    }
}


// ************************************************************************* //
