/*--------------------------------*- C++ -*----------------------------------*\
| =========                 |                                                 |
| \\      /  F ield         | OpenFOAM: The Open Source CFD Toolbox           |
|  \\    /   O peration     | Version:  dev                                   |
|   \\  /    A nd           | Web:      www.OpenFOAM.org                      |
|    \\/     M anipulation  |                                                 |
\*---------------------------------------------------------------------------*/
FoamFile
{
    version     2.0;
    format      ascii;
    class       volScalarField;
    location    "0.015";
    object      p;
}
// * * * * * * * * * * * * * * * * * * * * * * * * * * * * * * * * * * * * * //

dimensions      [1 -1 -2 0 0 0 0];

internalField   nonuniform List<scalar> 
250
(
100022
100020
100018
100017
100015
100015
100012
100014
100009
100003
100022
100020
100018
100017
100015
100015
100012
100014
100009
100002
100008
100025
100035
100032
100033
100031
100029
100027
100026
100023
100022
100020
100018
100017
100015
100015
100012
100013
100008
100002
100008
100024
100034
100032
100033
100031
100029
100027
100026
100023
100022
100020
100018
100017
100015
100015
100012
100013
100008
100002
100008
100023
100033
100032
100032
100031
100029
100027
100026
100024
100022
100020
100018
100016
100015
100015
100012
100013
100008
100002
100007
100023
100033
100032
100032
100031
100029
100027
100026
100024
100022
100020
100018
100016
100015
100015
100012
100013
100008
100002
100007
100022
100032
100032
100032
100031
100029
100027
100026
100024
100022
100020
100018
100016
100015
100014
100012
100012
100007
100002
100007
100022
100031
100032
100032
100031
100029
100027
100026
100024
100022
100020
100018
100016
100015
100014
100012
100012
100007
100002
100007
100021
100031
100032
100032
100031
100029
100027
100026
100024
100022
100020
100018
100016
100015
100014
100012
100012
100007
100002
100006
100021
100030
100031
100032
100031
100029
100027
100026
100024
100022
100020
100018
100016
100015
100014
100012
100012
100007
100002
100006
100020
100030
100031
100032
100031
100029
100027
100026
100024
100022
100020
100018
100016
100015
100014
100012
100012
100007
100002
100006
100020
100029
100031
100032
100031
100029
100027
100026
100024
100022
100020
100018
100016
100015
100014
100012
100012
100007
100002
100006
100019
100029
100031
100031
100030
100029
100027
100025
100024
100022
100020
100018
100016
100015
100014
100012
100011
100007
100002
100022
100020
100018
100016
100015
100014
100012
100011
100007
100002
)
;

boundaryField
{
    fuel
    {
        type            zeroGradient;
    }
    wall
    {
        type            zeroGradient;
    }
    outlet
    {
        type            totalPressure;
        rho             none;
        psi             none;
        gamma           1;
        p0              uniform 100000;
        value           uniform 100000;
    }
    frontAndBack
    {
        type            empty;
    }
    procBoundary0to1
    {
        type            processor;
        value           nonuniform List<scalar> 
21
(
100006
100019
100028
100031
100031
100030
100029
100027
100025
100024
100024
100022
100020
100018
100016
100015
100014
100012
100011
100007
100002
)
;
    }
    procBoundary0to2
    {
        type            processor;
        value           nonuniform List<scalar> 
12
(
100023
100009
100026
100036
100032
100033
100031
100029
100027
100026
100023
100023
)
;
    }
    procBoundary0to3
    {
        type            processor;
        value           nonuniform List<scalar> 10(100021 100020 100018 100017 100015 100015 100012 100014 100009 100003);
    }
}


// ************************************************************************* //
