/*--------------------------------*- C++ -*----------------------------------*\
| =========                 |                                                 |
| \\      /  F ield         | OpenFOAM: The Open Source CFD Toolbox           |
|  \\    /   O peration     | Version:  dev                                   |
|   \\  /    A nd           | Web:      www.OpenFOAM.org                      |
|    \\/     M anipulation  |                                                 |
\*---------------------------------------------------------------------------*/
FoamFile
{
    version     2.0;
    format      ascii;
    class       volVectorField;
    location    "0.015";
    object      U;
}
// * * * * * * * * * * * * * * * * * * * * * * * * * * * * * * * * * * * * * //

dimensions      [0 1 -1 0 0 0 0];

internalField   nonuniform List<vector> 
250
(
(0 0.0402728 0.562644)
(0 -0.319121 0.561618)
(0 -0.237794 0.528438)
(0 -0.624105 0.513664)
(0 -0.574347 0.481334)
(0 -0.972049 0.453142)
(0 -1.00928 0.513885)
(0 -1.35553 0.432702)
(0 -1.37177 0.691619)
(0 -1.67273 0.278366)
(0 0.0385058 0.548326)
(0 -0.322719 0.547285)
(0 -0.243822 0.512388)
(0 -0.629902 0.496882)
(0 -0.579753 0.463027)
(0 -0.977047 0.43231)
(0 -1.0127 0.492484)
(0 -1.3666 0.413146)
(0 -1.37063 0.668492)
(0 -1.66613 0.277415)
(0 1.65278 0.279578)
(0 1.36258 0.645072)
(0 1.37274 0.393263)
(0 1.00969 0.469676)
(0 0.977439 0.409915)
(0 0.579221 0.443042)
(0 0.631708 0.479402)
(0 0.24565 0.49588)
(0 0.323354 0.532609)
(0 -0.0395454 0.533397)
(0 0.0368801 0.533433)
(0 -0.325773 0.532444)
(0 -0.248791 0.495972)
(0 -0.634133 0.479898)
(0 -0.582057 0.444372)
(0 -0.978579 0.411561)
(0 -1.00958 0.470804)
(0 -1.37182 0.393623)
(0 -1.36068 0.644954)
(0 -1.65145 0.278978)
(0 1.63192 0.283559)
(0 1.34451 0.622646)
(0 1.37248 0.373808)
(0 1.00023 0.447929)
(0 0.975641 0.389319)
(0 0.578605 0.424308)
(0 0.634441 0.462267)
(0 0.249642 0.479114)
(0 0.325883 0.517162)
(0 -0.0380955 0.517907)
(0 0.0353847 0.51795)
(0 -0.328331 0.517097)
(0 -0.252809 0.479208)
(0 -0.636902 0.462776)
(0 -0.581543 0.425454)
(0 -0.976893 0.391054)
(0 -1.00025 0.449114)
(0 -1.37163 0.374264)
(0 -1.34259 0.622567)
(0 -1.63058 0.282954)
(0 1.60628 0.289703)
(0 1.31908 0.600962)
(0 1.36731 0.354649)
(0 0.985049 0.426191)
(0 0.970915 0.369125)
(0 0.575563 0.40561)
(0 0.635924 0.445046)
(0 0.252858 0.462003)
(0 0.327999 0.501077)
(0 -0.0367442 0.501828)
(0 0.0340041 0.501883)
(0 -0.330454 0.501213)
(0 -0.256016 0.46209)
(0 -0.638395 0.44557)
(0 -0.578578 0.406766)
(0 -0.972279 0.370965)
(0 -0.985207 0.427458)
(0 -1.36654 0.355199)
(0 -1.31714 0.600923)
(0 -1.60495 0.289099)
(0 1.57723 0.297743)
(0 1.28722 0.579865)
(0 1.3578 0.335911)
(0 0.964858 0.404545)
(0 0.963579 0.349428)
(0 0.570544 0.387037)
(0 0.636368 0.427788)
(0 0.255471 0.444545)
(0 0.329771 0.484678)
(0 -0.0354745 0.485154)
(0 0.0327206 0.485219)
(0 -0.332211 0.484789)
(0 -0.258577 0.444622)
(0 -0.638828 0.428318)
(0 -0.573612 0.388246)
(0 -0.965043 0.351357)
(0 -0.965195 0.405931)
(0 -1.35712 0.336559)
(0 -1.2853 0.579874)
(0 -1.57592 0.297149)
(0 1.54613 0.307356)
(0 1.24998 0.559383)
(0 1.34448 0.317716)
(0 0.940582 0.383193)
(0 0.954116 0.330271)
(0 0.564078 0.36862)
(0 0.636013 0.410518)
(0 0.257642 0.426739)
(0 0.331277 0.46799)
(0 -0.0342357 0.467884)
(0 0.0315085 0.467955)
(0 -0.333677 0.467869)
(0 -0.260678 0.426809)
(0 -0.638438 0.411041)
(0 -0.56717 0.36987)
(0 -0.95568 0.332323)
(0 -0.941102 0.384658)
(0 -1.3439 0.318467)
(0 -1.2481 0.559444)
(0 -1.54488 0.306778)
(0 1.51442 0.318159)
(0 1.20855 0.539539)
(0 1.328 0.30016)
(0 0.91317 0.362094)
(0 0.943131 0.311834)
(0 0.556739 0.350373)
(0 0.635118 0.393236)
(0 0.259578 0.408577)
(0 0.332602 0.450668)
(0 -0.0330022 0.449979)
(0 0.0303387 0.450058)
(0 -0.334936 0.450428)
(0 -0.262517 0.40864)
(0 -0.637482 0.393744)
(0 -0.559824 0.351653)
(0 -0.944785 0.313993)
(0 -0.913878 0.363632)
(0 -1.32754 0.301018)
(0 -1.20674 0.539658)
(0 -1.51324 0.317605)
(0 1.48358 0.329716)
(0 1.16422 0.520339)
(0 1.30909 0.283318)
(0 0.883732 0.341326)
(0 0.931236 0.294153)
(0 0.549129 0.332296)
(0 0.633956 0.375902)
(0 0.261493 0.39004)
(0 0.333833 0.432663)
(0 -0.0317481 0.431402)
(0 0.0291799 0.43149)
(0 -0.336078 0.432393)
(0 -0.264303 0.390098)
(0 -0.636232 0.376395)
(0 -0.55217 0.333596)
(0 -0.932964 0.296395)
(0 -0.884632 0.342932)
(0 -1.30876 0.284286)
(0 -1.16252 0.520519)
(0 -1.48252 0.329194)
(0 1.45519 0.341529)
(0 1.11842 0.50173)
(0 1.28854 0.267238)
(0 0.8535 0.320926)
(0 0.919059 0.277255)
(0 0.541859 0.314375)
(0 0.6328 0.358451)
(0 0.263601 0.3711)
(0 0.335061 0.413988)
(0 -0.0304455 0.41213)
(0 0.0280023 0.412227)
(0 -0.33719 0.41371)
(0 -0.266249 0.371152)
(0 -0.634962 0.358926)
(0 -0.544819 0.315686)
(0 -0.920841 0.279555)
(0 -0.854595 0.322591)
(0 -1.28835 0.268319)
(0 -1.11686 0.501966)
(0 -1.45426 0.341044)
(0 1.43084 0.353049)
(0 1.07269 0.483536)
(0 1.26713 0.251938)
(0 0.823782 0.300892)
(0 0.907235 0.261127)
(0 0.535538 0.29658)
(0 0.631919 0.340836)
(0 0.266104 0.351724)
(0 0.336368 0.394612)
(0 -0.029065 0.392118)
(0 0.0267756 0.392222)
(0 -0.338358 0.39433)
(0 -0.268558 0.351769)
(0 -0.63394 0.341287)
(0 -0.538376 0.29789)
(0 -0.909049 0.263462)
(0 -0.82507 0.302607)
(0 -1.26711 0.25313)
(0 -1.07133 0.483811)
(0 -1.4301 0.352604)
(0 1.41222 0.363679)
(0 1.02867 0.46555)
(0 1.24571 0.237387)
(0 0.795921 0.281204)
(0 0.896385 0.245698)
(0 0.53074 0.27886)
(0 0.631566 0.322999)
(0 0.269194 0.331874)
(0 0.337834 0.374479)
(0 -0.0275778 0.371321)
(0 0.0254698 0.371432)
(0 -0.339661 0.374195)
(0 -0.271424 0.331914)
(0 -0.63342 0.323423)
(0 -0.533417 0.280159)
(0 -0.898208 0.248049)
(0 -0.797398 0.282957)
(0 -1.24587 0.238691)
(0 -1.02755 0.465854)
(0 -1.4117 0.363281)
(0 1.401 0.372807)
(0 0.988063 0.44763)
(0 1.22509 0.223519)
(0 0.771244 0.26181)
(0 0.887095 0.230852)
(0 0.527988 0.261145)
(0 0.631963 0.304839)
(0 0.27304 0.311508)
(0 0.339524 0.35353)
(0 -0.0259579 0.349704)
(0 0.0240569 0.349819)
(0 -0.341167 0.353246)
(0 -0.275017 0.311545)
(0 -0.633627 0.305234)
(0 -0.530465 0.262424)
(0 -0.888902 0.233196)
(0 -0.772901 0.263592)
(0 -1.22545 0.224934)
(0 -0.987264 0.447976)
(0 -1.40075 0.372461)
(0 0.0225113 0.32735)
(0 -0.342928 0.331425)
(0 -0.279483 0.29062)
(0 -0.634745 0.286607)
(0 -0.529969 0.244601)
(0 -0.881656 0.218747)
(0 -0.752826 0.244425)
(0 -1.20666 0.211784)
(0 -0.952228 0.429842)
(0 -1.399 0.379636)
)
;

boundaryField
{
    fuel
    {
        type            fixedValue;
        value           nonuniform 0();
    }
    wall
    {
        type            slip;
    }
    outlet
    {
        type            pressureInletOutletVelocity;
        value           nonuniform List<vector> 
25
(
(0 1.65278 0.279578)
(0 1.63192 0.283559)
(0 1.60628 0.289703)
(0 1.57723 0.297743)
(0 1.54613 0.307356)
(0 1.51442 0.318159)
(0 1.48358 0.329716)
(0 1.45519 0.341529)
(0 1.43084 0.353049)
(0 1.41222 0.363679)
(0 1.401 0.372807)
(0 -1.67273 0.278366)
(0 -1.66613 0.277415)
(0 -1.65145 0.278978)
(0 -1.63058 0.282954)
(0 -1.60495 0.289099)
(0 -1.57592 0.297149)
(0 -1.54488 0.306778)
(0 -1.51324 0.317605)
(0 -1.48252 0.329194)
(0 -1.45426 0.341044)
(0 -1.4301 0.352604)
(0 -1.4117 0.363281)
(0 -1.40075 0.372461)
(0 -1.399 0.379636)
)
;
    }
    frontAndBack
    {
        type            empty;
    }
    procBoundary0to1
    {
        type            processor;
        value           nonuniform List<vector> 
21
(
(0 1.39894 0.379956)
(0 0.952643 0.429439)
(0 1.20607 0.210263)
(0 0.750996 0.242634)
(0 0.879889 0.21643)
(0 0.527727 0.243357)
(0 0.633294 0.286244)
(0 0.277782 0.290585)
(0 0.341488 0.331705)
(0 -0.0241824 0.327232)
(0 -0.0241824 0.327232)
(0 0.0208107 0.304005)
(0 -0.344977 0.308678)
(0 -0.284928 0.269096)
(0 -0.636912 0.267417)
(0 -0.53228 0.226603)
(0 -0.876912 0.204497)
(0 -0.738273 0.225335)
(0 -1.19026 0.199127)
(0 -0.924182 0.410829)
(0 -1.40688 0.383566)
)
;
    }
    procBoundary0to2
    {
        type            processor;
        value           nonuniform List<vector> 
12
(
(0 -0.0427849 0.562623)
(0 1.66744 0.278008)
(0 1.37249 0.668716)
(0 1.36755 0.412876)
(0 1.01292 0.491462)
(0 0.976007 0.43076)
(0 0.577038 0.461727)
(0 0.62755 0.496402)
(0 0.240735 0.5123)
(0 0.320349 0.547452)
(0 -0.0411046 0.548298)
(0 -0.0411046 0.548298)
)
;
    }
    procBoundary0to3
    {
        type            processor;
        value           nonuniform List<vector> 10((0 0.0421831 0.576412) (0 -0.314943 0.575443) (0 -0.230634 0.544069) (0 -0.616631 0.530176) (0 -0.56565 0.499618) (0 -0.963447 0.473902) (0 -0.999092 0.534805) (0 -1.33849 0.452272) (0 -1.36365 0.714249) (0 -1.67075 0.282018));
    }
}


// ************************************************************************* //
