/*--------------------------------*- C++ -*----------------------------------*\
| =========                 |                                                 |
| \\      /  F ield         | OpenFOAM: The Open Source CFD Toolbox           |
|  \\    /   O peration     | Version:  dev                                   |
|   \\  /    A nd           | Web:      www.OpenFOAM.org                      |
|    \\/     M anipulation  |                                                 |
\*---------------------------------------------------------------------------*/
FoamFile
{
    version     2.0;
    format      ascii;
    class       volScalarField;
    location    "0.08";
    object      A1-;
}
// * * * * * * * * * * * * * * * * * * * * * * * * * * * * * * * * * * * * * //

dimensions      [0 0 0 0 0 0 0];

internalField   nonuniform List<scalar> 
25
(
1.68423e-15
9.24955e-16
5.72861e-16
4.29405e-16
4.18567e-16
5.29422e-16
8.0674e-16
1.3667e-15
2.45002e-15
4.46814e-15
8.19396e-15
1.49509e-14
2.69697e-14
4.78959e-14
8.34992e-14
1.42602e-13
2.38207e-13
3.88757e-13
6.19351e-13
9.62699e-13
1.45952e-12
2.17109e-12
3.12648e-12
4.42721e-12
6.10731e-12
)
;

boundaryField
{
    wall
    {
        type            zeroGradient;
    }
    fuel
    {
        type            fixedValue;
        value           nonuniform 0();
    }
    outlet
    {
        type            inletOutlet;
        inletValue      nonuniform 0();
        value           nonuniform 0();
    }
    procBoundary1to0
    {
        type            processor;
        value           uniform 3.30876e-15;
    }
    procBoundary1to2
    {
        type            processor;
        value           uniform 8.18063e-12;
    }
}


// ************************************************************************* //
