/*--------------------------------*- C++ -*----------------------------------*\
| =========                 |                                                 |
| \\      /  F ield         | OpenFOAM: The Open Source CFD Toolbox           |
|  \\    /   O peration     | Version:  dev                                   |
|   \\  /    A nd           | Web:      www.OpenFOAM.org                      |
|    \\/     M anipulation  |                                                 |
\*---------------------------------------------------------------------------*/
FoamFile
{
    version     2.0;
    format      ascii;
    class       volScalarField;
    location    "0.08";
    object      A2C2HA*;
}
// * * * * * * * * * * * * * * * * * * * * * * * * * * * * * * * * * * * * * //

dimensions      [0 0 0 0 0 0 0];

internalField   nonuniform List<scalar> 
2000
(
4.10891e-11
4.10643e-11
4.11019e-11
4.11059e-11
4.11053e-11
4.11051e-11
4.11036e-11
4.1104e-11
4.11031e-11
4.11036e-11
4.11032e-11
4.11036e-11
4.11033e-11
4.11035e-11
4.11033e-11
4.11035e-11
4.11034e-11
4.11035e-11
4.11035e-11
4.11035e-11
4.11035e-11
4.11035e-11
4.11035e-11
4.11035e-11
4.11035e-11
4.11035e-11
4.11035e-11
4.11035e-11
4.11035e-11
4.11035e-11
4.11035e-11
4.11035e-11
4.11035e-11
4.11034e-11
4.11035e-11
4.11033e-11
4.11035e-11
4.11033e-11
4.11036e-11
4.11032e-11
4.11036e-11
4.11031e-11
4.1104e-11
4.11036e-11
4.11051e-11
4.11053e-11
4.11059e-11
4.11019e-11
4.10643e-11
4.10891e-11
1.5277e-10
1.52812e-10
1.52972e-10
1.52996e-10
1.52995e-10
1.52996e-10
1.5299e-10
1.52992e-10
1.52988e-10
1.52991e-10
1.52989e-10
1.52991e-10
1.52989e-10
1.5299e-10
1.52989e-10
1.5299e-10
1.5299e-10
1.5299e-10
1.5299e-10
1.5299e-10
1.5299e-10
1.5299e-10
1.5299e-10
1.5299e-10
1.5299e-10
1.5299e-10
1.5299e-10
1.5299e-10
1.5299e-10
1.5299e-10
1.5299e-10
1.5299e-10
1.5299e-10
1.5299e-10
1.5299e-10
1.52989e-10
1.5299e-10
1.52989e-10
1.52991e-10
1.52989e-10
1.52991e-10
1.52988e-10
1.52992e-10
1.5299e-10
1.52996e-10
1.52995e-10
1.52996e-10
1.52972e-10
1.52812e-10
1.5277e-10
3.33244e-10
3.33384e-10
3.33737e-10
3.33793e-10
3.33774e-10
3.33785e-10
3.33762e-10
3.33775e-10
3.3376e-10
3.33771e-10
3.33762e-10
3.33769e-10
3.33763e-10
3.33768e-10
3.33764e-10
3.33768e-10
3.33765e-10
3.33768e-10
3.33766e-10
3.33767e-10
3.33766e-10
3.33767e-10
3.33767e-10
3.33767e-10
3.33767e-10
3.33767e-10
3.33767e-10
3.33767e-10
3.33767e-10
3.33766e-10
3.33767e-10
3.33766e-10
3.33768e-10
3.33765e-10
3.33768e-10
3.33764e-10
3.33768e-10
3.33763e-10
3.33769e-10
3.33762e-10
3.33771e-10
3.3376e-10
3.33775e-10
3.33763e-10
3.33785e-10
3.33774e-10
3.33793e-10
3.33737e-10
3.33384e-10
3.33244e-10
5.12773e-10
5.12913e-10
5.13341e-10
5.1336e-10
5.13289e-10
5.13307e-10
5.13259e-10
5.13285e-10
5.13256e-10
5.13277e-10
5.13259e-10
5.13274e-10
5.13263e-10
5.13272e-10
5.13265e-10
5.13272e-10
5.13266e-10
5.13271e-10
5.13268e-10
5.13271e-10
5.13269e-10
5.1327e-10
5.13269e-10
5.1327e-10
5.1327e-10
5.1327e-10
5.1327e-10
5.13269e-10
5.1327e-10
5.13269e-10
5.13271e-10
5.13268e-10
5.13271e-10
5.13266e-10
5.13272e-10
5.13265e-10
5.13273e-10
5.13263e-10
5.13274e-10
5.13259e-10
5.13277e-10
5.13256e-10
5.13285e-10
5.13259e-10
5.13307e-10
5.13289e-10
5.1336e-10
5.13341e-10
5.12913e-10
5.12773e-10
5.87006e-10
5.86978e-10
5.87301e-10
5.87205e-10
5.87072e-10
5.87081e-10
5.87016e-10
5.87048e-10
5.87011e-10
5.87039e-10
5.87016e-10
5.87036e-10
5.87021e-10
5.87034e-10
5.87024e-10
5.87033e-10
5.87026e-10
5.87032e-10
5.87028e-10
5.87032e-10
5.87029e-10
5.87031e-10
5.8703e-10
5.87031e-10
5.8703e-10
5.8703e-10
5.87031e-10
5.8703e-10
5.87031e-10
5.87029e-10
5.87032e-10
5.87028e-10
5.87032e-10
5.87026e-10
5.87033e-10
5.87024e-10
5.87034e-10
5.87021e-10
5.87036e-10
5.87016e-10
5.87039e-10
5.87011e-10
5.87048e-10
5.87016e-10
5.87081e-10
5.87072e-10
5.87205e-10
5.87301e-10
5.86978e-10
5.87006e-10
5.61449e-10
5.61303e-10
5.61565e-10
5.61396e-10
5.6123e-10
5.61232e-10
5.61158e-10
5.61193e-10
5.61152e-10
5.61182e-10
5.61158e-10
5.61179e-10
5.61163e-10
5.61177e-10
5.61167e-10
5.61176e-10
5.61169e-10
5.61175e-10
5.61171e-10
5.61175e-10
5.61172e-10
5.61174e-10
5.61173e-10
5.61174e-10
5.61173e-10
5.61173e-10
5.61174e-10
5.61173e-10
5.61174e-10
5.61172e-10
5.61175e-10
5.61171e-10
5.61175e-10
5.61169e-10
5.61176e-10
5.61167e-10
5.61177e-10
5.61163e-10
5.61179e-10
5.61158e-10
5.61182e-10
5.61152e-10
5.61193e-10
5.61158e-10
5.61232e-10
5.6123e-10
5.61396e-10
5.61565e-10
5.61303e-10
5.61449e-10
4.8784e-10
4.87687e-10
4.8798e-10
4.87812e-10
4.87641e-10
4.87646e-10
4.87568e-10
4.87605e-10
4.87561e-10
4.87594e-10
4.87567e-10
4.8759e-10
4.87573e-10
4.87588e-10
4.87577e-10
4.87587e-10
4.87579e-10
4.87586e-10
4.87581e-10
4.87585e-10
4.87582e-10
4.87584e-10
4.87583e-10
4.87584e-10
4.87583e-10
4.87583e-10
4.87584e-10
4.87583e-10
4.87585e-10
4.87582e-10
4.87585e-10
4.87581e-10
4.87586e-10
4.87579e-10
4.87587e-10
4.87577e-10
4.87588e-10
4.87573e-10
4.8759e-10
4.87567e-10
4.87594e-10
4.87561e-10
4.87605e-10
4.87568e-10
4.87646e-10
4.87641e-10
4.87812e-10
4.87981e-10
4.87687e-10
4.8784e-10
4.03853e-10
4.03761e-10
4.04133e-10
4.04007e-10
4.0385e-10
4.03862e-10
4.03784e-10
4.03823e-10
4.03778e-10
4.03812e-10
4.03784e-10
4.03807e-10
4.03789e-10
4.03805e-10
4.03793e-10
4.03804e-10
4.03795e-10
4.03803e-10
4.03797e-10
4.03802e-10
4.03798e-10
4.03801e-10
4.03799e-10
4.03801e-10
4.038e-10
4.038e-10
4.03801e-10
4.03799e-10
4.03801e-10
4.03798e-10
4.03802e-10
4.03797e-10
4.03803e-10
4.03795e-10
4.03804e-10
4.03793e-10
4.03805e-10
4.03789e-10
4.03807e-10
4.03784e-10
4.03812e-10
4.03778e-10
4.03823e-10
4.03784e-10
4.03862e-10
4.0385e-10
4.04007e-10
4.04133e-10
4.03761e-10
4.03853e-10
3.2709e-10
3.27083e-10
3.27532e-10
3.27463e-10
3.2733e-10
3.27349e-10
3.27274e-10
3.27314e-10
3.27268e-10
3.27302e-10
3.27274e-10
3.27297e-10
3.27279e-10
3.27294e-10
3.27282e-10
3.27293e-10
3.27284e-10
3.27292e-10
3.27286e-10
3.27291e-10
3.27288e-10
3.2729e-10
3.27288e-10
3.2729e-10
3.27289e-10
3.27289e-10
3.2729e-10
3.27288e-10
3.2729e-10
3.27288e-10
3.27291e-10
3.27286e-10
3.27292e-10
3.27285e-10
3.27293e-10
3.27282e-10
3.27294e-10
3.27279e-10
3.27297e-10
3.27274e-10
3.27302e-10
3.27268e-10
3.27314e-10
3.27274e-10
3.27349e-10
3.2733e-10
3.27463e-10
3.27532e-10
3.27083e-10
3.2709e-10
2.63346e-10
2.63422e-10
2.6393e-10
2.63917e-10
2.63807e-10
2.63834e-10
2.63763e-10
2.63802e-10
2.63758e-10
2.6379e-10
2.63763e-10
2.63785e-10
2.63768e-10
2.63782e-10
2.63771e-10
2.63781e-10
2.63772e-10
2.6378e-10
2.63774e-10
2.63779e-10
2.63775e-10
2.63778e-10
2.63776e-10
2.63777e-10
2.63777e-10
2.63777e-10
2.63777e-10
2.63776e-10
2.63778e-10
2.63775e-10
2.63779e-10
2.63774e-10
2.6378e-10
2.63773e-10
2.63781e-10
2.63771e-10
2.63782e-10
2.63768e-10
2.63785e-10
2.63763e-10
2.6379e-10
2.63758e-10
2.63802e-10
2.63763e-10
2.63834e-10
2.63807e-10
2.63917e-10
2.6393e-10
2.63422e-10
2.63347e-10
2.12678e-10
2.12824e-10
2.13369e-10
2.13404e-10
2.13316e-10
2.13348e-10
2.13281e-10
2.1332e-10
2.13277e-10
2.13308e-10
2.13281e-10
2.13303e-10
2.13286e-10
2.133e-10
2.13289e-10
2.13299e-10
2.1329e-10
2.13297e-10
2.13292e-10
2.13296e-10
2.13293e-10
2.13296e-10
2.13294e-10
2.13295e-10
2.13295e-10
2.13295e-10
2.13295e-10
2.13294e-10
2.13296e-10
2.13293e-10
2.13296e-10
2.13292e-10
2.13297e-10
2.1329e-10
2.13299e-10
2.13289e-10
2.133e-10
2.13286e-10
2.13303e-10
2.13282e-10
2.13308e-10
2.13277e-10
2.1332e-10
2.13281e-10
2.13348e-10
2.13316e-10
2.13404e-10
2.13369e-10
2.12824e-10
2.12678e-10
1.7163e-10
1.71813e-10
1.72338e-10
1.724e-10
1.72332e-10
1.72364e-10
1.72305e-10
1.72339e-10
1.723e-10
1.72328e-10
1.72304e-10
1.72324e-10
1.72308e-10
1.72321e-10
1.72311e-10
1.72319e-10
1.72312e-10
1.72318e-10
1.72314e-10
1.72318e-10
1.72315e-10
1.72317e-10
1.72315e-10
1.72316e-10
1.72316e-10
1.72316e-10
1.72316e-10
1.72315e-10
1.72317e-10
1.72315e-10
1.72318e-10
1.72314e-10
1.72318e-10
1.72312e-10
1.72319e-10
1.72311e-10
1.72321e-10
1.72308e-10
1.72324e-10
1.72304e-10
1.72328e-10
1.723e-10
1.72339e-10
1.72305e-10
1.72364e-10
1.72332e-10
1.724e-10
1.72338e-10
1.71813e-10
1.7163e-10
1.41004e-10
1.41231e-10
1.4176e-10
1.41848e-10
1.41796e-10
1.4183e-10
1.41775e-10
1.41808e-10
1.41771e-10
1.41797e-10
1.41774e-10
1.41793e-10
1.41778e-10
1.4179e-10
1.4178e-10
1.41788e-10
1.41781e-10
1.41787e-10
1.41783e-10
1.41786e-10
1.41784e-10
1.41786e-10
1.41784e-10
1.41785e-10
1.41785e-10
1.41785e-10
1.41785e-10
1.41784e-10
1.41786e-10
1.41784e-10
1.41786e-10
1.41783e-10
1.41787e-10
1.41781e-10
1.41788e-10
1.4178e-10
1.4179e-10
1.41778e-10
1.41793e-10
1.41774e-10
1.41797e-10
1.41771e-10
1.41808e-10
1.41775e-10
1.4183e-10
1.41795e-10
1.41848e-10
1.4176e-10
1.41231e-10
1.41004e-10
1.17118e-10
1.17275e-10
1.17707e-10
1.17788e-10
1.17762e-10
1.17788e-10
1.17748e-10
1.17772e-10
1.17744e-10
1.17764e-10
1.17746e-10
1.1776e-10
1.17749e-10
1.17757e-10
1.1775e-10
1.17756e-10
1.17751e-10
1.17755e-10
1.17752e-10
1.17755e-10
1.17753e-10
1.17754e-10
1.17753e-10
1.17754e-10
1.17753e-10
1.17753e-10
1.17754e-10
1.17753e-10
1.17754e-10
1.17753e-10
1.17755e-10
1.17752e-10
1.17755e-10
1.17751e-10
1.17756e-10
1.1775e-10
1.17757e-10
1.17749e-10
1.1776e-10
1.17746e-10
1.17764e-10
1.17744e-10
1.17772e-10
1.17748e-10
1.17788e-10
1.17762e-10
1.17788e-10
1.17707e-10
1.17275e-10
1.17118e-10
9.789e-11
9.80575e-11
9.84537e-11
9.85406e-11
9.85235e-11
9.85484e-11
9.85134e-11
9.85344e-11
9.85097e-11
9.85265e-11
9.85113e-11
9.85231e-11
9.85132e-11
9.85208e-11
9.85144e-11
9.85198e-11
9.85151e-11
9.85191e-11
9.85162e-11
9.85185e-11
9.85166e-11
9.8518e-11
9.8517e-11
9.85177e-11
9.85173e-11
9.85173e-11
9.85177e-11
9.8517e-11
9.8518e-11
9.85166e-11
9.85185e-11
9.85162e-11
9.85191e-11
9.85152e-11
9.85198e-11
9.85144e-11
9.85209e-11
9.85132e-11
9.85231e-11
9.85114e-11
9.85265e-11
9.85097e-11
9.85344e-11
9.85135e-11
9.85483e-11
9.85235e-11
9.85406e-11
9.84537e-11
9.80575e-11
9.78901e-11
8.33139e-11
8.3494e-11
8.38674e-11
8.39602e-11
8.39505e-11
8.39748e-11
8.39435e-11
8.39626e-11
8.394e-11
8.39551e-11
8.39413e-11
8.39519e-11
8.39428e-11
8.39497e-11
8.39439e-11
8.39487e-11
8.39445e-11
8.39481e-11
8.39454e-11
8.39475e-11
8.39458e-11
8.39471e-11
8.39461e-11
8.39468e-11
8.39465e-11
8.39465e-11
8.39468e-11
8.39461e-11
8.39471e-11
8.39459e-11
8.39475e-11
8.39454e-11
8.39481e-11
8.39445e-11
8.39488e-11
8.39439e-11
8.39498e-11
8.39428e-11
8.39518e-11
8.39413e-11
8.39551e-11
8.39399e-11
8.39626e-11
8.39435e-11
8.39748e-11
8.39505e-11
8.39602e-11
8.38674e-11
8.3494e-11
8.3314e-11
7.1328e-11
7.15333e-11
7.19021e-11
7.20114e-11
7.20125e-11
7.20385e-11
7.20102e-11
7.20278e-11
7.20066e-11
7.20204e-11
7.20074e-11
7.2017e-11
7.20085e-11
7.20149e-11
7.20094e-11
7.20138e-11
7.20098e-11
7.20132e-11
7.20107e-11
7.20127e-11
7.20111e-11
7.20122e-11
7.20113e-11
7.20119e-11
7.20116e-11
7.20116e-11
7.20119e-11
7.20113e-11
7.20122e-11
7.20111e-11
7.20127e-11
7.20107e-11
7.20132e-11
7.20099e-11
7.20139e-11
7.20093e-11
7.20149e-11
7.20085e-11
7.2017e-11
7.20074e-11
7.20204e-11
7.20066e-11
7.20278e-11
7.20102e-11
7.20384e-11
7.20124e-11
7.20114e-11
7.19021e-11
7.15333e-11
7.1328e-11
6.20101e-11
6.22197e-11
6.25627e-11
6.26719e-11
6.26777e-11
6.27025e-11
6.26773e-11
6.26931e-11
6.26738e-11
6.26861e-11
6.26743e-11
6.26829e-11
6.26752e-11
6.26809e-11
6.26759e-11
6.26799e-11
6.26763e-11
6.26793e-11
6.26771e-11
6.26788e-11
6.26774e-11
6.26784e-11
6.26776e-11
6.26781e-11
6.26779e-11
6.26779e-11
6.26781e-11
6.26776e-11
6.26784e-11
6.26774e-11
6.26788e-11
6.2677e-11
6.26793e-11
6.26763e-11
6.26799e-11
6.26759e-11
6.26809e-11
6.26752e-11
6.26829e-11
6.26743e-11
6.26861e-11
6.26738e-11
6.26931e-11
6.26773e-11
6.27024e-11
6.26777e-11
6.26719e-11
6.25627e-11
6.22197e-11
6.20101e-11
5.41529e-11
5.4382e-11
5.47215e-11
5.48394e-11
5.48475e-11
5.48735e-11
5.48487e-11
5.48645e-11
5.48454e-11
5.48575e-11
5.48458e-11
5.48544e-11
5.48467e-11
5.48524e-11
5.48474e-11
5.48514e-11
5.48478e-11
5.48508e-11
5.48485e-11
5.48503e-11
5.48489e-11
5.48499e-11
5.48491e-11
5.48496e-11
5.48494e-11
5.48494e-11
5.48496e-11
5.48491e-11
5.48499e-11
5.48489e-11
5.48503e-11
5.48485e-11
5.48508e-11
5.48478e-11
5.48514e-11
5.48474e-11
5.48524e-11
5.48467e-11
5.48544e-11
5.48459e-11
5.48576e-11
5.48453e-11
5.48645e-11
5.48487e-11
5.48735e-11
5.48475e-11
5.48394e-11
5.47215e-11
5.4382e-11
5.41529e-11
4.76771e-11
4.79052e-11
4.82143e-11
4.83271e-11
4.83377e-11
4.83617e-11
4.83397e-11
4.83536e-11
4.83365e-11
4.83472e-11
4.83367e-11
4.83442e-11
4.83374e-11
4.83424e-11
4.83379e-11
4.83415e-11
4.83383e-11
4.83409e-11
4.83389e-11
4.83405e-11
4.83392e-11
4.83401e-11
4.83394e-11
4.83399e-11
4.83396e-11
4.83397e-11
4.83399e-11
4.83394e-11
4.83401e-11
4.83392e-11
4.83405e-11
4.83389e-11
4.83409e-11
4.83383e-11
4.83415e-11
4.83379e-11
4.83424e-11
4.83374e-11
4.83442e-11
4.83367e-11
4.83472e-11
4.83364e-11
4.83536e-11
4.83397e-11
4.83617e-11
4.83377e-11
4.83271e-11
4.82143e-11
4.79052e-11
4.76771e-11
4.24831e-11
4.27153e-11
4.30026e-11
4.31124e-11
4.31249e-11
4.31478e-11
4.31277e-11
4.31404e-11
4.31246e-11
4.31343e-11
4.31247e-11
4.31315e-11
4.31252e-11
4.31297e-11
4.31257e-11
4.31289e-11
4.31259e-11
4.31284e-11
4.31265e-11
4.3128e-11
4.31268e-11
4.31276e-11
4.31269e-11
4.31274e-11
4.31272e-11
4.31272e-11
4.31274e-11
4.3127e-11
4.31277e-11
4.31268e-11
4.3128e-11
4.31265e-11
4.31284e-11
4.3126e-11
4.31289e-11
4.31256e-11
4.31298e-11
4.31252e-11
4.31315e-11
4.31247e-11
4.31343e-11
4.31246e-11
4.31404e-11
4.31277e-11
4.31477e-11
4.31249e-11
4.31124e-11
4.30026e-11
4.27153e-11
4.24831e-11
3.8119e-11
3.8357e-11
3.8625e-11
3.87313e-11
3.87452e-11
3.87669e-11
3.87486e-11
3.87602e-11
3.87455e-11
3.87544e-11
3.87455e-11
3.87517e-11
3.87459e-11
3.875e-11
3.87463e-11
3.87492e-11
3.87465e-11
3.87488e-11
3.87471e-11
3.87484e-11
3.87473e-11
3.87481e-11
3.87474e-11
3.87479e-11
3.87477e-11
3.87477e-11
3.87478e-11
3.87474e-11
3.87481e-11
3.87473e-11
3.87484e-11
3.87471e-11
3.87488e-11
3.87465e-11
3.87493e-11
3.87463e-11
3.87501e-11
3.87459e-11
3.87517e-11
3.87455e-11
3.87544e-11
3.87455e-11
3.87602e-11
3.87486e-11
3.87669e-11
3.87452e-11
3.87313e-11
3.86249e-11
3.8357e-11
3.81191e-11
3.44187e-11
3.4556e-11
3.47927e-11
3.48917e-11
3.49091e-11
3.49294e-11
3.4914e-11
3.49237e-11
3.49108e-11
3.4918e-11
3.49102e-11
3.49153e-11
3.49102e-11
3.49136e-11
3.49103e-11
3.49128e-11
3.49104e-11
3.49124e-11
3.49109e-11
3.4912e-11
3.4911e-11
3.49117e-11
3.49111e-11
3.49115e-11
3.49113e-11
3.49113e-11
3.49115e-11
3.49111e-11
3.49117e-11
3.4911e-11
3.4912e-11
3.49109e-11
3.49123e-11
3.49105e-11
3.49128e-11
3.49103e-11
3.49137e-11
3.49102e-11
3.49153e-11
3.49102e-11
3.4918e-11
3.49108e-11
3.49237e-11
3.4914e-11
3.49293e-11
3.49091e-11
3.48917e-11
3.47927e-11
3.4556e-11
3.44187e-11
3.1256e-11
3.13944e-11
3.16146e-11
3.17097e-11
3.17277e-11
3.1747e-11
3.17329e-11
3.17417e-11
3.17298e-11
3.17363e-11
3.17291e-11
3.17337e-11
3.1729e-11
3.17321e-11
3.1729e-11
3.17313e-11
3.17291e-11
3.17309e-11
3.17295e-11
3.17306e-11
3.17297e-11
3.17303e-11
3.17297e-11
3.17301e-11
3.17299e-11
3.17299e-11
3.17301e-11
3.17298e-11
3.17303e-11
3.17297e-11
3.17306e-11
3.17295e-11
3.17309e-11
3.17291e-11
3.17313e-11
3.1729e-11
3.17321e-11
3.1729e-11
3.17337e-11
3.17291e-11
3.17363e-11
3.17297e-11
3.17417e-11
3.17329e-11
3.17469e-11
3.17276e-11
3.17097e-11
3.16146e-11
3.13944e-11
3.1256e-11
2.84277e-11
2.8568e-11
2.87779e-11
2.88723e-11
2.88917e-11
2.89107e-11
2.88976e-11
2.89058e-11
2.88944e-11
2.89004e-11
2.88935e-11
2.88978e-11
2.88934e-11
2.88962e-11
2.88933e-11
2.88955e-11
2.88934e-11
2.8895e-11
2.88937e-11
2.88947e-11
2.88939e-11
2.88944e-11
2.88939e-11
2.88943e-11
2.88941e-11
2.88941e-11
2.88943e-11
2.8894e-11
2.88944e-11
2.88939e-11
2.88947e-11
2.88937e-11
2.8895e-11
2.88934e-11
2.88955e-11
2.88933e-11
2.88963e-11
2.88934e-11
2.88978e-11
2.88936e-11
2.89004e-11
2.88944e-11
2.89058e-11
2.88976e-11
2.89107e-11
2.88917e-11
2.88723e-11
2.87778e-11
2.8568e-11
2.84277e-11
2.597e-11
2.61078e-11
2.63016e-11
2.63911e-11
2.64105e-11
2.64284e-11
2.64164e-11
2.64238e-11
2.64133e-11
2.64187e-11
2.64123e-11
2.64162e-11
2.64121e-11
2.64147e-11
2.6412e-11
2.64139e-11
2.6412e-11
2.64135e-11
2.64123e-11
2.64132e-11
2.64125e-11
2.6413e-11
2.64125e-11
2.64128e-11
2.64127e-11
2.64127e-11
2.64128e-11
2.64125e-11
2.6413e-11
2.64125e-11
2.64132e-11
2.64123e-11
2.64135e-11
2.6412e-11
2.64139e-11
2.6412e-11
2.64147e-11
2.64121e-11
2.64162e-11
2.64124e-11
2.64187e-11
2.64133e-11
2.64238e-11
2.64164e-11
2.64284e-11
2.64105e-11
2.63911e-11
2.63015e-11
2.61078e-11
2.59701e-11
2.38197e-11
2.39548e-11
2.41338e-11
2.42185e-11
2.42378e-11
2.42547e-11
2.42437e-11
2.42503e-11
2.42407e-11
2.42455e-11
2.42396e-11
2.42431e-11
2.42393e-11
2.42416e-11
2.42392e-11
2.42409e-11
2.42392e-11
2.42405e-11
2.42394e-11
2.42402e-11
2.42395e-11
2.424e-11
2.42396e-11
2.42398e-11
2.42397e-11
2.42397e-11
2.42398e-11
2.42396e-11
2.424e-11
2.42395e-11
2.42402e-11
2.42394e-11
2.42405e-11
2.42392e-11
2.42409e-11
2.42392e-11
2.42416e-11
2.42393e-11
2.42431e-11
2.42396e-11
2.42455e-11
2.42407e-11
2.42503e-11
2.42437e-11
2.42546e-11
2.42378e-11
2.42185e-11
2.41337e-11
2.39548e-11
2.38197e-11
2.1927e-11
2.20587e-11
2.22245e-11
2.23046e-11
2.23236e-11
2.23395e-11
2.23294e-11
2.23354e-11
2.23265e-11
2.23307e-11
2.23253e-11
2.23284e-11
2.23249e-11
2.2327e-11
2.23248e-11
2.23263e-11
2.23247e-11
2.2326e-11
2.2325e-11
2.23257e-11
2.2325e-11
2.23255e-11
2.23251e-11
2.23253e-11
2.23252e-11
2.23252e-11
2.23253e-11
2.23251e-11
2.23255e-11
2.23251e-11
2.23257e-11
2.2325e-11
2.2326e-11
2.23247e-11
2.23263e-11
2.23248e-11
2.2327e-11
2.23249e-11
2.23284e-11
2.23253e-11
2.23307e-11
2.23265e-11
2.23354e-11
2.23294e-11
2.23394e-11
2.23235e-11
2.23045e-11
2.22244e-11
2.20587e-11
2.1927e-11
2.02517e-11
2.03795e-11
2.05336e-11
2.06091e-11
2.06277e-11
2.06427e-11
2.06335e-11
2.06389e-11
2.06306e-11
2.06344e-11
2.06294e-11
2.06321e-11
2.06289e-11
2.06308e-11
2.06287e-11
2.06302e-11
2.06287e-11
2.06298e-11
2.06289e-11
2.06296e-11
2.0629e-11
2.06294e-11
2.0629e-11
2.06292e-11
2.06291e-11
2.06291e-11
2.06292e-11
2.0629e-11
2.06294e-11
2.0629e-11
2.06296e-11
2.06289e-11
2.06298e-11
2.06287e-11
2.06302e-11
2.06287e-11
2.06308e-11
2.06289e-11
2.06321e-11
2.06294e-11
2.06344e-11
2.06306e-11
2.06389e-11
2.06335e-11
2.06427e-11
2.06277e-11
2.06091e-11
2.05336e-11
2.03796e-11
2.02517e-11
1.87616e-11
1.88853e-11
1.90287e-11
1.90998e-11
1.9118e-11
1.91321e-11
1.91236e-11
1.91284e-11
1.91207e-11
1.91241e-11
1.91195e-11
1.91219e-11
1.91189e-11
1.91206e-11
1.91187e-11
1.912e-11
1.91186e-11
1.91197e-11
1.91188e-11
1.91195e-11
1.91189e-11
1.91193e-11
1.91189e-11
1.91191e-11
1.9119e-11
1.9119e-11
1.91191e-11
1.91189e-11
1.91193e-11
1.91189e-11
1.91195e-11
1.91188e-11
1.91197e-11
1.91187e-11
1.912e-11
1.91187e-11
1.91207e-11
1.91189e-11
1.91219e-11
1.91195e-11
1.91241e-11
1.91207e-11
1.91284e-11
1.91236e-11
1.91321e-11
1.9118e-11
1.90998e-11
1.90287e-11
1.88853e-11
1.87616e-11
1.74302e-11
1.75496e-11
1.76834e-11
1.77502e-11
1.77678e-11
1.77812e-11
1.77733e-11
1.77777e-11
1.77705e-11
1.77735e-11
1.77692e-11
1.77714e-11
1.77686e-11
1.77701e-11
1.77683e-11
1.77695e-11
1.77683e-11
1.77692e-11
1.77684e-11
1.7769e-11
1.77685e-11
1.77688e-11
1.77685e-11
1.77687e-11
1.77686e-11
1.77686e-11
1.77687e-11
1.77685e-11
1.77688e-11
1.77685e-11
1.7769e-11
1.77684e-11
1.77692e-11
1.77683e-11
1.77695e-11
1.77683e-11
1.77701e-11
1.77686e-11
1.77714e-11
1.77692e-11
1.77735e-11
1.77705e-11
1.77777e-11
1.77733e-11
1.77811e-11
1.77678e-11
1.77502e-11
1.76833e-11
1.75496e-11
1.74302e-11
1.6236e-11
1.63509e-11
1.64757e-11
1.65386e-11
1.65556e-11
1.65682e-11
1.65609e-11
1.65648e-11
1.65581e-11
1.65608e-11
1.65568e-11
1.65587e-11
1.65561e-11
1.65575e-11
1.65559e-11
1.65569e-11
1.65558e-11
1.65566e-11
1.65559e-11
1.65564e-11
1.65559e-11
1.65562e-11
1.6556e-11
1.65561e-11
1.65561e-11
1.65561e-11
1.65561e-11
1.6556e-11
1.65563e-11
1.65559e-11
1.65564e-11
1.65559e-11
1.65566e-11
1.65558e-11
1.65569e-11
1.65559e-11
1.65575e-11
1.65561e-11
1.65587e-11
1.65568e-11
1.65608e-11
1.65581e-11
1.65648e-11
1.65609e-11
1.65682e-11
1.65556e-11
1.65386e-11
1.64757e-11
1.63509e-11
1.6236e-11
1.51608e-11
1.52711e-11
1.53878e-11
1.54469e-11
1.54633e-11
1.54751e-11
1.54684e-11
1.54719e-11
1.54656e-11
1.5468e-11
1.54642e-11
1.5466e-11
1.54635e-11
1.54648e-11
1.54632e-11
1.54642e-11
1.54631e-11
1.54639e-11
1.54632e-11
1.54637e-11
1.54633e-11
1.54636e-11
1.54633e-11
1.54635e-11
1.54634e-11
1.54634e-11
1.54635e-11
1.54633e-11
1.54636e-11
1.54633e-11
1.54637e-11
1.54632e-11
1.54639e-11
1.54631e-11
1.54642e-11
1.54633e-11
1.54648e-11
1.54635e-11
1.5466e-11
1.54642e-11
1.5468e-11
1.54656e-11
1.54719e-11
1.54684e-11
1.54751e-11
1.54633e-11
1.54469e-11
1.53878e-11
1.52711e-11
1.51608e-11
1.41895e-11
1.42953e-11
1.44044e-11
1.446e-11
1.44757e-11
1.44868e-11
1.44805e-11
1.44837e-11
1.44778e-11
1.44799e-11
1.44764e-11
1.44779e-11
1.44757e-11
1.44768e-11
1.44754e-11
1.44763e-11
1.44752e-11
1.4476e-11
1.44753e-11
1.44758e-11
1.44754e-11
1.44756e-11
1.44754e-11
1.44755e-11
1.44755e-11
1.44755e-11
1.44755e-11
1.44754e-11
1.44756e-11
1.44754e-11
1.44758e-11
1.44753e-11
1.4476e-11
1.44753e-11
1.44763e-11
1.44754e-11
1.44768e-11
1.44757e-11
1.44779e-11
1.44764e-11
1.44799e-11
1.44778e-11
1.44837e-11
1.44805e-11
1.44868e-11
1.44757e-11
1.446e-11
1.44044e-11
1.42953e-11
1.41895e-11
1.33095e-11
1.34107e-11
1.35128e-11
1.3565e-11
1.35801e-11
1.35906e-11
1.35847e-11
1.35875e-11
1.3582e-11
1.35838e-11
1.35805e-11
1.35819e-11
1.35798e-11
1.35808e-11
1.35795e-11
1.35803e-11
1.35793e-11
1.358e-11
1.35794e-11
1.35798e-11
1.35794e-11
1.35797e-11
1.35794e-11
1.35796e-11
1.35795e-11
1.35795e-11
1.35796e-11
1.35794e-11
1.35797e-11
1.35794e-11
1.35798e-11
1.35794e-11
1.358e-11
1.35793e-11
1.35803e-11
1.35795e-11
1.35808e-11
1.35798e-11
1.35819e-11
1.35805e-11
1.35838e-11
1.3582e-11
1.35875e-11
1.35847e-11
1.35905e-11
1.35801e-11
1.3565e-11
1.35128e-11
1.34107e-11
1.33095e-11
1.25099e-11
1.26065e-11
1.27021e-11
1.27512e-11
1.27656e-11
1.27754e-11
1.27699e-11
1.27724e-11
1.27673e-11
1.27689e-11
1.27658e-11
1.2767e-11
1.2765e-11
1.27659e-11
1.27647e-11
1.27654e-11
1.27645e-11
1.27651e-11
1.27646e-11
1.2765e-11
1.27646e-11
1.27648e-11
1.27646e-11
1.27647e-11
1.27647e-11
1.27647e-11
1.27647e-11
1.27646e-11
1.27648e-11
1.27646e-11
1.2765e-11
1.27646e-11
1.27651e-11
1.27645e-11
1.27654e-11
1.27647e-11
1.27659e-11
1.2765e-11
1.2767e-11
1.27658e-11
1.27689e-11
1.27673e-11
1.27724e-11
1.27699e-11
1.27754e-11
1.27656e-11
1.27512e-11
1.27021e-11
1.26065e-11
1.25099e-11
1.17814e-11
1.18733e-11
1.19631e-11
1.20092e-11
1.20229e-11
1.20321e-11
1.2027e-11
1.20292e-11
1.20243e-11
1.20257e-11
1.20228e-11
1.20239e-11
1.2022e-11
1.20228e-11
1.20217e-11
1.20223e-11
1.20215e-11
1.20221e-11
1.20215e-11
1.20219e-11
1.20216e-11
1.20218e-11
1.20216e-11
1.20217e-11
1.20216e-11
1.20216e-11
1.20217e-11
1.20216e-11
1.20218e-11
1.20216e-11
1.20219e-11
1.20215e-11
1.20221e-11
1.20215e-11
1.20223e-11
1.20217e-11
1.20228e-11
1.2022e-11
1.20239e-11
1.20228e-11
1.20257e-11
1.20243e-11
1.20292e-11
1.2027e-11
1.20321e-11
1.20228e-11
1.20092e-11
1.1963e-11
1.18733e-11
1.17814e-11
1.11161e-11
1.12033e-11
1.12876e-11
1.1331e-11
1.13439e-11
1.13526e-11
1.13478e-11
1.13497e-11
1.13452e-11
1.13463e-11
1.13436e-11
1.13445e-11
1.13428e-11
1.13435e-11
1.13424e-11
1.1343e-11
1.13422e-11
1.13428e-11
1.13423e-11
1.13426e-11
1.13423e-11
1.13425e-11
1.13423e-11
1.13424e-11
1.13423e-11
1.13423e-11
1.13424e-11
1.13423e-11
1.13425e-11
1.13423e-11
1.13426e-11
1.13423e-11
1.13428e-11
1.13423e-11
1.1343e-11
1.13424e-11
1.13435e-11
1.13428e-11
1.13445e-11
1.13436e-11
1.13463e-11
1.13452e-11
1.13497e-11
1.13478e-11
1.13526e-11
1.13439e-11
1.1331e-11
1.12876e-11
1.12033e-11
1.11161e-11
1.05069e-11
1.05894e-11
1.06687e-11
1.07095e-11
1.07218e-11
1.07299e-11
1.07254e-11
1.07271e-11
1.07228e-11
1.07238e-11
1.07212e-11
1.0722e-11
1.07204e-11
1.0721e-11
1.072e-11
1.07205e-11
1.07198e-11
1.07203e-11
1.07198e-11
1.07201e-11
1.07198e-11
1.072e-11
1.07198e-11
1.07199e-11
1.07199e-11
1.07199e-11
1.07199e-11
1.07198e-11
1.072e-11
1.07198e-11
1.07201e-11
1.07198e-11
1.07203e-11
1.07198e-11
1.07205e-11
1.072e-11
1.0721e-11
1.07204e-11
1.0722e-11
1.07212e-11
1.07238e-11
1.07228e-11
1.07271e-11
1.07253e-11
1.07299e-11
1.07218e-11
1.07095e-11
1.06687e-11
1.05894e-11
1.0507e-11
9.94783e-12
1.0026e-11
1.01005e-11
1.01388e-11
1.01504e-11
1.0158e-11
1.01537e-11
1.01552e-11
1.01511e-11
1.0152e-11
1.01495e-11
1.01503e-11
1.01487e-11
1.01493e-11
1.01483e-11
1.01488e-11
1.01481e-11
1.01486e-11
1.01481e-11
1.01484e-11
1.01481e-11
1.01483e-11
1.01481e-11
1.01482e-11
1.01482e-11
1.01482e-11
1.01482e-11
1.01481e-11
1.01483e-11
1.01481e-11
1.01484e-11
1.01481e-11
1.01486e-11
1.01481e-11
1.01488e-11
1.01483e-11
1.01493e-11
1.01487e-11
1.01503e-11
1.01495e-11
1.0152e-11
1.01511e-11
1.01552e-11
1.01537e-11
1.0158e-11
1.01504e-11
1.01388e-11
1.01005e-11
1.0026e-11
9.94783e-12
)
;

boundaryField
{
    fuel
    {
        type            fixedValue;
        value           uniform 0;
    }
    wall
    {
        type            zeroGradient;
    }
    outlet
    {
        type            zeroGradient;
    }
    frontAndBack
    {
        type            empty;
    }
    procBoundary1to0
    {
        type            processor;
        value           nonuniform List<scalar> 
50
(
9.43345e-12
9.50755e-12
9.57751e-12
9.61351e-12
9.62446e-12
9.6316e-12
9.62752e-12
9.6288e-12
9.62497e-12
9.62568e-12
9.62335e-12
9.62398e-12
9.62251e-12
9.62303e-12
9.62209e-12
9.62255e-12
9.62191e-12
9.62232e-12
9.62192e-12
9.62217e-12
9.62191e-12
9.62206e-12
9.62191e-12
9.62199e-12
9.62195e-12
9.62195e-12
9.62199e-12
9.62191e-12
9.62206e-12
9.62191e-12
9.62217e-12
9.62191e-12
9.62231e-12
9.62192e-12
9.62255e-12
9.6221e-12
9.62303e-12
9.62251e-12
9.62398e-12
9.62335e-12
9.62568e-12
9.62497e-12
9.6288e-12
9.62751e-12
9.63159e-12
9.62446e-12
9.6135e-12
9.5775e-12
9.50755e-12
9.43345e-12
)
;
    }
}


// ************************************************************************* //
