/*--------------------------------*- C++ -*----------------------------------*\
| =========                 |                                                 |
| \\      /  F ield         | OpenFOAM: The Open Source CFD Toolbox           |
|  \\    /   O peration     | Version:  dev                                   |
|   \\  /    A nd           | Web:      www.OpenFOAM.org                      |
|    \\/     M anipulation  |                                                 |
\*---------------------------------------------------------------------------*/
FoamFile
{
    version     2.0;
    format      ascii;
    class       volScalarField;
    location    "0.08";
    object      A2R5;
}
// * * * * * * * * * * * * * * * * * * * * * * * * * * * * * * * * * * * * * //

dimensions      [0 0 0 0 0 0 0];

internalField   nonuniform List<scalar> 
2000
(
6.25569e-08
6.24038e-08
6.22864e-08
6.22139e-08
6.2207e-08
6.21861e-08
6.21929e-08
6.21834e-08
6.21901e-08
6.21843e-08
6.21891e-08
6.21853e-08
6.21887e-08
6.21862e-08
6.21884e-08
6.21867e-08
6.21884e-08
6.21871e-08
6.21881e-08
6.21873e-08
6.2188e-08
6.21876e-08
6.21879e-08
6.21877e-08
6.21878e-08
6.21878e-08
6.21877e-08
6.21879e-08
6.21876e-08
6.2188e-08
6.21873e-08
6.21881e-08
6.21871e-08
6.21883e-08
6.21867e-08
6.21884e-08
6.21862e-08
6.21887e-08
6.21853e-08
6.21891e-08
6.21843e-08
6.21901e-08
6.21834e-08
6.21929e-08
6.21861e-08
6.2207e-08
6.2214e-08
6.22864e-08
6.24037e-08
6.25569e-08
1.26207e-07
1.25875e-07
1.25614e-07
1.25456e-07
1.2544e-07
1.25396e-07
1.2541e-07
1.2539e-07
1.25404e-07
1.25392e-07
1.25402e-07
1.25394e-07
1.25402e-07
1.25396e-07
1.25401e-07
1.25397e-07
1.25401e-07
1.25398e-07
1.254e-07
1.25399e-07
1.254e-07
1.25399e-07
1.254e-07
1.25399e-07
1.254e-07
1.254e-07
1.25399e-07
1.254e-07
1.25399e-07
1.254e-07
1.25399e-07
1.254e-07
1.25398e-07
1.25401e-07
1.25397e-07
1.25401e-07
1.25396e-07
1.25402e-07
1.25394e-07
1.25402e-07
1.25392e-07
1.25404e-07
1.2539e-07
1.2541e-07
1.25396e-07
1.2544e-07
1.25456e-07
1.25614e-07
1.25875e-07
1.26207e-07
1.76459e-07
1.75989e-07
1.75604e-07
1.75377e-07
1.7535e-07
1.75288e-07
1.75307e-07
1.75279e-07
1.75298e-07
1.75282e-07
1.75296e-07
1.75285e-07
1.75294e-07
1.75287e-07
1.75294e-07
1.75289e-07
1.75294e-07
1.7529e-07
1.75293e-07
1.75291e-07
1.75292e-07
1.75291e-07
1.75292e-07
1.75292e-07
1.75292e-07
1.75292e-07
1.75292e-07
1.75292e-07
1.75291e-07
1.75292e-07
1.75291e-07
1.75293e-07
1.7529e-07
1.75293e-07
1.75289e-07
1.75294e-07
1.75287e-07
1.75294e-07
1.75285e-07
1.75296e-07
1.75282e-07
1.75298e-07
1.75279e-07
1.75307e-07
1.75288e-07
1.7535e-07
1.75377e-07
1.75604e-07
1.75989e-07
1.76459e-07
2.13262e-07
2.12687e-07
2.12199e-07
2.11914e-07
2.11873e-07
2.11798e-07
2.11818e-07
2.11786e-07
2.11808e-07
2.11789e-07
2.11805e-07
2.11792e-07
2.11804e-07
2.11796e-07
2.11803e-07
2.11797e-07
2.11803e-07
2.11799e-07
2.11802e-07
2.11799e-07
2.11802e-07
2.118e-07
2.11801e-07
2.11801e-07
2.11801e-07
2.11801e-07
2.11801e-07
2.11801e-07
2.118e-07
2.11802e-07
2.11799e-07
2.11802e-07
2.11799e-07
2.11803e-07
2.11797e-07
2.11803e-07
2.11796e-07
2.11804e-07
2.11792e-07
2.11805e-07
2.11789e-07
2.11808e-07
2.11786e-07
2.11818e-07
2.11798e-07
2.11873e-07
2.11914e-07
2.12199e-07
2.12687e-07
2.13262e-07
2.37123e-07
2.36481e-07
2.35921e-07
2.35594e-07
2.35539e-07
2.35456e-07
2.35475e-07
2.35441e-07
2.35463e-07
2.35444e-07
2.3546e-07
2.35447e-07
2.35459e-07
2.35451e-07
2.35459e-07
2.35453e-07
2.35459e-07
2.35454e-07
2.35457e-07
2.35455e-07
2.35457e-07
2.35456e-07
2.35457e-07
2.35456e-07
2.35457e-07
2.35457e-07
2.35456e-07
2.35457e-07
2.35456e-07
2.35457e-07
2.35455e-07
2.35458e-07
2.35454e-07
2.35458e-07
2.35453e-07
2.35459e-07
2.35451e-07
2.35459e-07
2.35448e-07
2.3546e-07
2.35444e-07
2.35463e-07
2.35441e-07
2.35475e-07
2.35456e-07
2.35539e-07
2.35594e-07
2.35921e-07
2.36481e-07
2.37123e-07
2.51442e-07
2.50768e-07
2.50171e-07
2.49819e-07
2.49751e-07
2.49665e-07
2.4968e-07
2.49647e-07
2.49668e-07
2.49649e-07
2.49665e-07
2.49653e-07
2.49664e-07
2.49656e-07
2.49664e-07
2.49658e-07
2.49664e-07
2.4966e-07
2.49663e-07
2.4966e-07
2.49663e-07
2.49661e-07
2.49663e-07
2.49662e-07
2.49662e-07
2.49662e-07
2.49662e-07
2.49663e-07
2.49661e-07
2.49663e-07
2.49661e-07
2.49663e-07
2.4966e-07
2.49664e-07
2.49658e-07
2.49664e-07
2.49656e-07
2.49664e-07
2.49653e-07
2.49665e-07
2.49649e-07
2.49668e-07
2.49647e-07
2.4968e-07
2.49665e-07
2.49751e-07
2.4982e-07
2.50171e-07
2.50767e-07
2.51442e-07
2.59524e-07
2.58845e-07
2.58241e-07
2.57879e-07
2.578e-07
2.57713e-07
2.57725e-07
2.57693e-07
2.57712e-07
2.57694e-07
2.57709e-07
2.57698e-07
2.57708e-07
2.57701e-07
2.57708e-07
2.57703e-07
2.57708e-07
2.57704e-07
2.57707e-07
2.57705e-07
2.57707e-07
2.57706e-07
2.57707e-07
2.57707e-07
2.57707e-07
2.57707e-07
2.57707e-07
2.57707e-07
2.57706e-07
2.57707e-07
2.57705e-07
2.57707e-07
2.57704e-07
2.57708e-07
2.57703e-07
2.57708e-07
2.57701e-07
2.57708e-07
2.57698e-07
2.57709e-07
2.57694e-07
2.57712e-07
2.57693e-07
2.57725e-07
2.57713e-07
2.578e-07
2.57879e-07
2.58241e-07
2.58845e-07
2.59524e-07
2.63656e-07
2.62994e-07
2.62404e-07
2.62042e-07
2.61955e-07
2.6187e-07
2.61877e-07
2.61847e-07
2.61863e-07
2.61848e-07
2.61861e-07
2.61851e-07
2.6186e-07
2.61854e-07
2.6186e-07
2.61856e-07
2.6186e-07
2.61857e-07
2.6186e-07
2.61858e-07
2.6186e-07
2.61859e-07
2.6186e-07
2.61859e-07
2.61859e-07
2.61859e-07
2.61859e-07
2.6186e-07
2.61859e-07
2.6186e-07
2.61858e-07
2.6186e-07
2.61857e-07
2.6186e-07
2.61856e-07
2.6186e-07
2.61854e-07
2.6186e-07
2.61851e-07
2.61861e-07
2.61848e-07
2.61863e-07
2.61847e-07
2.61877e-07
2.6187e-07
2.61955e-07
2.62042e-07
2.62404e-07
2.62994e-07
2.63656e-07
2.65291e-07
2.64659e-07
2.64099e-07
2.63745e-07
2.63652e-07
2.63569e-07
2.63572e-07
2.63544e-07
2.63558e-07
2.63544e-07
2.63556e-07
2.63547e-07
2.63555e-07
2.6355e-07
2.63556e-07
2.63552e-07
2.63556e-07
2.63553e-07
2.63555e-07
2.63554e-07
2.63555e-07
2.63554e-07
2.63555e-07
2.63555e-07
2.63555e-07
2.63555e-07
2.63555e-07
2.63555e-07
2.63554e-07
2.63555e-07
2.63554e-07
2.63555e-07
2.63553e-07
2.63556e-07
2.63552e-07
2.63556e-07
2.6355e-07
2.63555e-07
2.63547e-07
2.63556e-07
2.63544e-07
2.63558e-07
2.63544e-07
2.63572e-07
2.63569e-07
2.63652e-07
2.63746e-07
2.64099e-07
2.64659e-07
2.65291e-07
2.65305e-07
2.64713e-07
2.64193e-07
2.63854e-07
2.63756e-07
2.63677e-07
2.63675e-07
2.6365e-07
2.63661e-07
2.6365e-07
2.63659e-07
2.63652e-07
2.63659e-07
2.63654e-07
2.63659e-07
2.63656e-07
2.63659e-07
2.63657e-07
2.63659e-07
2.63658e-07
2.63659e-07
2.63658e-07
2.63659e-07
2.63659e-07
2.63659e-07
2.63659e-07
2.63659e-07
2.63659e-07
2.63658e-07
2.63659e-07
2.63658e-07
2.63659e-07
2.63657e-07
2.63659e-07
2.63656e-07
2.63659e-07
2.63654e-07
2.63659e-07
2.63652e-07
2.63659e-07
2.63649e-07
2.63661e-07
2.63651e-07
2.63675e-07
2.63677e-07
2.63756e-07
2.63854e-07
2.64193e-07
2.64713e-07
2.65305e-07
2.64255e-07
2.63709e-07
2.63235e-07
2.62914e-07
2.62814e-07
2.6274e-07
2.62733e-07
2.62712e-07
2.62719e-07
2.6271e-07
2.62717e-07
2.62711e-07
2.62717e-07
2.62714e-07
2.62717e-07
2.62715e-07
2.62718e-07
2.62716e-07
2.62718e-07
2.62717e-07
2.62718e-07
2.62717e-07
2.62718e-07
2.62718e-07
2.62718e-07
2.62718e-07
2.62718e-07
2.62718e-07
2.62717e-07
2.62718e-07
2.62717e-07
2.62718e-07
2.62716e-07
2.62718e-07
2.62715e-07
2.62717e-07
2.62714e-07
2.62717e-07
2.62711e-07
2.62717e-07
2.6271e-07
2.62719e-07
2.62712e-07
2.62733e-07
2.6274e-07
2.62814e-07
2.62914e-07
2.63235e-07
2.63709e-07
2.64255e-07
2.6241e-07
2.61915e-07
2.61492e-07
2.61193e-07
2.61092e-07
2.61023e-07
2.61012e-07
2.60993e-07
2.60997e-07
2.6099e-07
2.60995e-07
2.60991e-07
2.60996e-07
2.60993e-07
2.60996e-07
2.60995e-07
2.60997e-07
2.60995e-07
2.60997e-07
2.60996e-07
2.60997e-07
2.60996e-07
2.60997e-07
2.60997e-07
2.60997e-07
2.60997e-07
2.60997e-07
2.60997e-07
2.60996e-07
2.60997e-07
2.60996e-07
2.60997e-07
2.60995e-07
2.60997e-07
2.60995e-07
2.60996e-07
2.60993e-07
2.60996e-07
2.60991e-07
2.60995e-07
2.6099e-07
2.60997e-07
2.60993e-07
2.61012e-07
2.61023e-07
2.61092e-07
2.61193e-07
2.61492e-07
2.61915e-07
2.6241e-07
2.60132e-07
2.59691e-07
2.5932e-07
2.59045e-07
2.58944e-07
2.5888e-07
2.58865e-07
2.58849e-07
2.5885e-07
2.58845e-07
2.58849e-07
2.58846e-07
2.58849e-07
2.58848e-07
2.5885e-07
2.58849e-07
2.5885e-07
2.5885e-07
2.5885e-07
2.5885e-07
2.58851e-07
2.5885e-07
2.58851e-07
2.58851e-07
2.58851e-07
2.58851e-07
2.58851e-07
2.58851e-07
2.5885e-07
2.58851e-07
2.5885e-07
2.5885e-07
2.5885e-07
2.5885e-07
2.58849e-07
2.5885e-07
2.58848e-07
2.58849e-07
2.58846e-07
2.58849e-07
2.58845e-07
2.5885e-07
2.58849e-07
2.58865e-07
2.5888e-07
2.58944e-07
2.59045e-07
2.5932e-07
2.59691e-07
2.60132e-07
2.57475e-07
2.57078e-07
2.56751e-07
2.56498e-07
2.56401e-07
2.56342e-07
2.56324e-07
2.5631e-07
2.56309e-07
2.56305e-07
2.56307e-07
2.56305e-07
2.56308e-07
2.56307e-07
2.56308e-07
2.56308e-07
2.56309e-07
2.56308e-07
2.56309e-07
2.56309e-07
2.56309e-07
2.56309e-07
2.56309e-07
2.56309e-07
2.56309e-07
2.56309e-07
2.56309e-07
2.56309e-07
2.56309e-07
2.56309e-07
2.56309e-07
2.56309e-07
2.56308e-07
2.56309e-07
2.56308e-07
2.56308e-07
2.56307e-07
2.56308e-07
2.56305e-07
2.56307e-07
2.56305e-07
2.56309e-07
2.5631e-07
2.56324e-07
2.56342e-07
2.56401e-07
2.56498e-07
2.56751e-07
2.57078e-07
2.57475e-07
2.54449e-07
2.54107e-07
2.53833e-07
2.53606e-07
2.53513e-07
2.53458e-07
2.53437e-07
2.53425e-07
2.53422e-07
2.5342e-07
2.5342e-07
2.5342e-07
2.53421e-07
2.53421e-07
2.53421e-07
2.53421e-07
2.53422e-07
2.53422e-07
2.53422e-07
2.53422e-07
2.53422e-07
2.53423e-07
2.53423e-07
2.53423e-07
2.53423e-07
2.53423e-07
2.53423e-07
2.53423e-07
2.53423e-07
2.53422e-07
2.53422e-07
2.53422e-07
2.53422e-07
2.53422e-07
2.53421e-07
2.53421e-07
2.53421e-07
2.53421e-07
2.5342e-07
2.5342e-07
2.5342e-07
2.53422e-07
2.53425e-07
2.53437e-07
2.53458e-07
2.53513e-07
2.53606e-07
2.53833e-07
2.54107e-07
2.54449e-07
2.51333e-07
2.51047e-07
2.50824e-07
2.50625e-07
2.50535e-07
2.50486e-07
2.50463e-07
2.50453e-07
2.50447e-07
2.50446e-07
2.50445e-07
2.50445e-07
2.50446e-07
2.50446e-07
2.50446e-07
2.50447e-07
2.50447e-07
2.50447e-07
2.50447e-07
2.50447e-07
2.50447e-07
2.50448e-07
2.50448e-07
2.50448e-07
2.50448e-07
2.50448e-07
2.50448e-07
2.50448e-07
2.50448e-07
2.50447e-07
2.50447e-07
2.50447e-07
2.50447e-07
2.50447e-07
2.50447e-07
2.50446e-07
2.50446e-07
2.50445e-07
2.50445e-07
2.50445e-07
2.50446e-07
2.50447e-07
2.50453e-07
2.50463e-07
2.50486e-07
2.50535e-07
2.50625e-07
2.50824e-07
2.51047e-07
2.51333e-07
2.47946e-07
2.47723e-07
2.47559e-07
2.47392e-07
2.47309e-07
2.47266e-07
2.47239e-07
2.47232e-07
2.47223e-07
2.47224e-07
2.47221e-07
2.47223e-07
2.47222e-07
2.47223e-07
2.47223e-07
2.47224e-07
2.47223e-07
2.47224e-07
2.47224e-07
2.47224e-07
2.47224e-07
2.47224e-07
2.47224e-07
2.47224e-07
2.47224e-07
2.47224e-07
2.47224e-07
2.47224e-07
2.47224e-07
2.47224e-07
2.47224e-07
2.47224e-07
2.47224e-07
2.47223e-07
2.47224e-07
2.47223e-07
2.47223e-07
2.47222e-07
2.47223e-07
2.47221e-07
2.47224e-07
2.47223e-07
2.47232e-07
2.4724e-07
2.47266e-07
2.47309e-07
2.47392e-07
2.47559e-07
2.47723e-07
2.47946e-07
2.44553e-07
2.44387e-07
2.44273e-07
2.44133e-07
2.44056e-07
2.44018e-07
2.43989e-07
2.43983e-07
2.43973e-07
2.43975e-07
2.43971e-07
2.43973e-07
2.43971e-07
2.43973e-07
2.43972e-07
2.43973e-07
2.43973e-07
2.43973e-07
2.43973e-07
2.43974e-07
2.43973e-07
2.43974e-07
2.43974e-07
2.43974e-07
2.43974e-07
2.43974e-07
2.43974e-07
2.43974e-07
2.43974e-07
2.43973e-07
2.43974e-07
2.43973e-07
2.43974e-07
2.43973e-07
2.43973e-07
2.43972e-07
2.43973e-07
2.43971e-07
2.43973e-07
2.43971e-07
2.43975e-07
2.43973e-07
2.43983e-07
2.43989e-07
2.44018e-07
2.44056e-07
2.44133e-07
2.44273e-07
2.44387e-07
2.44554e-07
2.40938e-07
2.40837e-07
2.40784e-07
2.40676e-07
2.40605e-07
2.40573e-07
2.40541e-07
2.40538e-07
2.40525e-07
2.40528e-07
2.40522e-07
2.40526e-07
2.40523e-07
2.40525e-07
2.40523e-07
2.40525e-07
2.40524e-07
2.40525e-07
2.40525e-07
2.40525e-07
2.40525e-07
2.40526e-07
2.40525e-07
2.40526e-07
2.40525e-07
2.40525e-07
2.40526e-07
2.40525e-07
2.40526e-07
2.40525e-07
2.40525e-07
2.40525e-07
2.40525e-07
2.40524e-07
2.40525e-07
2.40523e-07
2.40525e-07
2.40523e-07
2.40526e-07
2.40522e-07
2.40528e-07
2.40525e-07
2.40538e-07
2.40541e-07
2.40573e-07
2.40605e-07
2.40676e-07
2.40784e-07
2.40837e-07
2.40938e-07
2.37243e-07
2.37199e-07
2.37189e-07
2.37108e-07
2.37044e-07
2.37016e-07
2.36983e-07
2.36981e-07
2.36966e-07
2.3697e-07
2.36964e-07
2.36968e-07
2.36964e-07
2.36967e-07
2.36965e-07
2.36967e-07
2.36965e-07
2.36967e-07
2.36966e-07
2.36967e-07
2.36966e-07
2.36967e-07
2.36967e-07
2.36967e-07
2.36967e-07
2.36967e-07
2.36967e-07
2.36967e-07
2.36967e-07
2.36966e-07
2.36967e-07
2.36966e-07
2.36967e-07
2.36965e-07
2.36967e-07
2.36965e-07
2.36967e-07
2.36964e-07
2.36968e-07
2.36964e-07
2.3697e-07
2.36966e-07
2.36981e-07
2.36983e-07
2.37016e-07
2.37044e-07
2.37108e-07
2.37189e-07
2.37199e-07
2.37243e-07
2.33637e-07
2.33648e-07
2.33682e-07
2.33627e-07
2.33569e-07
2.33547e-07
2.33513e-07
2.33512e-07
2.33495e-07
2.335e-07
2.33492e-07
2.33497e-07
2.33493e-07
2.33496e-07
2.33493e-07
2.33496e-07
2.33494e-07
2.33496e-07
2.33495e-07
2.33496e-07
2.33495e-07
2.33496e-07
2.33495e-07
2.33496e-07
2.33495e-07
2.33495e-07
2.33496e-07
2.33495e-07
2.33496e-07
2.33495e-07
2.33496e-07
2.33495e-07
2.33496e-07
2.33494e-07
2.33496e-07
2.33493e-07
2.33496e-07
2.33493e-07
2.33497e-07
2.33492e-07
2.335e-07
2.33495e-07
2.33512e-07
2.33513e-07
2.33547e-07
2.33569e-07
2.33627e-07
2.33682e-07
2.33648e-07
2.33637e-07
2.30003e-07
2.3007e-07
2.30145e-07
2.30114e-07
2.30064e-07
2.30046e-07
2.30011e-07
2.30011e-07
2.29993e-07
2.29999e-07
2.2999e-07
2.29995e-07
2.2999e-07
2.29994e-07
2.29991e-07
2.29993e-07
2.29991e-07
2.29993e-07
2.29992e-07
2.29993e-07
2.29992e-07
2.29993e-07
2.29993e-07
2.29993e-07
2.29993e-07
2.29993e-07
2.29993e-07
2.29993e-07
2.29993e-07
2.29992e-07
2.29993e-07
2.29992e-07
2.29993e-07
2.29991e-07
2.29993e-07
2.29991e-07
2.29994e-07
2.2999e-07
2.29995e-07
2.2999e-07
2.29999e-07
2.29993e-07
2.30011e-07
2.30011e-07
2.30046e-07
2.30064e-07
2.30114e-07
2.30145e-07
2.3007e-07
2.30003e-07
2.26355e-07
2.2637e-07
2.26471e-07
2.26462e-07
2.26422e-07
2.26408e-07
2.26373e-07
2.26374e-07
2.26355e-07
2.2636e-07
2.26351e-07
2.26356e-07
2.26351e-07
2.26354e-07
2.26351e-07
2.26354e-07
2.26351e-07
2.26353e-07
2.26352e-07
2.26353e-07
2.26352e-07
2.26353e-07
2.26353e-07
2.26353e-07
2.26353e-07
2.26353e-07
2.26353e-07
2.26353e-07
2.26353e-07
2.26352e-07
2.26353e-07
2.26352e-07
2.26353e-07
2.26351e-07
2.26354e-07
2.26351e-07
2.26354e-07
2.26351e-07
2.26356e-07
2.26351e-07
2.2636e-07
2.26355e-07
2.26374e-07
2.26373e-07
2.26408e-07
2.26422e-07
2.26462e-07
2.26471e-07
2.2637e-07
2.26355e-07
2.22706e-07
2.22767e-07
2.22903e-07
2.22917e-07
2.22884e-07
2.22875e-07
2.22839e-07
2.2284e-07
2.2282e-07
2.22826e-07
2.22816e-07
2.22821e-07
2.22815e-07
2.22819e-07
2.22815e-07
2.22819e-07
2.22816e-07
2.22818e-07
2.22817e-07
2.22818e-07
2.22817e-07
2.22818e-07
2.22817e-07
2.22818e-07
2.22817e-07
2.22817e-07
2.22818e-07
2.22817e-07
2.22818e-07
2.22817e-07
2.22818e-07
2.22817e-07
2.22818e-07
2.22816e-07
2.22819e-07
2.22815e-07
2.22819e-07
2.22815e-07
2.22821e-07
2.22816e-07
2.22826e-07
2.2282e-07
2.2284e-07
2.22839e-07
2.22875e-07
2.22884e-07
2.22917e-07
2.22903e-07
2.22767e-07
2.22706e-07
2.18922e-07
2.19032e-07
2.19209e-07
2.19249e-07
2.19225e-07
2.19221e-07
2.19184e-07
2.19186e-07
2.19165e-07
2.19171e-07
2.1916e-07
2.19166e-07
2.19159e-07
2.19163e-07
2.19159e-07
2.19163e-07
2.1916e-07
2.19162e-07
2.1916e-07
2.19162e-07
2.19161e-07
2.19162e-07
2.19161e-07
2.19162e-07
2.19161e-07
2.19161e-07
2.19162e-07
2.19161e-07
2.19162e-07
2.19161e-07
2.19162e-07
2.1916e-07
2.19162e-07
2.1916e-07
2.19163e-07
2.19159e-07
2.19164e-07
2.19159e-07
2.19166e-07
2.1916e-07
2.19171e-07
2.19165e-07
2.19186e-07
2.19184e-07
2.19221e-07
2.19225e-07
2.19249e-07
2.19209e-07
2.19032e-07
2.18922e-07
2.15147e-07
2.15298e-07
2.15503e-07
2.15564e-07
2.15547e-07
2.15547e-07
2.15509e-07
2.15512e-07
2.15489e-07
2.15496e-07
2.15484e-07
2.1549e-07
2.15483e-07
2.15488e-07
2.15483e-07
2.15487e-07
2.15484e-07
2.15486e-07
2.15484e-07
2.15486e-07
2.15485e-07
2.15486e-07
2.15485e-07
2.15485e-07
2.15485e-07
2.15485e-07
2.15485e-07
2.15485e-07
2.15486e-07
2.15485e-07
2.15486e-07
2.15484e-07
2.15486e-07
2.15484e-07
2.15487e-07
2.15483e-07
2.15488e-07
2.15483e-07
2.1549e-07
2.15484e-07
2.15496e-07
2.15489e-07
2.15512e-07
2.15509e-07
2.15547e-07
2.15547e-07
2.15564e-07
2.15503e-07
2.15298e-07
2.15147e-07
2.11389e-07
2.11579e-07
2.1181e-07
2.11888e-07
2.11879e-07
2.11882e-07
2.11844e-07
2.11848e-07
2.11824e-07
2.11831e-07
2.11819e-07
2.11825e-07
2.11817e-07
2.11822e-07
2.11817e-07
2.11821e-07
2.11818e-07
2.1182e-07
2.11818e-07
2.1182e-07
2.11819e-07
2.1182e-07
2.11819e-07
2.11819e-07
2.11819e-07
2.11819e-07
2.11819e-07
2.11819e-07
2.1182e-07
2.11819e-07
2.1182e-07
2.11818e-07
2.1182e-07
2.11818e-07
2.11821e-07
2.11817e-07
2.11822e-07
2.11817e-07
2.11825e-07
2.11819e-07
2.11831e-07
2.11824e-07
2.11848e-07
2.11844e-07
2.11882e-07
2.11879e-07
2.11888e-07
2.1181e-07
2.11579e-07
2.11389e-07
2.07654e-07
2.07881e-07
2.08135e-07
2.08231e-07
2.08228e-07
2.08234e-07
2.08196e-07
2.082e-07
2.08176e-07
2.08183e-07
2.0817e-07
2.08176e-07
2.08169e-07
2.08173e-07
2.08168e-07
2.08172e-07
2.08169e-07
2.08171e-07
2.08169e-07
2.08171e-07
2.0817e-07
2.08171e-07
2.0817e-07
2.0817e-07
2.0817e-07
2.0817e-07
2.0817e-07
2.0817e-07
2.08171e-07
2.0817e-07
2.08171e-07
2.08169e-07
2.08171e-07
2.08169e-07
2.08172e-07
2.08168e-07
2.08173e-07
2.08169e-07
2.08176e-07
2.0817e-07
2.08183e-07
2.08176e-07
2.082e-07
2.08196e-07
2.08234e-07
2.08228e-07
2.08231e-07
2.08135e-07
2.07881e-07
2.07654e-07
2.03948e-07
2.04209e-07
2.04486e-07
2.04596e-07
2.046e-07
2.0461e-07
2.04571e-07
2.04576e-07
2.04551e-07
2.04558e-07
2.04544e-07
2.04551e-07
2.04543e-07
2.04547e-07
2.04542e-07
2.04546e-07
2.04542e-07
2.04545e-07
2.04543e-07
2.04545e-07
2.04543e-07
2.04544e-07
2.04544e-07
2.04544e-07
2.04544e-07
2.04544e-07
2.04544e-07
2.04544e-07
2.04544e-07
2.04543e-07
2.04545e-07
2.04543e-07
2.04545e-07
2.04542e-07
2.04546e-07
2.04542e-07
2.04547e-07
2.04543e-07
2.04551e-07
2.04545e-07
2.04558e-07
2.04551e-07
2.04576e-07
2.04571e-07
2.0461e-07
2.046e-07
2.04596e-07
2.04486e-07
2.04209e-07
2.03948e-07
2.00278e-07
2.00571e-07
2.00867e-07
2.00991e-07
2.01e-07
2.01013e-07
2.00975e-07
2.00979e-07
2.00954e-07
2.0096e-07
2.00947e-07
2.00953e-07
2.00945e-07
2.00949e-07
2.00944e-07
2.00948e-07
2.00944e-07
2.00947e-07
2.00945e-07
2.00947e-07
2.00945e-07
2.00946e-07
2.00945e-07
2.00946e-07
2.00946e-07
2.00946e-07
2.00946e-07
2.00945e-07
2.00946e-07
2.00945e-07
2.00947e-07
2.00945e-07
2.00947e-07
2.00944e-07
2.00948e-07
2.00944e-07
2.00949e-07
2.00945e-07
2.00953e-07
2.00947e-07
2.0096e-07
2.00954e-07
2.00979e-07
2.00975e-07
2.01013e-07
2.01e-07
2.00991e-07
2.00867e-07
2.00571e-07
2.00278e-07
1.96647e-07
1.96968e-07
1.97282e-07
1.97418e-07
1.97433e-07
1.97449e-07
1.97411e-07
1.97415e-07
1.9739e-07
1.97396e-07
1.97382e-07
1.97388e-07
1.9738e-07
1.97384e-07
1.97379e-07
1.97383e-07
1.97379e-07
1.97382e-07
1.9738e-07
1.97381e-07
1.9738e-07
1.97381e-07
1.9738e-07
1.97381e-07
1.9738e-07
1.9738e-07
1.97381e-07
1.9738e-07
1.97381e-07
1.9738e-07
1.97381e-07
1.9738e-07
1.97382e-07
1.97379e-07
1.97383e-07
1.97379e-07
1.97384e-07
1.9738e-07
1.97388e-07
1.97382e-07
1.97396e-07
1.9739e-07
1.97415e-07
1.97411e-07
1.97449e-07
1.97433e-07
1.97418e-07
1.97282e-07
1.96968e-07
1.96647e-07
1.93059e-07
1.93407e-07
1.93737e-07
1.93883e-07
1.93903e-07
1.93921e-07
1.93884e-07
1.93888e-07
1.93862e-07
1.93868e-07
1.93854e-07
1.9386e-07
1.93851e-07
1.93856e-07
1.93851e-07
1.93854e-07
1.9385e-07
1.93853e-07
1.93851e-07
1.93853e-07
1.93851e-07
1.93852e-07
1.93852e-07
1.93852e-07
1.93852e-07
1.93852e-07
1.93852e-07
1.93852e-07
1.93852e-07
1.93851e-07
1.93853e-07
1.93851e-07
1.93853e-07
1.9385e-07
1.93854e-07
1.93851e-07
1.93856e-07
1.93851e-07
1.9386e-07
1.93854e-07
1.93868e-07
1.93862e-07
1.93888e-07
1.93884e-07
1.93921e-07
1.93903e-07
1.93883e-07
1.93737e-07
1.93407e-07
1.93059e-07
1.89517e-07
1.89889e-07
1.90233e-07
1.90389e-07
1.90414e-07
1.90434e-07
1.90396e-07
1.90401e-07
1.90375e-07
1.90381e-07
1.90366e-07
1.90372e-07
1.90363e-07
1.90368e-07
1.90362e-07
1.90366e-07
1.90362e-07
1.90365e-07
1.90363e-07
1.90364e-07
1.90363e-07
1.90364e-07
1.90363e-07
1.90364e-07
1.90363e-07
1.90363e-07
1.90364e-07
1.90363e-07
1.90364e-07
1.90363e-07
1.90364e-07
1.90363e-07
1.90365e-07
1.90362e-07
1.90366e-07
1.90362e-07
1.90368e-07
1.90363e-07
1.90372e-07
1.90366e-07
1.90381e-07
1.90375e-07
1.90401e-07
1.90396e-07
1.90434e-07
1.90414e-07
1.90389e-07
1.90233e-07
1.89889e-07
1.89517e-07
1.86025e-07
1.86418e-07
1.86774e-07
1.86939e-07
1.86968e-07
1.8699e-07
1.86953e-07
1.86957e-07
1.8693e-07
1.86936e-07
1.86922e-07
1.86927e-07
1.86918e-07
1.86923e-07
1.86917e-07
1.86921e-07
1.86917e-07
1.8692e-07
1.86917e-07
1.86919e-07
1.86918e-07
1.86919e-07
1.86918e-07
1.86918e-07
1.86918e-07
1.86918e-07
1.86918e-07
1.86918e-07
1.86919e-07
1.86918e-07
1.86919e-07
1.86917e-07
1.8692e-07
1.86917e-07
1.86921e-07
1.86917e-07
1.86923e-07
1.86918e-07
1.86927e-07
1.86922e-07
1.86936e-07
1.8693e-07
1.86957e-07
1.86953e-07
1.8699e-07
1.86968e-07
1.86939e-07
1.86774e-07
1.86418e-07
1.86025e-07
1.82585e-07
1.82997e-07
1.83363e-07
1.83535e-07
1.83567e-07
1.83592e-07
1.83554e-07
1.83559e-07
1.83532e-07
1.83537e-07
1.83523e-07
1.83528e-07
1.83519e-07
1.83523e-07
1.83518e-07
1.83521e-07
1.83517e-07
1.8352e-07
1.83518e-07
1.8352e-07
1.83518e-07
1.83519e-07
1.83518e-07
1.83519e-07
1.83519e-07
1.83519e-07
1.83519e-07
1.83518e-07
1.83519e-07
1.83518e-07
1.8352e-07
1.83518e-07
1.8352e-07
1.83517e-07
1.83521e-07
1.83518e-07
1.83523e-07
1.83519e-07
1.83528e-07
1.83523e-07
1.83537e-07
1.83532e-07
1.83559e-07
1.83554e-07
1.83592e-07
1.83567e-07
1.83535e-07
1.83363e-07
1.82997e-07
1.82585e-07
1.79199e-07
1.79626e-07
1.80002e-07
1.8018e-07
1.80215e-07
1.80241e-07
1.80204e-07
1.80208e-07
1.80182e-07
1.80186e-07
1.80172e-07
1.80177e-07
1.80168e-07
1.80172e-07
1.80166e-07
1.8017e-07
1.80166e-07
1.80169e-07
1.80166e-07
1.80168e-07
1.80167e-07
1.80168e-07
1.80167e-07
1.80167e-07
1.80167e-07
1.80167e-07
1.80167e-07
1.80167e-07
1.80168e-07
1.80167e-07
1.80168e-07
1.80166e-07
1.80169e-07
1.80166e-07
1.8017e-07
1.80166e-07
1.80172e-07
1.80168e-07
1.80177e-07
1.80172e-07
1.80186e-07
1.80181e-07
1.80208e-07
1.80204e-07
1.80241e-07
1.80215e-07
1.80179e-07
1.80001e-07
1.79626e-07
1.79199e-07
1.75868e-07
1.76308e-07
1.76692e-07
1.76875e-07
1.76913e-07
1.76941e-07
1.76904e-07
1.76908e-07
1.76881e-07
1.76886e-07
1.76871e-07
1.76875e-07
1.76866e-07
1.7687e-07
1.76865e-07
1.76868e-07
1.76864e-07
1.76867e-07
1.76865e-07
1.76867e-07
1.76865e-07
1.76866e-07
1.76865e-07
1.76866e-07
1.76865e-07
1.76865e-07
1.76866e-07
1.76865e-07
1.76866e-07
1.76865e-07
1.76867e-07
1.76865e-07
1.76867e-07
1.76864e-07
1.76868e-07
1.76865e-07
1.7687e-07
1.76866e-07
1.76875e-07
1.76871e-07
1.76886e-07
1.76881e-07
1.76908e-07
1.76904e-07
1.7694e-07
1.76913e-07
1.76875e-07
1.76692e-07
1.76308e-07
1.75868e-07
1.72595e-07
1.73045e-07
1.73435e-07
1.73622e-07
1.73663e-07
1.73691e-07
1.73655e-07
1.73659e-07
1.73632e-07
1.73636e-07
1.73621e-07
1.73626e-07
1.73617e-07
1.7362e-07
1.73615e-07
1.73618e-07
1.73614e-07
1.73617e-07
1.73615e-07
1.73616e-07
1.73615e-07
1.73616e-07
1.73615e-07
1.73616e-07
1.73615e-07
1.73615e-07
1.73616e-07
1.73615e-07
1.73616e-07
1.73615e-07
1.73616e-07
1.73615e-07
1.73617e-07
1.73614e-07
1.73618e-07
1.73615e-07
1.73621e-07
1.73617e-07
1.73626e-07
1.73621e-07
1.73636e-07
1.73632e-07
1.73659e-07
1.73655e-07
1.73691e-07
1.73663e-07
1.73622e-07
1.73435e-07
1.73045e-07
1.72595e-07
1.69381e-07
1.69837e-07
1.70232e-07
1.70423e-07
1.70466e-07
1.70495e-07
1.70459e-07
1.70463e-07
1.70436e-07
1.7044e-07
1.70424e-07
1.70429e-07
1.7042e-07
1.70423e-07
1.70418e-07
1.70421e-07
1.70417e-07
1.7042e-07
1.70417e-07
1.70419e-07
1.70418e-07
1.70419e-07
1.70418e-07
1.70418e-07
1.70418e-07
1.70418e-07
1.70418e-07
1.70418e-07
1.70419e-07
1.70418e-07
1.70419e-07
1.70417e-07
1.7042e-07
1.70417e-07
1.70421e-07
1.70418e-07
1.70423e-07
1.7042e-07
1.70429e-07
1.70425e-07
1.7044e-07
1.70436e-07
1.70463e-07
1.70459e-07
1.70495e-07
1.70466e-07
1.70423e-07
1.70232e-07
1.69837e-07
1.69381e-07
1.66224e-07
1.66686e-07
1.67085e-07
1.67278e-07
1.67323e-07
1.67353e-07
1.67317e-07
1.6732e-07
1.67294e-07
1.67297e-07
1.67282e-07
1.67286e-07
1.67277e-07
1.6728e-07
1.67275e-07
1.67278e-07
1.67274e-07
1.67277e-07
1.67274e-07
1.67276e-07
1.67275e-07
1.67276e-07
1.67275e-07
1.67275e-07
1.67275e-07
1.67275e-07
1.67275e-07
1.67275e-07
1.67276e-07
1.67275e-07
1.67276e-07
1.67274e-07
1.67277e-07
1.67274e-07
1.67278e-07
1.67275e-07
1.67281e-07
1.67277e-07
1.67286e-07
1.67282e-07
1.67297e-07
1.67294e-07
1.6732e-07
1.67317e-07
1.67353e-07
1.67323e-07
1.67278e-07
1.67085e-07
1.66686e-07
1.66224e-07
)
;

boundaryField
{
    fuel
    {
        type            fixedValue;
        value           uniform 0;
    }
    wall
    {
        type            zeroGradient;
    }
    outlet
    {
        type            zeroGradient;
    }
    frontAndBack
    {
        type            empty;
    }
    procBoundary1to0
    {
        type            processor;
        value           nonuniform List<scalar> 
50
(
1.63127e-07
1.63594e-07
1.63994e-07
1.64189e-07
1.64235e-07
1.64266e-07
1.64231e-07
1.64233e-07
1.64206e-07
1.64209e-07
1.64194e-07
1.64198e-07
1.64189e-07
1.64193e-07
1.64187e-07
1.6419e-07
1.64186e-07
1.64189e-07
1.64186e-07
1.64188e-07
1.64187e-07
1.64188e-07
1.64187e-07
1.64187e-07
1.64187e-07
1.64187e-07
1.64187e-07
1.64187e-07
1.64188e-07
1.64187e-07
1.64188e-07
1.64186e-07
1.64189e-07
1.64186e-07
1.6419e-07
1.64187e-07
1.64193e-07
1.64189e-07
1.64198e-07
1.64194e-07
1.64209e-07
1.64206e-07
1.64233e-07
1.64231e-07
1.64266e-07
1.64235e-07
1.64189e-07
1.63994e-07
1.63594e-07
1.63127e-07
)
;
    }
}


// ************************************************************************* //
