/*--------------------------------*- C++ -*----------------------------------*\
| =========                 |                                                 |
| \\      /  F ield         | OpenFOAM: The Open Source CFD Toolbox           |
|  \\    /   O peration     | Version:  dev                                   |
|   \\  /    A nd           | Web:      www.OpenFOAM.org                      |
|    \\/     M anipulation  |                                                 |
\*---------------------------------------------------------------------------*/
FoamFile
{
    version     2.0;
    format      ascii;
    class       volScalarField;
    location    "0.08";
    object      A3-4;
}
// * * * * * * * * * * * * * * * * * * * * * * * * * * * * * * * * * * * * * //

dimensions      [0 0 0 0 0 0 0];

internalField   nonuniform List<scalar> 
250
(
2.80278e-11
2.22097e-11
1.56284e-11
1.39694e-11
1.28412e-11
1.26639e-11
1.26016e-11
1.24375e-11
1.25842e-11
1.24082e-11
2.06601e-11
1.62067e-11
1.1707e-11
1.05985e-11
9.74242e-12
9.60965e-12
9.56432e-12
9.4299e-12
9.55276e-12
9.40542e-12
9.40125e-12
9.51022e-12
9.40038e-12
9.54009e-12
9.51756e-12
9.7597e-12
1.01577e-11
1.20549e-11
1.50051e-11
2.18533e-11
1.47667e-11
1.15098e-11
8.50963e-12
7.79588e-12
7.16761e-12
7.06939e-12
7.03774e-12
6.93187e-12
7.03079e-12
6.9123e-12
6.90933e-12
6.99789e-12
6.90881e-12
7.02063e-12
6.99812e-12
7.18488e-12
7.45318e-12
8.76384e-12
1.05834e-11
1.52521e-11
1.0206e-11
7.92965e-12
5.98493e-12
5.54611e-12
5.10171e-12
5.02777e-12
5.0066e-12
4.9264e-12
5.00302e-12
4.91137e-12
4.90923e-12
4.97846e-12
4.90895e-12
4.99495e-12
4.97446e-12
5.11736e-12
5.29112e-12
6.16485e-12
7.24194e-12
1.02966e-11
6.7885e-12
5.26971e-12
4.05016e-12
3.77674e-12
3.46724e-12
3.43762e-12
3.42415e-12
3.36581e-12
3.42285e-12
3.35471e-12
3.35321e-12
3.40523e-12
3.35309e-12
3.41658e-12
3.39916e-12
3.47927e-12
3.5906e-12
4.17385e-12
4.76095e-12
6.6972e-12
4.26809e-12
3.34365e-12
2.61088e-12
2.45707e-12
2.25452e-12
2.23599e-12
2.22785e-12
2.18732e-12
2.2279e-12
2.17947e-12
2.17846e-12
2.21583e-12
2.17843e-12
2.2232e-12
2.20938e-12
2.26389e-12
2.33038e-12
2.69372e-12
3.00092e-12
4.16307e-12
2.52753e-12
1.98929e-12
1.57406e-12
1.4939e-12
1.36865e-12
1.3578e-12
1.3532e-12
1.32668e-12
1.35392e-12
1.32144e-12
1.32077e-12
1.34612e-12
1.32079e-12
1.35058e-12
1.34037e-12
1.37554e-12
1.41262e-12
1.62765e-12
1.7744e-12
2.4335e-12
1.3591e-12
1.07524e-12
8.59626e-13
8.22191e-13
7.51031e-13
7.45237e-13
7.42867e-13
7.26975e-13
7.43739e-13
7.23766e-13
7.23361e-13
7.39138e-13
7.23385e-13
7.41569e-13
7.34713e-13
7.55693e-13
7.74263e-13
8.92246e-13
9.53291e-13
1.29837e-12
6.303e-13
5.01398e-13
4.04011e-13
3.89166e-13
3.53988e-13
3.51304e-13
3.50253e-13
3.4201e-13
3.50939e-13
3.40313e-13
3.40093e-13
3.48594e-13
3.40103e-13
3.49732e-13
3.45769e-13
3.56727e-13
3.64552e-13
4.21593e-13
4.41888e-13
6.00847e-13
2.35581e-13
1.88767e-13
1.53354e-13
1.48653e-13
1.3474e-13
1.33735e-13
1.33361e-13
1.29964e-13
1.33736e-13
1.2925e-13
1.29154e-13
1.32788e-13
1.29155e-13
1.33209e-13
1.31409e-13
1.36003e-13
1.38558e-13
1.60923e-13
1.65723e-13
2.25203e-13
6.4744e-14
5.21393e-14
4.25915e-14
4.14656e-14
3.74354e-14
3.71537e-14
3.70521e-14
3.60345e-14
3.71947e-14
3.58132e-14
3.57846e-14
3.69134e-14
3.57842e-14
3.70247e-14
3.64393e-14
3.78517e-14
3.84502e-14
4.49441e-14
4.56487e-14
6.22442e-14
1.08635e-14
8.79352e-15
7.25076e-15
7.07243e-15
6.39699e-15
6.3486e-15
6.33243e-15
6.15756e-15
6.36076e-15
6.11818e-15
6.1135e-15
6.31285e-15
6.11326e-15
6.33039e-15
6.22301e-15
6.47416e-15
6.55487e-15
7.66536e-15
7.72003e-15
1.05032e-14
1.92202e-15
1.58036e-15
1.33052e-15
1.29912e-15
1.19071e-15
1.18257e-15
1.17948e-15
1.15128e-15
1.18431e-15
1.14444e-15
1.14389e-15
1.17632e-15
1.14409e-15
1.17892e-15
1.16215e-15
1.20208e-15
1.21695e-15
1.39198e-15
1.41171e-15
1.84991e-15
)
;

boundaryField
{
    fuel
    {
        type            fixedValue;
        value           nonuniform 0();
    }
    wall
    {
        type            zeroGradient;
    }
    outlet
    {
        type            zeroGradient;
    }
    frontAndBack
    {
        type            empty;
    }
    procBoundary1to0
    {
        type            processor;
        value           nonuniform List<scalar> 
21
(
3.692e-11
2.96782e-11
2.02819e-11
1.78754e-11
1.64365e-11
1.62048e-11
1.6123e-11
1.59305e-11
1.60987e-11
1.58973e-11
1.24028e-11
1.24028e-11
1.25319e-11
1.24014e-11
1.25696e-11
1.25491e-11
1.28588e-11
1.34238e-11
1.60968e-11
2.06748e-11
3.037e-11
)
;
    }
}


// ************************************************************************* //
