/*--------------------------------*- C++ -*----------------------------------*\
| =========                 |                                                 |
| \\      /  F ield         | OpenFOAM: The Open Source CFD Toolbox           |
|  \\    /   O peration     | Version:  dev                                   |
|   \\  /    A nd           | Web:      www.OpenFOAM.org                      |
|    \\/     M anipulation  |                                                 |
\*---------------------------------------------------------------------------*/
FoamFile
{
    version     2.0;
    format      ascii;
    class       volScalarField;
    location    "0.08";
    object      A3C2H;
}
// * * * * * * * * * * * * * * * * * * * * * * * * * * * * * * * * * * * * * //

dimensions      [0 0 0 0 0 0 0];

internalField   nonuniform List<scalar> 
250
(
3.2751e-11
2.28791e-11
1.53667e-11
1.3329e-11
1.25839e-11
1.24208e-11
1.2378e-11
1.23295e-11
1.23716e-11
1.23255e-11
2.80497e-11
1.98165e-11
1.38487e-11
1.22021e-11
1.15484e-11
1.14059e-11
1.13685e-11
1.13186e-11
1.13636e-11
1.13133e-11
1.13105e-11
1.13447e-11
1.13033e-11
1.13542e-11
1.13652e-11
1.15357e-11
1.20194e-11
1.4037e-11
1.93671e-11
3.0855e-11
2.38197e-11
1.70198e-11
1.23052e-11
1.09928e-11
1.04268e-11
1.03033e-11
1.02714e-11
1.02216e-11
1.02682e-11
1.02155e-11
1.02131e-11
1.02499e-11
1.02071e-11
1.02593e-11
1.02646e-11
1.04197e-11
1.08141e-11
1.24526e-11
1.65382e-11
2.54661e-11
2.0023e-11
1.44671e-11
1.07682e-11
9.73774e-12
9.25742e-12
9.15035e-12
9.12398e-12
9.07639e-12
9.12238e-12
9.07014e-12
9.06798e-12
9.10544e-12
9.06303e-12
9.11409e-12
9.11475e-12
9.25513e-12
9.57053e-12
1.08817e-11
1.39736e-11
2.08373e-11
1.66656e-11
1.21732e-11
9.29435e-12
8.48131e-12
8.07862e-12
8.00743e-12
7.98636e-12
7.94355e-12
7.98623e-12
7.93778e-12
7.93591e-12
7.97135e-12
7.93179e-12
7.97873e-12
7.97621e-12
8.07897e-12
8.32909e-12
9.37846e-12
1.16747e-11
1.69174e-11
1.37376e-11
1.01842e-11
7.96171e-12
7.33337e-12
7.01155e-12
6.95403e-12
6.93768e-12
6.9021e-12
6.93865e-12
6.89742e-12
6.89585e-12
6.92643e-12
6.89239e-12
6.93216e-12
6.92844e-12
7.01361e-12
7.20734e-12
8.01906e-12
9.73172e-12
1.36843e-11
1.13853e-11
8.55692e-12
6.85039e-12
6.36437e-12
6.11722e-12
6.07144e-12
6.059e-12
6.03216e-12
6.06057e-12
6.02891e-12
6.02766e-12
6.0513e-12
6.02477e-12
6.05525e-12
6.05222e-12
6.11938e-12
6.26804e-12
6.88238e-12
8.16713e-12
1.11253e-11
9.58678e-12
7.3272e-12
6.01564e-12
5.63616e-12
5.45302e-12
5.41672e-12
5.40723e-12
5.38906e-12
5.40895e-12
5.38721e-12
5.38628e-12
5.4024e-12
5.38393e-12
5.40475e-12
5.40366e-12
5.4541e-12
5.56852e-12
6.02474e-12
7.00308e-12
9.2124e-12
8.30596e-12
6.48082e-12
5.46339e-12
5.16268e-12
5.02922e-12
5.0002e-12
4.99273e-12
4.98158e-12
4.99433e-12
4.98075e-12
4.98015e-12
4.98987e-12
4.97836e-12
4.991e-12
4.99217e-12
5.02879e-12
5.11854e-12
5.45462e-12
6.21504e-12
7.87688e-12
7.44324e-12
5.94776e-12
5.14617e-12
4.90443e-12
4.80581e-12
4.78219e-12
4.77603e-12
4.76944e-12
4.77746e-12
4.76909e-12
4.7688e-12
4.77427e-12
4.76758e-12
4.77463e-12
4.77757e-12
4.80413e-12
4.87659e-12
5.12654e-12
5.72955e-12
7.00268e-12
6.87248e-12
5.63048e-12
4.98805e-12
4.79143e-12
4.71562e-12
4.69595e-12
4.69064e-12
4.6864e-12
4.69199e-12
4.68611e-12
4.68609e-12
4.68941e-12
4.6854e-12
4.68934e-12
4.69325e-12
4.71326e-12
4.77344e-12
4.96436e-12
5.45119e-12
6.45431e-12
6.49157e-12
5.4422e-12
4.9158e-12
4.75319e-12
4.69164e-12
4.67478e-12
4.67009e-12
4.66673e-12
4.67146e-12
4.66624e-12
4.66644e-12
4.66907e-12
4.6662e-12
4.66879e-12
4.67298e-12
4.68912e-12
4.74048e-12
4.89279e-12
5.2952e-12
6.11723e-12
6.25657e-12
5.3329e-12
4.88025e-12
4.7394e-12
4.68616e-12
4.67105e-12
4.66678e-12
4.66369e-12
4.66819e-12
4.66303e-12
4.66336e-12
4.66586e-12
4.66341e-12
4.66547e-12
4.66964e-12
4.68371e-12
4.72943e-12
4.85936e-12
5.20945e-12
5.92572e-12
)
;

boundaryField
{
    fuel
    {
        type            fixedValue;
        value           nonuniform 0();
    }
    wall
    {
        type            zeroGradient;
    }
    outlet
    {
        type            zeroGradient;
    }
    frontAndBack
    {
        type            empty;
    }
    procBoundary1to0
    {
        type            processor;
        value           nonuniform List<scalar> 
21
(
3.80006e-11
2.6263e-11
1.68475e-11
1.43561e-11
1.35145e-11
1.33299e-11
1.32822e-11
1.32359e-11
1.32744e-11
1.32337e-11
1.23223e-11
1.23223e-11
1.23526e-11
1.23138e-11
1.23618e-11
1.23789e-11
1.25658e-11
1.31482e-11
1.56034e-11
2.24541e-11
3.70848e-11
)
;
    }
}


// ************************************************************************* //
