/*--------------------------------*- C++ -*----------------------------------*\
| =========                 |                                                 |
| \\      /  F ield         | OpenFOAM: The Open Source CFD Toolbox           |
|  \\    /   O peration     | Version:  dev                                   |
|   \\  /    A nd           | Web:      www.OpenFOAM.org                      |
|    \\/     M anipulation  |                                                 |
\*---------------------------------------------------------------------------*/
FoamFile
{
    version     2.0;
    format      ascii;
    class       volScalarField;
    location    "0.08";
    object      C;
}
// * * * * * * * * * * * * * * * * * * * * * * * * * * * * * * * * * * * * * //

dimensions      [0 0 0 0 0 0 0];

internalField   nonuniform List<scalar> 
25
(
1.89992e-09
1.43193e-09
1.10561e-09
8.64887e-10
6.82036e-10
5.4032e-10
4.29272e-10
3.41992e-10
2.72989e-10
2.19774e-10
1.78852e-10
1.47906e-10
1.24996e-10
1.08509e-10
9.71162e-11
8.97291e-11
8.54718e-11
8.3645e-11
8.36947e-11
8.51827e-11
8.7761e-11
9.12099e-11
9.51861e-11
9.96844e-11
1.04497e-10
)
;

boundaryField
{
    wall
    {
        type            zeroGradient;
    }
    fuel
    {
        type            fixedValue;
        value           nonuniform 0();
    }
    outlet
    {
        type            inletOutlet;
        inletValue      nonuniform 0();
        value           nonuniform 0();
    }
    procBoundary1to0
    {
        type            processor;
        value           uniform 2.53179e-09;
    }
    procBoundary1to2
    {
        type            processor;
        value           uniform 1.09123e-10;
    }
}


// ************************************************************************* //
