/*--------------------------------*- C++ -*----------------------------------*\
| =========                 |                                                 |
| \\      /  F ield         | OpenFOAM: The Open Source CFD Toolbox           |
|  \\    /   O peration     | Version:  dev                                   |
|   \\  /    A nd           | Web:      www.OpenFOAM.org                      |
|    \\/     M anipulation  |                                                 |
\*---------------------------------------------------------------------------*/
FoamFile
{
    version     2.0;
    format      ascii;
    class       volScalarField;
    location    "0.08";
    object      C2H6;
}
// * * * * * * * * * * * * * * * * * * * * * * * * * * * * * * * * * * * * * //

dimensions      [0 0 0 0 0 0 0];

internalField   nonuniform List<scalar> 
25
(
4.24947e-14
2.77712e-14
1.94944e-14
1.44641e-14
1.11965e-14
8.9343e-15
7.28873e-15
6.05791e-15
5.12541e-15
4.4475e-15
3.98294e-15
3.71695e-15
3.65031e-15
3.80213e-15
4.21599e-15
4.9697e-15
6.19002e-15
8.07422e-15
1.09213e-14
1.51766e-14
2.14966e-14
3.10145e-14
4.4797e-14
6.55147e-14
9.5816e-14
)
;

boundaryField
{
    wall
    {
        type            zeroGradient;
    }
    fuel
    {
        type            fixedValue;
        value           nonuniform 0();
    }
    outlet
    {
        type            inletOutlet;
        inletValue      nonuniform 0();
        value           nonuniform 0();
    }
    procBoundary1to0
    {
        type            processor;
        value           uniform 6.81509e-14;
    }
    procBoundary1to2
    {
        type            processor;
        value           uniform 1.39415e-13;
    }
}


// ************************************************************************* //
