/*--------------------------------*- C++ -*----------------------------------*\
| =========                 |                                                 |
| \\      /  F ield         | OpenFOAM: The Open Source CFD Toolbox           |
|  \\    /   O peration     | Version:  dev                                   |
|   \\  /    A nd           | Web:      www.OpenFOAM.org                      |
|    \\/     M anipulation  |                                                 |
\*---------------------------------------------------------------------------*/
FoamFile
{
    version     2.0;
    format      ascii;
    class       volScalarField;
    location    "0.08";
    object      CH3O;
}
// * * * * * * * * * * * * * * * * * * * * * * * * * * * * * * * * * * * * * //

dimensions      [0 0 0 0 0 0 0];

internalField   nonuniform List<scalar> 
25
(
6.85357e-12
5.34198e-12
4.26768e-12
3.45602e-12
2.82212e-12
2.31568e-12
1.90616e-12
1.57409e-12
1.30369e-12
1.0896e-12
9.2148e-13
7.92774e-13
6.9771e-13
6.31255e-13
5.89038e-13
5.67323e-13
5.62965e-13
5.73349e-13
5.96318e-13
6.30087e-13
6.73172e-13
7.25269e-13
7.83444e-13
8.49442e-13
9.21443e-13
)
;

boundaryField
{
    wall
    {
        type            zeroGradient;
    }
    fuel
    {
        type            fixedValue;
        value           nonuniform 0();
    }
    outlet
    {
        type            inletOutlet;
        inletValue      nonuniform 0();
        value           nonuniform 0();
    }
    procBoundary1to0
    {
        type            processor;
        value           uniform 8.82594e-12;
    }
    procBoundary1to2
    {
        type            processor;
        value           uniform 9.93548e-13;
    }
}


// ************************************************************************* //
