/*--------------------------------*- C++ -*----------------------------------*\
| =========                 |                                                 |
| \\      /  F ield         | OpenFOAM: The Open Source CFD Toolbox           |
|  \\    /   O peration     | Version:  dev                                   |
|   \\  /    A nd           | Web:      www.OpenFOAM.org                      |
|    \\/     M anipulation  |                                                 |
\*---------------------------------------------------------------------------*/
FoamFile
{
    version     2.0;
    format      ascii;
    class       volScalarField;
    location    "0.08";
    object      dQ;
}
// * * * * * * * * * * * * * * * * * * * * * * * * * * * * * * * * * * * * * //

dimensions      [1 2 -3 0 0 0 0];

internalField   nonuniform List<scalar> 
2000
(
0.930239
0.933118
0.935165
0.93608
0.936211
0.936403
0.936331
0.936416
0.936347
0.936401
0.936353
0.936391
0.936358
0.936382
0.936361
0.936378
0.936362
0.936376
0.936367
0.936374
0.936368
0.936372
0.936368
0.936371
0.93637
0.93637
0.936371
0.936368
0.936372
0.936368
0.936374
0.936366
0.936375
0.936363
0.936378
0.936361
0.936382
0.936358
0.936391
0.936353
0.936401
0.936347
0.936416
0.936331
0.936403
0.936211
0.93608
0.935165
0.933118
0.930239
6.52607
6.53651
6.54583
6.5501
6.55012
6.55129
6.55065
6.55127
6.55076
6.55117
6.55082
6.5511
6.55087
6.55105
6.55089
6.55102
6.55091
6.551
6.55094
6.55099
6.55095
6.55098
6.55095
6.55097
6.55096
6.55096
6.55097
6.55095
6.55098
6.55095
6.55099
6.55094
6.551
6.55091
6.55102
6.55089
6.55105
6.55087
6.5511
6.55082
6.55117
6.55076
6.55127
6.55065
6.55129
6.55012
6.5501
6.54583
6.53651
6.52607
4.77055
4.77556
4.77918
4.78077
4.78004
4.78081
4.78019
4.78071
4.78027
4.78063
4.78033
4.78058
4.78038
4.78054
4.78041
4.78051
4.78042
4.7805
4.78044
4.78049
4.78045
4.78048
4.78046
4.78047
4.78046
4.78046
4.78047
4.78046
4.78048
4.78045
4.78049
4.78044
4.7805
4.78042
4.78052
4.7804
4.78054
4.78038
4.78058
4.78033
4.78063
4.78027
4.78071
4.78019
4.78081
4.78004
4.78077
4.77918
4.77556
4.77055
2.98891
2.99342
2.99734
2.99889
2.99832
2.99901
2.99847
2.99892
2.99853
2.99885
2.99859
2.9988
2.99862
2.99876
2.99865
2.99874
2.99866
2.99873
2.99868
2.99872
2.99869
2.99871
2.99869
2.9987
2.9987
2.9987
2.9987
2.99869
2.99871
2.99869
2.99872
2.99868
2.99873
2.99866
2.99875
2.99865
2.99876
2.99862
2.9988
2.99859
2.99885
2.99853
2.99892
2.99846
2.99901
2.99832
2.99889
2.99734
2.99342
2.98891
1.87365
1.87683
1.87994
1.88103
1.88057
1.88108
1.88067
1.88101
1.88071
1.88095
1.88075
1.88092
1.88078
1.88089
1.8808
1.88087
1.88081
1.88086
1.88082
1.88085
1.88083
1.88085
1.88083
1.88084
1.88084
1.88084
1.88084
1.88083
1.88085
1.88083
1.88085
1.88082
1.88086
1.88081
1.88087
1.8808
1.88089
1.88078
1.88092
1.88075
1.88095
1.88071
1.88101
1.88067
1.88108
1.88057
1.88103
1.87994
1.87683
1.87365
1.1353
1.13737
1.13969
1.1404
1.14007
1.14041
1.14012
1.14036
1.14016
1.14032
1.14018
1.1403
1.1402
1.14028
1.14022
1.14027
1.14022
1.14026
1.14023
1.14025
1.14024
1.14025
1.14024
1.14025
1.14024
1.14024
1.14025
1.14024
1.14025
1.14024
1.14025
1.14023
1.14026
1.14022
1.14027
1.14022
1.14028
1.1402
1.1403
1.14018
1.14032
1.14016
1.14036
1.14012
1.14041
1.14007
1.14039
1.13969
1.13737
1.1353
0.684171
0.685543
0.687274
0.687766
0.687555
0.687787
0.687588
0.68775
0.687608
0.687722
0.687627
0.687705
0.687641
0.687691
0.68765
0.687684
0.687654
0.687679
0.68766
0.687675
0.687663
0.687671
0.687665
0.687669
0.687667
0.687667
0.687669
0.687665
0.687671
0.687663
0.687675
0.68766
0.687679
0.687654
0.687684
0.687649
0.687692
0.687641
0.687705
0.687627
0.687722
0.687608
0.68775
0.687588
0.687787
0.687556
0.687766
0.687275
0.685543
0.684171
0.419375
0.420315
0.421621
0.42198
0.421847
0.422007
0.42187
0.421981
0.421883
0.421961
0.421896
0.42195
0.421905
0.42194
0.421911
0.421935
0.421914
0.421931
0.421918
0.421928
0.42192
0.421926
0.421921
0.421924
0.421923
0.421923
0.421924
0.421921
0.421926
0.42192
0.421928
0.421918
0.421931
0.421914
0.421935
0.421911
0.42194
0.421905
0.421949
0.421896
0.421961
0.421883
0.421981
0.42187
0.422007
0.421847
0.421979
0.421621
0.420315
0.419375
0.263807
0.264471
0.265459
0.265729
0.265647
0.265759
0.265664
0.265741
0.265672
0.265727
0.265681
0.265719
0.265687
0.265712
0.265692
0.265708
0.265694
0.265706
0.265697
0.265704
0.265698
0.265702
0.265699
0.265701
0.2657
0.2657
0.265701
0.265699
0.265702
0.265698
0.265704
0.265697
0.265706
0.265694
0.265708
0.265691
0.265712
0.265687
0.265718
0.265681
0.265727
0.265672
0.265741
0.265663
0.265759
0.265647
0.265729
0.265459
0.264471
0.263807
0.170878
0.171365
0.172124
0.172334
0.172283
0.172364
0.172296
0.172352
0.172301
0.172341
0.172308
0.172335
0.172312
0.17233
0.172315
0.172327
0.172317
0.172325
0.172319
0.172324
0.17232
0.172323
0.17232
0.172322
0.172321
0.172321
0.172322
0.17232
0.172323
0.17232
0.172324
0.172319
0.172325
0.172317
0.172327
0.172315
0.17233
0.172312
0.172335
0.172308
0.172341
0.172301
0.172352
0.172296
0.172364
0.172283
0.172333
0.172124
0.171365
0.170878
0.113893
0.114264
0.114856
0.115023
0.114991
0.115052
0.115002
0.115043
0.115005
0.115035
0.11501
0.11503
0.115013
0.115026
0.115015
0.115024
0.115017
0.115023
0.115018
0.115022
0.115019
0.115021
0.115019
0.11502
0.11502
0.11502
0.11502
0.115019
0.115021
0.115019
0.115022
0.115018
0.115023
0.115017
0.115024
0.115015
0.115026
0.115013
0.11503
0.11501
0.115035
0.115005
0.115043
0.115001
0.115052
0.114991
0.115023
0.114856
0.114264
0.113893
0.0766571
0.0769304
0.0773647
0.0774897
0.0774693
0.0775129
0.0774768
0.0775063
0.0774794
0.0775003
0.0774826
0.077497
0.077485
0.0774943
0.0774865
0.0774929
0.0774872
0.0774919
0.0774884
0.0774911
0.0774889
0.0774905
0.0774892
0.07749
0.0774897
0.0774897
0.07749
0.0774892
0.0774905
0.0774889
0.0774911
0.0774884
0.0774919
0.0774873
0.0774929
0.0774864
0.0774943
0.077485
0.0774969
0.0774826
0.0775004
0.0774793
0.0775063
0.0774768
0.0775129
0.0774693
0.0774896
0.0773648
0.0769304
0.0766571
0.0534531
0.0536747
0.0540224
0.0541248
0.0541106
0.0541449
0.0541165
0.0541396
0.0541183
0.0541348
0.0541208
0.0541321
0.0541226
0.0541299
0.0541238
0.0541289
0.0541244
0.0541281
0.0541254
0.0541275
0.0541257
0.054127
0.054126
0.0541266
0.0541263
0.0541263
0.0541266
0.054126
0.054127
0.0541257
0.0541275
0.0541253
0.0541281
0.0541245
0.0541289
0.0541238
0.05413
0.0541227
0.054132
0.0541208
0.0541348
0.0541183
0.0541396
0.0541164
0.0541448
0.0541106
0.0541247
0.0540224
0.0536747
0.0534531
0.0379335
0.0380557
0.0382838
0.0383522
0.0383502
0.0383721
0.0383559
0.0383698
0.038357
0.0383668
0.0383583
0.038365
0.0383593
0.0383637
0.03836
0.0383629
0.0383603
0.0383625
0.0383608
0.0383621
0.038361
0.0383617
0.0383611
0.0383615
0.0383613
0.0383613
0.0383615
0.0383611
0.0383617
0.038361
0.0383621
0.0383608
0.0383624
0.0383603
0.038363
0.0383599
0.0383637
0.0383593
0.038365
0.0383583
0.0383668
0.0383569
0.0383698
0.0383559
0.0383721
0.0383502
0.0383522
0.0382838
0.0380557
0.0379336
0.0270625
0.0271549
0.0273249
0.0273766
0.0273758
0.0273919
0.02738
0.0273903
0.0273807
0.027388
0.0273817
0.0273867
0.0273824
0.0273856
0.0273829
0.0273851
0.0273831
0.0273848
0.0273835
0.0273845
0.0273837
0.0273842
0.0273838
0.0273841
0.0273839
0.0273839
0.0273841
0.0273838
0.0273842
0.0273837
0.0273845
0.0273835
0.0273847
0.0273831
0.0273851
0.0273829
0.0273857
0.0273824
0.0273866
0.0273817
0.027388
0.0273807
0.0273902
0.02738
0.0273919
0.0273758
0.0273765
0.0273249
0.0271549
0.0270625
0.019796
0.0198701
0.0200037
0.0200448
0.0200447
0.0200573
0.0200479
0.0200559
0.0200484
0.0200541
0.0200492
0.0200531
0.0200498
0.0200523
0.0200501
0.0200519
0.0200503
0.0200516
0.0200506
0.0200514
0.0200507
0.0200512
0.0200508
0.020051
0.0200509
0.0200509
0.020051
0.0200508
0.0200512
0.0200507
0.0200514
0.0200506
0.0200516
0.0200503
0.0200519
0.0200501
0.0200523
0.0200498
0.0200531
0.0200492
0.0200541
0.0200484
0.0200559
0.0200479
0.0200572
0.0200447
0.0200448
0.0200037
0.0198701
0.019796
0.0144821
0.0145488
0.0146617
0.0146998
0.014702
0.0147128
0.0147054
0.0147118
0.0147057
0.0147102
0.0147062
0.0147093
0.0147066
0.0147086
0.0147068
0.0147082
0.014707
0.014708
0.0147072
0.0147078
0.0147073
0.0147076
0.0147074
0.0147075
0.0147075
0.0147075
0.0147075
0.0147074
0.0147077
0.0147073
0.0147078
0.0147072
0.014708
0.014707
0.0147082
0.0147068
0.0147086
0.0147066
0.0147093
0.0147062
0.0147102
0.0147057
0.0147118
0.0147054
0.0147128
0.014702
0.0146997
0.0146617
0.0145488
0.0144821
0.010785
0.01084
0.0109294
0.0109601
0.0109623
0.0109709
0.010965
0.0109701
0.0109652
0.0109688
0.0109656
0.010968
0.0109659
0.0109675
0.0109661
0.0109672
0.0109662
0.010967
0.0109664
0.0109669
0.0109664
0.0109667
0.0109665
0.0109666
0.0109666
0.0109666
0.0109666
0.0109665
0.0109667
0.0109664
0.0109668
0.0109664
0.010967
0.0109662
0.0109672
0.0109661
0.0109675
0.0109659
0.010968
0.0109656
0.0109688
0.0109652
0.0109701
0.010965
0.0109709
0.0109623
0.0109601
0.0109294
0.01084
0.010785
0.0079858
0.00803732
0.00811534
0.00814336
0.00814498
0.00815256
0.00814711
0.00815168
0.00814726
0.0081505
0.00814765
0.00814986
0.00814795
0.00814939
0.00814814
0.00814914
0.00814824
0.00814898
0.00814842
0.00814886
0.00814849
0.00814874
0.00814854
0.00814867
0.00814861
0.00814861
0.00814867
0.00814854
0.00814875
0.00814849
0.00814885
0.00814842
0.00814898
0.00814825
0.00814915
0.00814814
0.00814939
0.00814795
0.00814986
0.00814765
0.00815051
0.00814725
0.00815168
0.00814711
0.00815255
0.00814497
0.00814336
0.00811534
0.00803732
0.0079858
0.00591183
0.00595525
0.0060159
0.00603797
0.0060393
0.00604517
0.00604088
0.00604444
0.00604097
0.00604351
0.00604129
0.00604302
0.00604153
0.00604265
0.00604169
0.00604247
0.00604176
0.00604235
0.00604191
0.00604225
0.00604196
0.00604216
0.006042
0.0060421
0.00604205
0.00604205
0.0060421
0.006042
0.00604216
0.00604196
0.00604225
0.0060419
0.00604234
0.00604177
0.00604247
0.00604168
0.00604266
0.00604153
0.00604302
0.00604129
0.00604352
0.00604097
0.00604444
0.00604088
0.00604516
0.00603929
0.00603797
0.0060159
0.00595525
0.00591183
0.00441282
0.00445189
0.00450089
0.00451898
0.00452005
0.00452479
0.00452125
0.00452416
0.00452132
0.0045234
0.00452159
0.00452301
0.0045218
0.00452272
0.00452193
0.00452257
0.00452199
0.00452247
0.00452211
0.00452239
0.00452216
0.00452232
0.00452219
0.00452227
0.00452224
0.00452224
0.00452227
0.00452219
0.00452232
0.00452216
0.00452239
0.00452211
0.00452247
0.004522
0.00452257
0.00452192
0.00452272
0.0045218
0.00452301
0.00452159
0.00452341
0.00452131
0.00452416
0.00452125
0.00452479
0.00452005
0.00451898
0.00450089
0.00445189
0.00441282
0.00327715
0.00331372
0.0033536
0.0033685
0.00336927
0.00337313
0.00337015
0.00337256
0.0033702
0.00337194
0.00337045
0.00337163
0.00337063
0.0033714
0.00337075
0.00337128
0.00337081
0.00337121
0.00337091
0.00337114
0.00337095
0.00337108
0.00337097
0.00337104
0.00337101
0.00337101
0.00337104
0.00337097
0.00337108
0.00337095
0.00337114
0.00337091
0.0033712
0.00337081
0.00337128
0.00337074
0.0033714
0.00337063
0.00337163
0.00337045
0.00337195
0.0033702
0.00337256
0.00337015
0.00337312
0.00336927
0.00336849
0.0033536
0.00331372
0.00327715
0.0024101
0.00242068
0.00245009
0.00246144
0.00246251
0.00246552
0.00246335
0.00246514
0.00246335
0.00246461
0.00246348
0.00246433
0.00246358
0.00246413
0.00246364
0.00246403
0.00246367
0.00246396
0.00246374
0.00246391
0.00246376
0.00246387
0.00246378
0.00246383
0.00246381
0.00246381
0.00246383
0.00246378
0.00246387
0.00246377
0.00246391
0.00246374
0.00246396
0.00246367
0.00246403
0.00246364
0.00246414
0.00246358
0.00246433
0.00246348
0.00246462
0.00246335
0.00246514
0.00246335
0.00246552
0.00246251
0.00246144
0.00245009
0.00242068
0.0024101
0.00174428
0.0017537
0.0017773
0.00178648
0.00178728
0.00178971
0.00178789
0.00178937
0.00178789
0.00178894
0.001788
0.00178872
0.00178809
0.00178856
0.00178815
0.00178847
0.00178818
0.00178842
0.00178824
0.00178838
0.00178826
0.00178834
0.00178827
0.00178832
0.0017883
0.0017883
0.00178832
0.00178827
0.00178834
0.00178826
0.00178838
0.00178823
0.00178842
0.00178818
0.00178848
0.00178815
0.00178856
0.00178809
0.00178871
0.00178801
0.00178894
0.00178789
0.00178936
0.00178789
0.00178971
0.00178728
0.00178648
0.0017773
0.0017537
0.00174428
0.00121093
0.00121951
0.00123923
0.00124721
0.00124796
0.00125003
0.00124846
0.0012497
0.00124844
0.00124932
0.00124853
0.00124913
0.00124861
0.001249
0.00124866
0.00124893
0.00124868
0.00124889
0.00124873
0.00124885
0.00124875
0.00124882
0.00124876
0.0012488
0.00124878
0.00124878
0.0012488
0.00124876
0.00124882
0.00124875
0.00124885
0.00124873
0.00124889
0.00124868
0.00124893
0.00124865
0.001249
0.00124861
0.00124913
0.00124854
0.00124933
0.00124844
0.0012497
0.00124846
0.00125002
0.00124796
0.00124721
0.00123923
0.00121951
0.00121094
0.000797282
0.00080444
0.000819874
0.000826158
0.000826663
0.000828283
0.00082699
0.000827992
0.000826974
0.000827696
0.000827061
0.000827552
0.000827129
0.00082745
0.000827173
0.000827398
0.000827197
0.000827366
0.000827238
0.000827337
0.000827254
0.000827313
0.000827265
0.000827295
0.000827282
0.000827282
0.000827295
0.000827265
0.000827313
0.000827255
0.000827337
0.000827237
0.000827365
0.000827198
0.000827399
0.000827172
0.000827451
0.000827129
0.000827551
0.000827063
0.000827698
0.000826972
0.000827992
0.000826991
0.00082828
0.000826663
0.000826159
0.000819874
0.000804441
0.000797283
0.000475134
0.00048108
0.000493065
0.000497959
0.000498255
0.000499514
0.000498442
0.000499254
0.000498432
0.000499025
0.000498516
0.000498919
0.00049858
0.000498844
0.000498621
0.000498806
0.000498643
0.000498781
0.000498678
0.00049876
0.000498692
0.00049874
0.000498701
0.000498726
0.000498715
0.000498715
0.000498726
0.000498701
0.00049874
0.000498693
0.000498759
0.000498677
0.000498781
0.000498644
0.000498807
0.00049862
0.000498845
0.00049858
0.000498918
0.000498517
0.000499026
0.000498431
0.000499254
0.000498442
0.000499513
0.000498255
0.000497959
0.000493065
0.000481081
0.000475135
0.000223527
0.000228389
0.000237622
0.000241368
0.000241488
0.000242454
0.00024156
0.000242221
0.000241559
0.000242048
0.000241641
0.000241975
0.000241703
0.000241921
0.000241742
0.000241895
0.000241764
0.000241877
0.000241794
0.000241861
0.000241806
0.000241846
0.000241814
0.000241835
0.000241826
0.000241826
0.000241835
0.000241814
0.000241846
0.000241806
0.000241861
0.000241793
0.000241877
0.000241764
0.000241895
0.000241742
0.000241922
0.000241703
0.000241973
0.000241643
0.000242049
0.000241558
0.000242222
0.000241561
0.000242453
0.000241488
0.000241368
0.000237622
0.00022839
0.000223527
2.66335e-05
3.05328e-05
3.7574e-05
4.03655e-05
4.03371e-05
4.10651e-05
4.0318e-05
4.0857e-05
4.03259e-05
4.07311e-05
4.04085e-05
4.0685e-05
4.04697e-05
4.06501e-05
4.05074e-05
4.06336e-05
4.05285e-05
4.06219e-05
4.05545e-05
4.06098e-05
4.05658e-05
4.05982e-05
4.05727e-05
4.05896e-05
4.05823e-05
4.05823e-05
4.05895e-05
4.05727e-05
4.05982e-05
4.0566e-05
4.06097e-05
4.05541e-05
4.06215e-05
4.0529e-05
4.06341e-05
4.0507e-05
4.06507e-05
4.04695e-05
4.06842e-05
4.04096e-05
4.0732e-05
4.03252e-05
4.08573e-05
4.03187e-05
4.10641e-05
4.03373e-05
4.0366e-05
3.75738e-05
3.05336e-05
2.66341e-05
-0.000127577
-0.00012452
-0.00011924
-0.000117235
-0.000117388
-0.000116854
-0.00011748
-0.000117039
-0.000117462
-0.000117124
-0.000117378
-0.000117147
-0.000117316
-0.000117166
-0.000117279
-0.000117174
-0.000117258
-0.000117181
-0.000117235
-0.000117189
-0.000117225
-0.000117198
-0.000117219
-0.000117205
-0.00011721
-0.00011721
-0.000117205
-0.000117219
-0.000117198
-0.000117225
-0.000117189
-0.000117235
-0.000117181
-0.000117258
-0.000117174
-0.000117279
-0.000117165
-0.000117317
-0.000117147
-0.000117377
-0.000117123
-0.000117463
-0.000117039
-0.000117479
-0.000116855
-0.000117388
-0.000117234
-0.00011924
-0.000124519
-0.000127576
-0.000248323
-0.000245997
-0.000242137
-0.000240779
-0.000241035
-0.000240659
-0.000241184
-0.000240822
-0.000241156
-0.000240872
-0.000241068
-0.000240874
-0.000241006
-0.00024088
-0.000240968
-0.000240881
-0.000240947
-0.000240883
-0.000240927
-0.000240889
-0.000240917
-0.000240895
-0.000240911
-0.0002409
-0.000240905
-0.000240905
-0.0002409
-0.000240911
-0.000240895
-0.000240917
-0.000240889
-0.000240927
-0.000240884
-0.000240947
-0.000240881
-0.000240969
-0.000240879
-0.000241006
-0.000240875
-0.000241068
-0.000240871
-0.000241157
-0.000240822
-0.000241183
-0.000240659
-0.000241035
-0.000240778
-0.000242137
-0.000245996
-0.000248322
-0.000342718
-0.000341021
-0.00033831
-0.00033748
-0.000337822
-0.000337573
-0.000338014
-0.000337716
-0.000337976
-0.000337735
-0.000337884
-0.000337719
-0.00033782
-0.000337713
-0.000337781
-0.000337708
-0.00033776
-0.000337707
-0.000337741
-0.00033771
-0.000337732
-0.000337714
-0.000337727
-0.000337717
-0.000337721
-0.000337721
-0.000337717
-0.000337727
-0.000337714
-0.000337732
-0.00033771
-0.000337741
-0.000337707
-0.00033776
-0.000337708
-0.000337782
-0.000337713
-0.00033782
-0.00033772
-0.000337883
-0.000337734
-0.000337976
-0.000337716
-0.000338013
-0.000337573
-0.000337821
-0.00033748
-0.00033831
-0.00034102
-0.000342717
-0.000416282
-0.000415125
-0.000413342
-0.000412944
-0.000413355
-0.00041321
-0.000413579
-0.000413332
-0.00041353
-0.000413323
-0.000413434
-0.000413292
-0.000413367
-0.000413276
-0.000413327
-0.000413265
-0.000413305
-0.000413261
-0.000413288
-0.000413262
-0.000413279
-0.000413264
-0.000413274
-0.000413267
-0.00041327
-0.00041327
-0.000413267
-0.000413274
-0.000413264
-0.000413279
-0.000413262
-0.000413288
-0.000413261
-0.000413305
-0.000413265
-0.000413328
-0.000413276
-0.000413367
-0.000413293
-0.000413433
-0.000413323
-0.00041353
-0.000413332
-0.000413578
-0.00041321
-0.000413354
-0.000412944
-0.000413342
-0.000415125
-0.000416281
-0.000473323
-0.000472629
-0.000471595
-0.000471547
-0.000472013
-0.000471951
-0.00047226
-0.000472053
-0.000472199
-0.00047202
-0.000472097
-0.000471975
-0.000472028
-0.000471949
-0.000471987
-0.000471934
-0.000471964
-0.000471927
-0.000471948
-0.000471926
-0.000471939
-0.000471927
-0.000471935
-0.000471928
-0.00047193
-0.000471931
-0.000471928
-0.000471935
-0.000471927
-0.000471939
-0.000471926
-0.000471948
-0.000471927
-0.000471964
-0.000471934
-0.000471987
-0.000471949
-0.000472028
-0.000471975
-0.000472097
-0.00047202
-0.000472199
-0.000472053
-0.000472259
-0.00047195
-0.000472012
-0.000471547
-0.000471594
-0.000472628
-0.000473323
-0.000517218
-0.00051692
-0.000516487
-0.000516722
-0.00051723
-0.000517234
-0.000517492
-0.000517317
-0.000517419
-0.000517262
-0.000517312
-0.000517204
-0.000517239
-0.00051717
-0.000517196
-0.000517151
-0.000517173
-0.000517142
-0.000517157
-0.000517139
-0.000517149
-0.000517138
-0.000517144
-0.000517139
-0.000517141
-0.000517141
-0.000517139
-0.000517144
-0.000517138
-0.000517149
-0.000517139
-0.000517157
-0.000517142
-0.000517173
-0.000517151
-0.000517197
-0.00051717
-0.000517239
-0.000517204
-0.000517311
-0.000517262
-0.000517419
-0.000517317
-0.000517491
-0.000517234
-0.000517229
-0.000516722
-0.000516486
-0.000516919
-0.000517217
-0.000550622
-0.000550664
-0.000550712
-0.000551173
-0.000551714
-0.00055177
-0.000551982
-0.000551833
-0.000551898
-0.000551757
-0.000551783
-0.000551688
-0.000551707
-0.000551647
-0.000551663
-0.000551624
-0.000551639
-0.000551612
-0.000551623
-0.000551608
-0.000551615
-0.000551606
-0.000551611
-0.000551606
-0.000551608
-0.000551608
-0.000551606
-0.000551611
-0.000551606
-0.000551615
-0.000551608
-0.000551623
-0.000551612
-0.000551639
-0.000551624
-0.000551663
-0.000551647
-0.000551708
-0.000551688
-0.000551783
-0.000551757
-0.000551897
-0.000551832
-0.000551981
-0.000551769
-0.000551713
-0.000551173
-0.000550711
-0.000550664
-0.000550621
-0.000575632
-0.000575971
-0.000576397
-0.000577038
-0.000577601
-0.000577697
-0.000577871
-0.00057774
-0.000577773
-0.000577646
-0.000577652
-0.000577566
-0.000577573
-0.000577519
-0.000577526
-0.000577492
-0.000577501
-0.000577479
-0.000577486
-0.000577473
-0.000577478
-0.00057747
-0.000577473
-0.000577469
-0.00057747
-0.000577471
-0.00057747
-0.000577473
-0.00057747
-0.000577478
-0.000577473
-0.000577486
-0.000577479
-0.000577501
-0.000577492
-0.000577527
-0.000577519
-0.000577573
-0.000577566
-0.000577652
-0.000577645
-0.000577773
-0.000577739
-0.00057787
-0.000577696
-0.0005776
-0.000577037
-0.000576396
-0.00057597
-0.000575632
-0.000593908
-0.00059451
-0.000595228
-0.00059601
-0.000596588
-0.000596714
-0.000596853
-0.000596737
-0.000596743
-0.000596625
-0.000596615
-0.000596536
-0.000596532
-0.000596482
-0.000596483
-0.000596453
-0.000596457
-0.000596437
-0.000596442
-0.00059643
-0.000596434
-0.000596427
-0.000596429
-0.000596426
-0.000596427
-0.000596427
-0.000596426
-0.000596429
-0.000596427
-0.000596434
-0.00059643
-0.000596442
-0.000596437
-0.000596457
-0.000596453
-0.000596483
-0.000596482
-0.000596532
-0.000596536
-0.000596615
-0.000596625
-0.000596743
-0.000596736
-0.000596852
-0.000596713
-0.000596587
-0.000596009
-0.000595228
-0.000594509
-0.000593908
-0.000606766
-0.000607611
-0.000608547
-0.000609438
-0.000610023
-0.000610171
-0.00061028
-0.000610174
-0.000610157
-0.000610047
-0.000610022
-0.000609948
-0.000609935
-0.000609889
-0.000609884
-0.000609856
-0.000609857
-0.00060984
-0.000609841
-0.000609832
-0.000609833
-0.000609827
-0.000609829
-0.000609826
-0.000609826
-0.000609826
-0.000609826
-0.000609829
-0.000609827
-0.000609833
-0.000609832
-0.000609841
-0.00060984
-0.000609857
-0.000609856
-0.000609884
-0.000609889
-0.000609935
-0.000609948
-0.000610022
-0.000610046
-0.000610157
-0.000610173
-0.00061028
-0.00061017
-0.000610022
-0.000609437
-0.000608546
-0.00060761
-0.000606766
-0.000615273
-0.000616314
-0.000617423
-0.000618399
-0.000618985
-0.000619149
-0.000619231
-0.000619132
-0.000619096
-0.00061899
-0.000618953
-0.000618883
-0.000618862
-0.000618819
-0.000618809
-0.000618784
-0.000618781
-0.000618766
-0.000618765
-0.000618757
-0.000618757
-0.000618752
-0.000618752
-0.00061875
-0.00061875
-0.00061875
-0.00061875
-0.000618753
-0.000618752
-0.000618757
-0.000618757
-0.000618765
-0.000618766
-0.000618781
-0.000618784
-0.000618809
-0.000618819
-0.000618862
-0.000618883
-0.000618953
-0.00061899
-0.000619095
-0.000619131
-0.000619231
-0.000619148
-0.000618984
-0.000618398
-0.000617422
-0.000616313
-0.000615273
)
;

boundaryField
{
    fuel
    {
        type            calculated;
        value           uniform 0;
    }
    wall
    {
        type            calculated;
        value           nonuniform 0();
    }
    outlet
    {
        type            calculated;
        value           uniform 0;
    }
    frontAndBack
    {
        type            empty;
    }
    procBoundary1to0
    {
        type            processor;
        value           uniform 0;
    }
}


// ************************************************************************* //
