/*--------------------------------*- C++ -*----------------------------------*\
| =========                 |                                                 |
| \\      /  F ield         | OpenFOAM: The Open Source CFD Toolbox           |
|  \\    /   O peration     | Version:  dev                                   |
|   \\  /    A nd           | Web:      www.OpenFOAM.org                      |
|    \\/     M anipulation  |                                                 |
\*---------------------------------------------------------------------------*/
FoamFile
{
    version     2.0;
    format      ascii;
    class       volScalarField;
    location    "0.08";
    object      H2;
}
// * * * * * * * * * * * * * * * * * * * * * * * * * * * * * * * * * * * * * //

dimensions      [0 0 0 0 0 0 0];

internalField   nonuniform List<scalar> 
25
(
0.00958307
0.00955029
0.00951721
0.00948322
0.00944834
0.00941257
0.00937589
0.00933831
0.00929943
0.0092599
0.00921934
0.00917776
0.00913516
0.00909151
0.0090468
0.00900097
0.008954
0.00890584
0.00885645
0.0088058
0.00875384
0.00869954
0.00864479
0.00858715
0.00852786
)
;

boundaryField
{
    wall
    {
        type            zeroGradient;
    }
    fuel
    {
        type            fixedValue;
        value           nonuniform 0();
    }
    outlet
    {
        type            inletOutlet;
        inletValue      nonuniform 0();
        value           nonuniform 0();
    }
    procBoundary1to0
    {
        type            processor;
        value           uniform 0.00961519;
    }
    procBoundary1to2
    {
        type            processor;
        value           uniform 0.00846842;
    }
}


// ************************************************************************* //
