/*--------------------------------*- C++ -*----------------------------------*\
| =========                 |                                                 |
| \\      /  F ield         | OpenFOAM: The Open Source CFD Toolbox           |
|  \\    /   O peration     | Version:  dev                                   |
|   \\  /    A nd           | Web:      www.OpenFOAM.org                      |
|    \\/     M anipulation  |                                                 |
\*---------------------------------------------------------------------------*/
FoamFile
{
    version     2.0;
    format      ascii;
    class       volScalarField;
    location    "0.08";
    object      HCCO;
}
// * * * * * * * * * * * * * * * * * * * * * * * * * * * * * * * * * * * * * //

dimensions      [0 0 0 0 0 0 0];

internalField   nonuniform List<scalar> 
250
(
8.54251e-08
9.02138e-08
8.60308e-08
8.58059e-08
8.06722e-08
8.00902e-08
7.97863e-08
7.86035e-08
7.96743e-08
7.83714e-08
6.5606e-08
6.76492e-08
6.36851e-08
6.34476e-08
5.94751e-08
5.90147e-08
5.87969e-08
5.78669e-08
5.87245e-08
5.76827e-08
5.76584e-08
5.84334e-08
5.76749e-08
5.86399e-08
5.84033e-08
5.96577e-08
6.0565e-08
6.5196e-08
6.16263e-08
6.40835e-08
4.86989e-08
4.9158e-08
4.57564e-08
4.55627e-08
4.26051e-08
4.22404e-08
4.20903e-08
4.13856e-08
4.20481e-08
4.12447e-08
4.12284e-08
4.18306e-08
4.12402e-08
4.19814e-08
4.17826e-08
4.27575e-08
4.34171e-08
4.69894e-08
4.4755e-08
4.77109e-08
3.48886e-08
3.45545e-08
3.1854e-08
3.17307e-08
2.96219e-08
2.93222e-08
2.92228e-08
2.87096e-08
2.92019e-08
2.86057e-08
2.85947e-08
2.90449e-08
2.86029e-08
2.91499e-08
2.89911e-08
2.97426e-08
3.01989e-08
3.28033e-08
3.14803e-08
3.42894e-08
2.40846e-08
2.34471e-08
2.14423e-08
2.1272e-08
1.97874e-08
1.97031e-08
1.96405e-08
1.92819e-08
1.96331e-08
1.92082e-08
1.9201e-08
1.95243e-08
1.92067e-08
1.95938e-08
1.94727e-08
1.9871e-08
2.01969e-08
2.21325e-08
2.13054e-08
2.37308e-08
1.58446e-08
1.53077e-08
1.39133e-08
1.3805e-08
1.28298e-08
1.27724e-08
1.27346e-08
1.24944e-08
1.27348e-08
1.24441e-08
1.24396e-08
1.26624e-08
1.24435e-08
1.27061e-08
1.26183e-08
1.28888e-08
1.30978e-08
1.43895e-08
1.39302e-08
1.57649e-08
9.99249e-09
9.5456e-09
8.63494e-09
8.57135e-09
7.95914e-09
7.92218e-09
7.90033e-09
7.74638e-09
7.90395e-09
7.71337e-09
7.71056e-09
7.85789e-09
7.71326e-09
7.88392e-09
7.82313e-09
7.99931e-09
8.12591e-09
8.94749e-09
8.69945e-09
9.9831e-09
5.9089e-09
5.58746e-09
5.03231e-09
4.99853e-09
4.63449e-09
4.61219e-09
4.60025e-09
4.50667e-09
4.60478e-09
4.48608e-09
4.48438e-09
4.57703e-09
4.48615e-09
4.59156e-09
4.55152e-09
4.6609e-09
4.73147e-09
5.22682e-09
5.09488e-09
5.92909e-09
3.16505e-09
2.96343e-09
2.65652e-09
2.64095e-09
2.44245e-09
2.43027e-09
2.42432e-09
2.37213e-09
2.42822e-09
2.36036e-09
2.35937e-09
2.41293e-09
2.3604e-09
2.4203e-09
2.39597e-09
2.45866e-09
2.49317e-09
2.76812e-09
2.6994e-09
3.19352e-09
1.4643e-09
1.35778e-09
1.21287e-09
1.2068e-09
1.11375e-09
1.10806e-09
1.10549e-09
1.08048e-09
1.10802e-09
1.07468e-09
1.07419e-09
1.10079e-09
1.0747e-09
1.10397e-09
1.09132e-09
1.12229e-09
1.1362e-09
1.26779e-09
1.23569e-09
1.48912e-09
5.50931e-10
5.00888e-10
4.43935e-10
4.41459e-10
4.06059e-10
4.03868e-10
4.02916e-10
3.93237e-10
4.04198e-10
3.90892e-10
3.90714e-10
4.01405e-10
3.90925e-10
4.02479e-10
3.97221e-10
4.09642e-10
4.1416e-10
4.65462e-10
4.54893e-10
5.66771e-10
1.49325e-10
1.24925e-10
1.08107e-10
1.06965e-10
9.83885e-11
9.78326e-11
9.75921e-11
9.52289e-11
9.7979e-11
9.46164e-11
9.45877e-11
9.72839e-11
9.4652e-11
9.75091e-11
9.61698e-11
9.93008e-11
1.00286e-10
1.13129e-10
1.12723e-10
1.5498e-10
6.68086e-11
3.22214e-11
2.18864e-11
2.05928e-11
1.91591e-11
1.90528e-11
1.89962e-11
1.86237e-11
1.90675e-11
1.85043e-11
1.85149e-11
1.89419e-11
1.85396e-11
1.89697e-11
1.87933e-11
1.92591e-11
1.95167e-11
2.17816e-11
2.55005e-11
5.55937e-11
)
;

boundaryField
{
    fuel
    {
        type            fixedValue;
        value           nonuniform 0();
    }
    wall
    {
        type            zeroGradient;
    }
    outlet
    {
        type            zeroGradient;
    }
    frontAndBack
    {
        type            empty;
    }
    procBoundary1to0
    {
        type            processor;
        value           nonuniform List<scalar> 
21
(
1.07605e-07
1.16705e-07
1.12976e-07
1.12854e-07
1.06473e-07
1.05746e-07
1.05341e-07
1.03889e-07
1.0518e-07
1.03608e-07
7.83392e-08
7.83392e-08
7.93025e-08
7.83612e-08
7.95751e-08
7.9302e-08
8.08975e-08
8.20614e-08
8.78263e-08
8.22647e-08
8.33432e-08
)
;
    }
}


// ************************************************************************* //
