/*--------------------------------*- C++ -*----------------------------------*\
| =========                 |                                                 |
| \\      /  F ield         | OpenFOAM: The Open Source CFD Toolbox           |
|  \\    /   O peration     | Version:  dev                                   |
|   \\  /    A nd           | Web:      www.OpenFOAM.org                      |
|    \\/     M anipulation  |                                                 |
\*---------------------------------------------------------------------------*/
FoamFile
{
    version     2.0;
    format      ascii;
    class       volScalarField;
    location    "0.08";
    object      HO2;
}
// * * * * * * * * * * * * * * * * * * * * * * * * * * * * * * * * * * * * * //

dimensions      [0 0 0 0 0 0 0];

internalField   nonuniform List<scalar> 
250
(
2.76354e-10
1.99354e-11
1.79613e-12
8.46164e-13
9.75139e-13
7.87396e-13
8.92572e-13
7.91402e-13
8.52819e-13
8.06241e-13
2.22973e-10
1.65622e-11
1.28856e-12
5.16199e-13
5.84803e-13
4.73247e-13
5.35689e-13
4.75639e-13
5.12247e-13
4.84527e-13
4.90445e-13
5.0497e-13
4.89826e-13
5.11505e-13
5.08832e-13
5.19917e-13
5.80743e-13
5.8122e-13
1.034e-12
2.72257e-12
1.7746e-10
1.35303e-11
9.49559e-13
3.24351e-13
3.56004e-13
2.92581e-13
3.27907e-13
2.93925e-13
3.14679e-13
2.98986e-13
3.02224e-13
3.10658e-13
3.01916e-13
3.14307e-13
3.12681e-13
3.19163e-13
3.55166e-13
3.83132e-13
8.62457e-13
2.9431e-12
1.39891e-10
1.09113e-11
7.26281e-13
2.19159e-13
2.30253e-13
1.94636e-13
2.14242e-13
1.95331e-13
2.06867e-13
1.98147e-13
1.99835e-13
2.04768e-13
1.99717e-13
2.06848e-13
2.05829e-13
2.09778e-13
2.32069e-13
2.81045e-13
8.22487e-13
3.34895e-12
1.09998e-10
8.7382e-12
5.78363e-13
1.62611e-13
1.64523e-13
1.43726e-13
1.5493e-13
1.44047e-13
1.50652e-13
1.4565e-13
1.46503e-13
1.49607e-13
1.46498e-13
1.50894e-13
1.50195e-13
1.52878e-13
1.68057e-13
2.34949e-13
8.68378e-13
3.89917e-12
8.67453e-11
6.99979e-12
4.78635e-13
1.33945e-13
1.31287e-13
1.17993e-13
1.24929e-13
1.18103e-13
1.22208e-13
1.19081e-13
1.19491e-13
1.21729e-13
1.19557e-13
1.22631e-13
1.22077e-13
1.24219e-13
1.36724e-13
2.19986e-13
9.73573e-13
4.59719e-12
6.88331e-11
5.64921e-12
4.10824e-13
1.19937e-13
1.15453e-13
1.05997e-13
1.1073e-13
1.05974e-13
1.08799e-13
1.0662e-13
1.06772e-13
1.08653e-13
1.06891e-13
1.09367e-13
1.08856e-13
1.10844e-13
1.2269e-13
2.23605e-13
1.13238e-12
5.50462e-12
5.61299e-11
4.62862e-12
3.67175e-13
1.16212e-13
1.10834e-13
1.03672e-13
1.07027e-13
1.03525e-13
1.05557e-13
1.03941e-13
1.03889e-13
1.05679e-13
1.04065e-13
1.06299e-13
1.05761e-13
1.07825e-13
1.20099e-13
2.43233e-13
1.36585e-12
6.79385e-12
4.71366e-11
3.89913e-12
3.49747e-13
1.2658e-13
1.19638e-13
1.14862e-13
1.16587e-13
1.14482e-13
1.15573e-13
1.14562e-13
1.14222e-13
1.16083e-13
1.14499e-13
1.16662e-13
1.16009e-13
1.18405e-13
1.31924e-13
2.90332e-13
1.76131e-12
9.00328e-12
4.16713e-11
3.49092e-12
3.79985e-13
1.7013e-13
1.58785e-13
1.58139e-13
1.56739e-13
1.57159e-13
1.56486e-13
1.56481e-13
1.55538e-13
1.57832e-13
1.56067e-13
1.58439e-13
1.57435e-13
1.60822e-13
1.7708e-13
4.06662e-13
2.59737e-12
1.38292e-11
3.92854e-11
3.39094e-12
4.9401e-13
2.77278e-13
2.59385e-13
2.62767e-13
2.57745e-13
2.60609e-13
2.58193e-13
2.58752e-13
2.56747e-13
2.61037e-13
2.57843e-13
2.61846e-13
2.5984e-13
2.65843e-13
2.88844e-13
6.52028e-13
4.34148e-12
2.43144e-11
3.6271e-11
3.30595e-12
6.70108e-13
4.36374e-13
4.16023e-13
4.17357e-13
4.1231e-13
4.13773e-13
4.12264e-13
4.11036e-13
4.07842e-13
4.1677e-13
4.09785e-13
4.17965e-13
4.14116e-13
4.24472e-13
4.58489e-13
9.81472e-13
6.78292e-12
3.97953e-11
3.30604e-11
3.22187e-12
8.29831e-13
5.79416e-13
5.60951e-13
5.56075e-13
5.53918e-13
5.51378e-13
5.52593e-13
5.48328e-13
5.44208e-13
5.58357e-13
5.46923e-13
5.59894e-13
5.54127e-13
5.68621e-13
6.12603e-13
1.25264e-12
8.84267e-12
5.36368e-11
)
;

boundaryField
{
    fuel
    {
        type            fixedValue;
        value           nonuniform 0();
    }
    wall
    {
        type            zeroGradient;
    }
    outlet
    {
        type            zeroGradient;
    }
    frontAndBack
    {
        type            empty;
    }
    procBoundary1to0
    {
        type            processor;
        value           nonuniform List<scalar> 
21
(
3.25891e-10
2.30981e-11
2.51868e-12
1.37915e-12
1.59472e-12
1.29868e-12
1.46479e-12
1.30451e-12
1.40152e-12
1.32771e-12
8.16527e-13
8.16527e-13
8.4045e-13
8.15441e-13
8.51823e-13
8.47746e-13
8.66116e-13
9.67187e-13
9.29511e-13
1.38835e-12
2.71708e-12
)
;
    }
}


// ************************************************************************* //
