/*--------------------------------*- C++ -*----------------------------------*\
| =========                 |                                                 |
| \\      /  F ield         | OpenFOAM: The Open Source CFD Toolbox           |
|  \\    /   O peration     | Version:  dev                                   |
|   \\  /    A nd           | Web:      www.OpenFOAM.org                      |
|    \\/     M anipulation  |                                                 |
\*---------------------------------------------------------------------------*/
FoamFile
{
    version     2.0;
    format      ascii;
    class       volScalarField;
    location    "0.08";
    object      n-A1C2H2;
}
// * * * * * * * * * * * * * * * * * * * * * * * * * * * * * * * * * * * * * //

dimensions      [0 0 0 0 0 0 0];

internalField   nonuniform List<scalar> 
25
(
1.94419e-20
1.54309e-20
1.32697e-20
1.22566e-20
1.20728e-20
1.25636e-20
1.36673e-20
1.53792e-20
1.77556e-20
2.08204e-20
2.46834e-20
2.94543e-20
3.52697e-20
4.22939e-20
5.07261e-20
6.08093e-20
7.2846e-20
8.72241e-20
1.04459e-19
1.25263e-19
1.50646e-19
1.82655e-19
2.22288e-19
2.7446e-19
3.42817e-19
)
;

boundaryField
{
    wall
    {
        type            zeroGradient;
    }
    fuel
    {
        type            fixedValue;
        value           nonuniform 0();
    }
    outlet
    {
        type            inletOutlet;
        inletValue      nonuniform 0();
        value           nonuniform 0();
    }
    procBoundary1to0
    {
        type            processor;
        value           uniform 2.64771e-20;
    }
    procBoundary1to2
    {
        type            processor;
        value           uniform 4.26048e-19;
    }
}


// ************************************************************************* //
