/*--------------------------------*- C++ -*----------------------------------*\
| =========                 |                                                 |
| \\      /  F ield         | OpenFOAM: The Open Source CFD Toolbox           |
|  \\    /   O peration     | Version:  dev                                   |
|   \\  /    A nd           | Web:      www.OpenFOAM.org                      |
|    \\/     M anipulation  |                                                 |
\*---------------------------------------------------------------------------*/
FoamFile
{
    version     2.0;
    format      ascii;
    class       volScalarField;
    location    "0.08";
    object      n-A1C2H2;
}
// * * * * * * * * * * * * * * * * * * * * * * * * * * * * * * * * * * * * * //

dimensions      [0 0 0 0 0 0 0];

internalField   nonuniform List<scalar> 
250
(
2.24126e-11
1.87667e-11
1.6396e-11
1.55809e-11
1.53308e-11
1.52574e-11
1.52394e-11
1.52493e-11
1.52377e-11
1.52618e-11
2.18923e-11
1.8887e-11
1.69397e-11
1.62333e-11
1.60355e-11
1.59747e-11
1.59587e-11
1.59759e-11
1.59553e-11
1.59905e-11
1.5988e-11
1.59576e-11
1.59752e-11
1.59538e-11
1.59787e-11
1.60141e-11
1.62262e-11
1.68668e-11
1.87936e-11
2.35252e-11
2.20339e-11
1.95582e-11
1.79896e-11
1.7375e-11
1.72468e-11
1.71994e-11
1.71857e-11
1.72161e-11
1.71793e-11
1.72345e-11
1.72318e-11
1.71858e-11
1.72188e-11
1.71816e-11
1.72128e-11
1.72204e-11
1.74004e-11
1.78751e-11
1.94574e-11
2.29938e-11
2.31067e-11
2.10839e-11
1.98564e-11
1.93213e-11
1.92689e-11
1.92307e-11
1.92187e-11
1.92646e-11
1.92071e-11
1.92874e-11
1.92845e-11
1.92187e-11
1.92713e-11
1.92148e-11
1.92554e-11
1.92345e-11
1.93867e-11
1.96899e-11
2.09909e-11
2.35357e-11
2.53853e-11
2.37457e-11
2.2795e-11
2.2348e-11
2.2354e-11
2.22919e-11
2.22793e-11
2.23334e-11
2.22606e-11
2.23592e-11
2.2356e-11
2.22752e-11
2.23429e-11
2.22737e-11
2.23237e-11
2.23111e-11
2.24425e-11
2.25806e-11
2.36474e-11
2.53716e-11
2.90036e-11
2.76381e-11
2.68457e-11
2.64523e-11
2.64322e-11
2.63834e-11
2.63673e-11
2.6411e-11
2.63407e-11
2.64351e-11
2.64317e-11
2.63525e-11
2.64196e-11
2.63569e-11
2.64111e-11
2.63801e-11
2.65211e-11
2.66102e-11
2.7446e-11
2.85884e-11
3.37732e-11
3.25987e-11
3.18017e-11
3.14576e-11
3.13219e-11
3.12761e-11
3.12536e-11
3.12623e-11
3.1221e-11
3.12786e-11
3.12752e-11
3.12222e-11
3.1265e-11
3.12357e-11
3.12845e-11
3.12649e-11
3.14401e-11
3.15911e-11
3.22233e-11
3.30628e-11
3.9538e-11
3.83903e-11
3.7426e-11
3.71255e-11
3.67964e-11
3.67472e-11
3.67168e-11
3.66695e-11
3.66824e-11
3.66727e-11
3.66698e-11
3.66661e-11
3.6662e-11
3.66898e-11
3.6723e-11
3.67412e-11
3.69674e-11
3.72895e-11
3.77553e-11
3.85944e-11
4.66137e-11
4.53827e-11
4.41892e-11
4.39294e-11
4.34038e-11
4.33494e-11
4.33117e-11
4.32093e-11
4.32778e-11
4.31991e-11
4.3198e-11
4.3243e-11
4.31928e-11
4.32751e-11
4.3294e-11
4.33489e-11
4.36294e-11
4.41368e-11
4.44884e-11
4.54932e-11
5.94338e-11
5.83499e-11
5.72526e-11
5.70226e-11
5.65613e-11
5.65103e-11
5.64648e-11
5.63895e-11
5.6417e-11
5.638e-11
5.63881e-11
5.63795e-11
5.63885e-11
5.64112e-11
5.64856e-11
5.64478e-11
5.68048e-11
5.70703e-11
5.75195e-11
5.8083e-11
1.0125e-10
1.00271e-10
9.88887e-11
9.85355e-11
9.79002e-11
9.78108e-11
9.77087e-11
9.76048e-11
9.76457e-11
9.75512e-11
9.75922e-11
9.75536e-11
9.76249e-11
9.75856e-11
9.78059e-11
9.76182e-11
9.8385e-11
9.83024e-11
9.95491e-11
9.91752e-11
1.97558e-10
1.90832e-10
1.82249e-10
1.81278e-10
1.76223e-10
1.7583e-10
1.75485e-10
1.74178e-10
1.75677e-10
1.73717e-10
1.73808e-10
1.75127e-10
1.73941e-10
1.75214e-10
1.75015e-10
1.76126e-10
1.78131e-10
1.83326e-10
1.85512e-10
1.94106e-10
2.43668e-10
2.27279e-10
2.09141e-10
2.07584e-10
1.97089e-10
1.96424e-10
1.95774e-10
1.93034e-10
1.9643e-10
1.92059e-10
1.9219e-10
1.95351e-10
1.92428e-10
1.95437e-10
1.94493e-10
1.97465e-10
2.00447e-10
2.1293e-10
2.15576e-10
2.38743e-10
)
;

boundaryField
{
    fuel
    {
        type            fixedValue;
        value           nonuniform 0();
    }
    wall
    {
        type            zeroGradient;
    }
    outlet
    {
        type            zeroGradient;
    }
    frontAndBack
    {
        type            empty;
    }
    procBoundary1to0
    {
        type            processor;
        value           nonuniform List<scalar> 
21
(
2.34188e-11
1.89744e-11
1.61123e-11
1.51699e-11
1.48824e-11
1.47983e-11
1.4779e-11
1.47869e-11
1.47785e-11
1.47988e-11
1.52586e-11
1.52586e-11
1.52369e-11
1.52458e-11
1.52331e-11
1.5255e-11
1.53105e-11
1.55555e-11
1.63517e-11
1.87079e-11
2.49311e-11
)
;
    }
}


// ************************************************************************* //
