/*--------------------------------*- C++ -*----------------------------------*\
| =========                 |                                                 |
| \\      /  F ield         | OpenFOAM: The Open Source CFD Toolbox           |
|  \\    /   O peration     | Version:  dev                                   |
|   \\  /    A nd           | Web:      www.OpenFOAM.org                      |
|    \\/     M anipulation  |                                                 |
\*---------------------------------------------------------------------------*/
FoamFile
{
    version     2.0;
    format      ascii;
    class       volScalarField;
    location    "0.08";
    object      O2;
}
// * * * * * * * * * * * * * * * * * * * * * * * * * * * * * * * * * * * * * //

dimensions      [0 0 0 0 0 0 0];

internalField   nonuniform List<scalar> 
250
(
2.6628e-06
1.8075e-07
9.57518e-09
2.8328e-09
2.90971e-09
2.57365e-09
2.75738e-09
2.58111e-09
2.68578e-09
2.60629e-09
2.19649e-06
1.55467e-07
8.37255e-09
2.29743e-09
2.31101e-09
2.05574e-09
2.19388e-09
2.06082e-09
2.14013e-09
2.07995e-09
2.09244e-09
2.12563e-09
2.09131e-09
2.14295e-09
2.13565e-09
2.16319e-09
2.30896e-09
2.58177e-09
5.7749e-09
2.27389e-08
1.77354e-06
1.29791e-07
7.20015e-09
1.88223e-09
1.85719e-09
1.66252e-09
1.76677e-09
1.66589e-09
1.72628e-09
1.6805e-09
1.68926e-09
1.71607e-09
1.6888e-09
1.72918e-09
1.72318e-09
1.74642e-09
1.8713e-09
2.27848e-09
6.27513e-09
2.70447e-08
1.39683e-06
1.04761e-07
6.05737e-09
1.55159e-09
1.50686e-09
1.35725e-09
1.43664e-09
1.3594e-09
1.4059e-09
1.3707e-09
1.37667e-09
1.39893e-09
1.37671e-09
1.40896e-09
1.40388e-09
1.42408e-09
1.53617e-09
2.06828e-09
6.95495e-09
3.19343e-08
1.06932e-06
8.14409e-08
4.96191e-09
1.27398e-09
1.22872e-09
1.11287e-09
1.17398e-09
1.11418e-09
1.15044e-09
1.12302e-09
1.12694e-09
1.14589e-09
1.12734e-09
1.1536e-09
1.14918e-09
1.16699e-09
1.2689e-09
1.90745e-09
7.65711e-09
3.667e-08
7.8961e-07
6.0727e-08
3.94223e-09
1.04292e-09
1.00091e-09
9.10879e-10
9.58295e-10
9.11607e-10
9.4016e-10
9.1859e-10
9.20994e-10
9.37389e-10
9.21625e-10
9.43325e-10
9.394e-10
9.55228e-10
1.05048e-09
1.76091e-09
8.21517e-09
4.04858e-08
5.55671e-07
4.32275e-08
3.02699e-09
8.43045e-10
8.09126e-10
7.39363e-10
7.76219e-10
7.39698e-10
7.62261e-10
7.45219e-10
7.4652e-10
7.60776e-10
7.47279e-10
7.65298e-10
7.6178e-10
7.75809e-10
8.63667e-10
1.6033e-09
8.47687e-09
4.26785e-08
3.76452e-07
2.92252e-08
2.23791e-09
6.68783e-10
6.44597e-10
5.91143e-10
6.19581e-10
5.91213e-10
6.08932e-10
5.95529e-10
5.96042e-10
6.0836e-10
5.96843e-10
6.1173e-10
6.08582e-10
6.20796e-10
6.99302e-10
1.42008e-09
8.33052e-09
4.27234e-08
2.41079e-07
1.86211e-08
1.58589e-09
5.17418e-10
5.02376e-10
4.62315e-10
4.83826e-10
4.62203e-10
4.75858e-10
4.65488e-10
4.65453e-10
4.75919e-10
4.66232e-10
4.78344e-10
4.75557e-10
4.85858e-10
5.52747e-10
1.20806e-09
7.72957e-09
4.03873e-08
1.44044e-07
1.10613e-08
1.07123e-09
3.88041e-10
3.80228e-10
3.51272e-10
3.66957e-10
3.51031e-10
3.61188e-10
3.53412e-10
3.53014e-10
3.61678e-10
3.53722e-10
3.63334e-10
3.60911e-10
3.69244e-10
4.22778e-10
9.75125e-10
6.71113e-09
3.58235e-08
7.88658e-08
6.03907e-09
6.86136e-10
2.80982e-10
2.7795e-10
2.58113e-10
2.68896e-10
2.57778e-10
2.64922e-10
2.59367e-10
2.58745e-10
2.65695e-10
2.59357e-10
2.66747e-10
2.64681e-10
2.71121e-10
3.10786e-10
7.39019e-10
5.40504e-09
2.96342e-08
3.88955e-08
3.00236e-09
4.19205e-10
1.97915e-10
1.97323e-10
1.84641e-10
1.91464e-10
1.84238e-10
1.88894e-10
1.85167e-10
1.84424e-10
1.89846e-10
1.84932e-10
1.90457e-10
1.88718e-10
1.93514e-10
2.2055e-10
5.25958e-10
4.03662e-09
2.29177e-08
1.8607e-08
1.48218e-09
2.64486e-10
1.44089e-10
1.44165e-10
1.36279e-10
1.40364e-10
1.35834e-10
1.38736e-10
1.36298e-10
1.35501e-10
1.3979e-10
1.35924e-10
1.40137e-10
1.38642e-10
1.42289e-10
1.60284e-10
3.73802e-10
2.95608e-09
1.74665e-08
)
;

boundaryField
{
    fuel
    {
        type            fixedValue;
        value           nonuniform 0();
    }
    wall
    {
        type            zeroGradient;
    }
    outlet
    {
        type            inletOutlet;
        inletValue      uniform 0;
        value           nonuniform List<scalar> 
25
(
2.6628e-06
2.19649e-06
1.77354e-06
1.39683e-06
1.06932e-06
7.8961e-07
5.55671e-07
3.76452e-07
2.41079e-07
1.44044e-07
7.88658e-08
3.88955e-08
1.8607e-08
2.27389e-08
2.70447e-08
3.19343e-08
3.667e-08
4.04858e-08
4.26785e-08
4.27234e-08
4.03873e-08
3.58235e-08
2.96342e-08
2.29177e-08
1.74665e-08
)
;
    }
    frontAndBack
    {
        type            empty;
    }
    procBoundary1to0
    {
        type            processor;
        value           nonuniform List<scalar> 
21
(
3.06381e-06
2.00567e-07
1.07445e-08
3.53802e-09
3.6999e-09
3.26345e-09
3.50532e-09
3.27276e-09
3.41104e-09
3.30561e-09
2.62423e-09
2.62423e-09
2.66563e-09
2.62228e-09
2.68861e-09
2.68023e-09
2.71311e-09
2.89139e-09
3.02127e-09
5.51947e-09
1.92793e-08
)
;
    }
}


// ************************************************************************* //
