/*--------------------------------*- C++ -*----------------------------------*\
| =========                 |                                                 |
| \\      /  F ield         | OpenFOAM: The Open Source CFD Toolbox           |
|  \\    /   O peration     | Version:  dev                                   |
|   \\  /    A nd           | Web:      www.OpenFOAM.org                      |
|    \\/     M anipulation  |                                                 |
\*---------------------------------------------------------------------------*/
FoamFile
{
    version     2.0;
    format      ascii;
    class       volScalarField;
    location    "0.08";
    object      P2;
}
// * * * * * * * * * * * * * * * * * * * * * * * * * * * * * * * * * * * * * //

dimensions      [0 0 0 0 0 0 0];

internalField   nonuniform List<scalar> 
2000
(
1.49796e-08
1.49598e-08
1.49517e-08
1.49433e-08
1.49432e-08
1.49405e-08
1.49415e-08
1.49402e-08
1.49411e-08
1.49404e-08
1.4941e-08
1.49405e-08
1.4941e-08
1.49406e-08
1.49409e-08
1.49407e-08
1.49409e-08
1.49407e-08
1.49409e-08
1.49408e-08
1.49409e-08
1.49408e-08
1.49409e-08
1.49408e-08
1.49408e-08
1.49408e-08
1.49408e-08
1.49409e-08
1.49408e-08
1.49409e-08
1.49408e-08
1.49409e-08
1.49407e-08
1.49409e-08
1.49407e-08
1.49409e-08
1.49406e-08
1.4941e-08
1.49405e-08
1.4941e-08
1.49404e-08
1.49411e-08
1.49402e-08
1.49415e-08
1.49405e-08
1.49432e-08
1.49433e-08
1.49517e-08
1.49598e-08
1.49796e-08
2.98307e-08
2.97852e-08
2.97636e-08
2.97445e-08
2.97439e-08
2.97379e-08
2.97401e-08
2.97373e-08
2.97393e-08
2.97376e-08
2.9739e-08
2.97379e-08
2.97389e-08
2.97382e-08
2.97388e-08
2.97383e-08
2.97388e-08
2.97385e-08
2.97387e-08
2.97385e-08
2.97387e-08
2.97386e-08
2.97387e-08
2.97386e-08
2.97387e-08
2.97387e-08
2.97386e-08
2.97387e-08
2.97386e-08
2.97387e-08
2.97385e-08
2.97387e-08
2.97385e-08
2.97388e-08
2.97383e-08
2.97389e-08
2.97382e-08
2.97389e-08
2.97379e-08
2.9739e-08
2.97376e-08
2.97393e-08
2.97373e-08
2.97401e-08
2.97379e-08
2.97439e-08
2.97445e-08
2.97636e-08
2.97852e-08
2.98307e-08
4.85206e-08
4.84588e-08
4.84334e-08
4.84069e-08
4.84053e-08
4.83971e-08
4.83996e-08
4.8396e-08
4.83985e-08
4.83964e-08
4.83982e-08
4.83968e-08
4.8398e-08
4.83971e-08
4.8398e-08
4.83973e-08
4.8398e-08
4.83975e-08
4.83979e-08
4.83976e-08
4.83979e-08
4.83977e-08
4.83978e-08
4.83978e-08
4.83978e-08
4.83978e-08
4.83978e-08
4.83978e-08
4.83977e-08
4.83979e-08
4.83976e-08
4.83979e-08
4.83975e-08
4.8398e-08
4.83973e-08
4.8398e-08
4.83971e-08
4.8398e-08
4.83968e-08
4.83982e-08
4.83963e-08
4.83985e-08
4.8396e-08
4.83996e-08
4.83971e-08
4.84053e-08
4.84069e-08
4.84334e-08
4.84588e-08
4.85206e-08
6.86553e-08
6.85636e-08
6.8519e-08
6.8476e-08
6.84694e-08
6.8458e-08
6.84601e-08
6.84558e-08
6.84585e-08
6.84562e-08
6.84582e-08
6.84567e-08
6.84582e-08
6.84572e-08
6.84581e-08
6.84574e-08
6.84582e-08
6.84576e-08
6.84581e-08
6.84578e-08
6.84581e-08
6.84579e-08
6.84581e-08
6.8458e-08
6.8458e-08
6.8458e-08
6.8458e-08
6.84581e-08
6.84579e-08
6.84581e-08
6.84578e-08
6.84581e-08
6.84576e-08
6.84581e-08
6.84574e-08
6.84581e-08
6.84572e-08
6.84581e-08
6.84567e-08
6.84582e-08
6.84562e-08
6.84585e-08
6.84558e-08
6.84601e-08
6.8458e-08
6.84694e-08
6.8476e-08
6.8519e-08
6.85636e-08
6.86553e-08
8.25914e-08
8.2467e-08
8.23996e-08
8.23371e-08
8.23232e-08
8.23087e-08
8.23096e-08
8.23051e-08
8.23076e-08
8.23054e-08
8.23074e-08
8.2306e-08
8.23075e-08
8.23066e-08
8.23075e-08
8.23069e-08
8.23076e-08
8.23071e-08
8.23075e-08
8.23073e-08
8.23075e-08
8.23074e-08
8.23076e-08
8.23075e-08
8.23075e-08
8.23075e-08
8.23075e-08
8.23076e-08
8.23074e-08
8.23075e-08
8.23073e-08
8.23075e-08
8.23071e-08
8.23076e-08
8.23069e-08
8.23075e-08
8.23066e-08
8.23075e-08
8.2306e-08
8.23074e-08
8.23054e-08
8.23076e-08
8.23051e-08
8.23096e-08
8.23088e-08
8.23231e-08
8.23371e-08
8.23996e-08
8.2467e-08
8.25914e-08
8.90594e-08
8.89134e-08
8.8835e-08
8.87582e-08
8.87369e-08
8.87208e-08
8.87197e-08
8.87157e-08
8.87173e-08
8.87158e-08
8.87173e-08
8.87164e-08
8.87176e-08
8.8717e-08
8.87177e-08
8.87173e-08
8.87179e-08
8.87175e-08
8.87178e-08
8.87176e-08
8.87179e-08
8.87178e-08
8.87179e-08
8.87179e-08
8.87179e-08
8.87179e-08
8.87179e-08
8.87179e-08
8.87178e-08
8.87179e-08
8.87177e-08
8.87178e-08
8.87175e-08
8.87179e-08
8.87173e-08
8.87177e-08
8.87169e-08
8.87176e-08
8.87164e-08
8.87173e-08
8.87158e-08
8.87173e-08
8.87157e-08
8.87197e-08
8.87209e-08
8.87369e-08
8.87582e-08
8.8835e-08
8.89134e-08
8.90594e-08
8.95815e-08
8.94289e-08
8.93551e-08
8.92716e-08
8.92441e-08
8.92282e-08
8.92244e-08
8.92217e-08
8.92219e-08
8.92214e-08
8.92221e-08
8.92219e-08
8.92225e-08
8.92224e-08
8.92228e-08
8.92227e-08
8.9223e-08
8.92229e-08
8.92231e-08
8.9223e-08
8.92231e-08
8.92231e-08
8.92232e-08
8.92232e-08
8.92232e-08
8.92232e-08
8.92232e-08
8.92232e-08
8.92231e-08
8.92231e-08
8.9223e-08
8.92231e-08
8.92229e-08
8.9223e-08
8.92227e-08
8.92228e-08
8.92224e-08
8.92225e-08
8.92219e-08
8.92221e-08
8.92214e-08
8.92219e-08
8.92217e-08
8.92244e-08
8.92282e-08
8.92441e-08
8.92716e-08
8.93551e-08
8.94289e-08
8.95815e-08
8.59969e-08
8.58514e-08
8.57951e-08
8.57123e-08
8.56804e-08
8.56659e-08
8.56593e-08
8.56584e-08
8.56567e-08
8.56577e-08
8.56572e-08
8.5658e-08
8.56578e-08
8.56583e-08
8.56582e-08
8.56586e-08
8.56586e-08
8.56587e-08
8.56586e-08
8.56588e-08
8.56588e-08
8.56589e-08
8.56589e-08
8.56589e-08
8.56589e-08
8.56589e-08
8.56589e-08
8.56589e-08
8.56589e-08
8.56588e-08
8.56588e-08
8.56587e-08
8.56587e-08
8.56586e-08
8.56586e-08
8.56583e-08
8.56583e-08
8.56578e-08
8.5658e-08
8.56572e-08
8.56577e-08
8.56567e-08
8.56584e-08
8.56593e-08
8.5666e-08
8.56804e-08
8.57124e-08
8.57951e-08
8.58514e-08
8.59969e-08
7.98893e-08
7.9761e-08
7.97302e-08
7.96541e-08
7.96195e-08
7.96075e-08
7.9598e-08
7.95991e-08
7.95955e-08
7.95979e-08
7.95962e-08
7.9598e-08
7.9597e-08
7.95982e-08
7.95976e-08
7.95984e-08
7.95979e-08
7.95985e-08
7.95981e-08
7.95985e-08
7.95983e-08
7.95985e-08
7.95984e-08
7.95985e-08
7.95985e-08
7.95985e-08
7.95985e-08
7.95984e-08
7.95985e-08
7.95983e-08
7.95985e-08
7.95981e-08
7.95985e-08
7.95979e-08
7.95984e-08
7.95976e-08
7.95982e-08
7.9597e-08
7.9598e-08
7.95962e-08
7.95979e-08
7.95955e-08
7.95991e-08
7.9598e-08
7.96075e-08
7.96195e-08
7.96541e-08
7.97302e-08
7.9761e-08
7.98893e-08
7.24825e-08
7.23777e-08
7.23757e-08
7.23101e-08
7.22745e-08
7.22654e-08
7.22534e-08
7.22565e-08
7.2251e-08
7.22549e-08
7.2252e-08
7.22547e-08
7.2253e-08
7.22548e-08
7.22536e-08
7.22548e-08
7.2254e-08
7.22549e-08
7.22543e-08
7.22548e-08
7.22545e-08
7.22548e-08
7.22547e-08
7.22548e-08
7.22547e-08
7.22547e-08
7.22548e-08
7.22546e-08
7.22548e-08
7.22545e-08
7.22548e-08
7.22543e-08
7.22549e-08
7.2254e-08
7.22549e-08
7.22536e-08
7.22548e-08
7.2253e-08
7.22547e-08
7.2252e-08
7.22549e-08
7.2251e-08
7.22565e-08
7.22535e-08
7.22654e-08
7.22745e-08
7.23101e-08
7.23757e-08
7.23776e-08
7.24825e-08
6.4637e-08
6.45585e-08
6.45848e-08
6.45317e-08
6.44965e-08
6.44904e-08
6.44765e-08
6.44812e-08
6.44742e-08
6.44792e-08
6.44753e-08
6.44789e-08
6.44764e-08
6.44788e-08
6.44771e-08
6.44788e-08
6.44776e-08
6.44787e-08
6.44779e-08
6.44786e-08
6.44782e-08
6.44786e-08
6.44783e-08
6.44785e-08
6.44784e-08
6.44784e-08
6.44785e-08
6.44783e-08
6.44786e-08
6.44782e-08
6.44786e-08
6.44779e-08
6.44787e-08
6.44776e-08
6.44788e-08
6.44771e-08
6.44788e-08
6.44764e-08
6.44789e-08
6.44753e-08
6.44792e-08
6.44742e-08
6.44812e-08
6.44765e-08
6.44904e-08
6.44965e-08
6.45317e-08
6.45848e-08
6.45584e-08
6.4637e-08
5.66054e-08
5.65499e-08
5.65947e-08
5.65526e-08
5.6519e-08
5.65151e-08
5.65001e-08
5.65059e-08
5.6498e-08
5.65037e-08
5.64992e-08
5.65032e-08
5.65004e-08
5.6503e-08
5.65011e-08
5.65029e-08
5.65016e-08
5.65029e-08
5.6502e-08
5.65027e-08
5.65022e-08
5.65027e-08
5.65024e-08
5.65026e-08
5.65025e-08
5.65025e-08
5.65026e-08
5.65024e-08
5.65027e-08
5.65022e-08
5.65027e-08
5.6502e-08
5.65029e-08
5.65016e-08
5.65029e-08
5.65011e-08
5.6503e-08
5.65004e-08
5.65032e-08
5.64992e-08
5.65037e-08
5.6498e-08
5.65059e-08
5.65002e-08
5.65151e-08
5.6519e-08
5.65526e-08
5.65947e-08
5.65499e-08
5.66054e-08
4.93513e-08
4.93208e-08
4.9386e-08
4.93561e-08
4.93246e-08
4.93232e-08
4.93073e-08
4.93142e-08
4.93053e-08
4.93117e-08
4.93066e-08
4.93111e-08
4.93078e-08
4.93107e-08
4.93086e-08
4.93106e-08
4.93091e-08
4.93105e-08
4.93095e-08
4.93104e-08
4.93097e-08
4.93103e-08
4.93099e-08
4.93102e-08
4.93101e-08
4.93101e-08
4.93102e-08
4.93099e-08
4.93103e-08
4.93098e-08
4.93104e-08
4.93095e-08
4.93105e-08
4.93091e-08
4.93106e-08
4.93086e-08
4.93108e-08
4.93078e-08
4.93111e-08
4.93066e-08
4.93117e-08
4.93053e-08
4.93142e-08
4.93074e-08
4.93232e-08
4.93246e-08
4.93561e-08
4.9386e-08
4.93208e-08
4.93514e-08
4.27138e-08
4.2676e-08
4.27316e-08
4.27052e-08
4.26802e-08
4.26784e-08
4.26652e-08
4.26706e-08
4.26633e-08
4.26685e-08
4.26643e-08
4.26679e-08
4.26652e-08
4.26676e-08
4.26659e-08
4.26676e-08
4.26663e-08
4.26675e-08
4.26666e-08
4.26673e-08
4.26668e-08
4.26673e-08
4.2667e-08
4.26672e-08
4.26671e-08
4.26671e-08
4.26672e-08
4.2667e-08
4.26673e-08
4.26668e-08
4.26673e-08
4.26666e-08
4.26675e-08
4.26663e-08
4.26676e-08
4.26659e-08
4.26677e-08
4.26652e-08
4.26679e-08
4.26643e-08
4.26685e-08
4.26632e-08
4.26706e-08
4.26652e-08
4.26784e-08
4.26802e-08
4.27053e-08
4.27316e-08
4.2676e-08
4.27139e-08
3.66091e-08
3.65865e-08
3.66461e-08
3.66271e-08
3.66049e-08
3.66041e-08
3.65914e-08
3.65968e-08
3.65896e-08
3.65947e-08
3.65905e-08
3.65941e-08
3.65915e-08
3.65938e-08
3.65921e-08
3.65937e-08
3.65925e-08
3.65936e-08
3.65928e-08
3.65935e-08
3.6593e-08
3.65934e-08
3.65931e-08
3.65933e-08
3.65932e-08
3.65932e-08
3.65933e-08
3.65931e-08
3.65934e-08
3.6593e-08
3.65935e-08
3.65928e-08
3.65936e-08
3.65925e-08
3.65937e-08
3.65921e-08
3.65938e-08
3.65915e-08
3.65941e-08
3.65905e-08
3.65947e-08
3.65896e-08
3.65968e-08
3.65914e-08
3.66041e-08
3.66049e-08
3.66272e-08
3.66461e-08
3.65865e-08
3.66091e-08
3.14557e-08
3.14481e-08
3.15131e-08
3.15015e-08
3.1482e-08
3.14823e-08
3.147e-08
3.14756e-08
3.14684e-08
3.14734e-08
3.14693e-08
3.14728e-08
3.14702e-08
3.14725e-08
3.14708e-08
3.14724e-08
3.14711e-08
3.14723e-08
3.14714e-08
3.14721e-08
3.14716e-08
3.1472e-08
3.14718e-08
3.1472e-08
3.14719e-08
3.14719e-08
3.1472e-08
3.14718e-08
3.1472e-08
3.14716e-08
3.14721e-08
3.14714e-08
3.14723e-08
3.14711e-08
3.14724e-08
3.14707e-08
3.14725e-08
3.14702e-08
3.14728e-08
3.14693e-08
3.14735e-08
3.14683e-08
3.14756e-08
3.14701e-08
3.14823e-08
3.1482e-08
3.15015e-08
3.15131e-08
3.14481e-08
3.14557e-08
2.68332e-08
2.68453e-08
2.6921e-08
2.69209e-08
2.69061e-08
2.69083e-08
2.68965e-08
2.69021e-08
2.68948e-08
2.68998e-08
2.68956e-08
2.68991e-08
2.68964e-08
2.68987e-08
2.68969e-08
2.68985e-08
2.68972e-08
2.68984e-08
2.68975e-08
2.68982e-08
2.68977e-08
2.68981e-08
2.68978e-08
2.6898e-08
2.68979e-08
2.68979e-08
2.6898e-08
2.68978e-08
2.68981e-08
2.68977e-08
2.68982e-08
2.68975e-08
2.68984e-08
2.68972e-08
2.68985e-08
2.68969e-08
2.68987e-08
2.68964e-08
2.68991e-08
2.68956e-08
2.68998e-08
2.68948e-08
2.69021e-08
2.68965e-08
2.69082e-08
2.69061e-08
2.69209e-08
2.6921e-08
2.68453e-08
2.68332e-08
2.29917e-08
2.30142e-08
2.30896e-08
2.30941e-08
2.30817e-08
2.30845e-08
2.30735e-08
2.30788e-08
2.30719e-08
2.30767e-08
2.30726e-08
2.30759e-08
2.30733e-08
2.30755e-08
2.30738e-08
2.30753e-08
2.30741e-08
2.30752e-08
2.30744e-08
2.30751e-08
2.30746e-08
2.3075e-08
2.30747e-08
2.30749e-08
2.30748e-08
2.30748e-08
2.30749e-08
2.30747e-08
2.3075e-08
2.30746e-08
2.30751e-08
2.30744e-08
2.30752e-08
2.30741e-08
2.30754e-08
2.30738e-08
2.30755e-08
2.30733e-08
2.30759e-08
2.30726e-08
2.30767e-08
2.30719e-08
2.30788e-08
2.30735e-08
2.30845e-08
2.30817e-08
2.30941e-08
2.30896e-08
2.30142e-08
2.29918e-08
1.95866e-08
1.96251e-08
1.97081e-08
1.97207e-08
1.97101e-08
1.97142e-08
1.9703e-08
1.97088e-08
1.97016e-08
1.97065e-08
1.97023e-08
1.97058e-08
1.97031e-08
1.97053e-08
1.97035e-08
1.97051e-08
1.97038e-08
1.9705e-08
1.97042e-08
1.97049e-08
1.97043e-08
1.97047e-08
1.97044e-08
1.97046e-08
1.97046e-08
1.97046e-08
1.97046e-08
1.97044e-08
1.97047e-08
1.97043e-08
1.97049e-08
1.97042e-08
1.9705e-08
1.97038e-08
1.97051e-08
1.97035e-08
1.97053e-08
1.97031e-08
1.97058e-08
1.97023e-08
1.97065e-08
1.97016e-08
1.97088e-08
1.9703e-08
1.97142e-08
1.97101e-08
1.97207e-08
1.97081e-08
1.96251e-08
1.95866e-08
1.66833e-08
1.67277e-08
1.68045e-08
1.68186e-08
1.68098e-08
1.68138e-08
1.68037e-08
1.68089e-08
1.68024e-08
1.68069e-08
1.68031e-08
1.68062e-08
1.68037e-08
1.68058e-08
1.68042e-08
1.68056e-08
1.68044e-08
1.68055e-08
1.68047e-08
1.68053e-08
1.68049e-08
1.68052e-08
1.6805e-08
1.68052e-08
1.68051e-08
1.68051e-08
1.68052e-08
1.6805e-08
1.68052e-08
1.68049e-08
1.68053e-08
1.68047e-08
1.68055e-08
1.68044e-08
1.68056e-08
1.68042e-08
1.68058e-08
1.68037e-08
1.68062e-08
1.68031e-08
1.68069e-08
1.68024e-08
1.68089e-08
1.68037e-08
1.68138e-08
1.68098e-08
1.68186e-08
1.68045e-08
1.67277e-08
1.66833e-08
1.43093e-08
1.43606e-08
1.44333e-08
1.44489e-08
1.44418e-08
1.44459e-08
1.44366e-08
1.44414e-08
1.44354e-08
1.44395e-08
1.4436e-08
1.44389e-08
1.44366e-08
1.44385e-08
1.4437e-08
1.44383e-08
1.44372e-08
1.44382e-08
1.44375e-08
1.44381e-08
1.44376e-08
1.4438e-08
1.44377e-08
1.44379e-08
1.44378e-08
1.44378e-08
1.44379e-08
1.44377e-08
1.4438e-08
1.44377e-08
1.44381e-08
1.44375e-08
1.44382e-08
1.44372e-08
1.44383e-08
1.4437e-08
1.44385e-08
1.44366e-08
1.44389e-08
1.4436e-08
1.44395e-08
1.44354e-08
1.44414e-08
1.44366e-08
1.44459e-08
1.44418e-08
1.44489e-08
1.44333e-08
1.43606e-08
1.43093e-08
1.2301e-08
1.23591e-08
1.24274e-08
1.24441e-08
1.24384e-08
1.24424e-08
1.24339e-08
1.24384e-08
1.24328e-08
1.24366e-08
1.24333e-08
1.2436e-08
1.24339e-08
1.24356e-08
1.24343e-08
1.24355e-08
1.24345e-08
1.24354e-08
1.24347e-08
1.24353e-08
1.24349e-08
1.24352e-08
1.24349e-08
1.24351e-08
1.2435e-08
1.2435e-08
1.24351e-08
1.24349e-08
1.24352e-08
1.24349e-08
1.24353e-08
1.24347e-08
1.24354e-08
1.24345e-08
1.24355e-08
1.24343e-08
1.24356e-08
1.24339e-08
1.2436e-08
1.24334e-08
1.24366e-08
1.24328e-08
1.24384e-08
1.24339e-08
1.24424e-08
1.24384e-08
1.24441e-08
1.24274e-08
1.23591e-08
1.2301e-08
1.06055e-08
1.06209e-08
1.06785e-08
1.0694e-08
1.06906e-08
1.06944e-08
1.06873e-08
1.06909e-08
1.06861e-08
1.06892e-08
1.06864e-08
1.06886e-08
1.06868e-08
1.06882e-08
1.06871e-08
1.06881e-08
1.06872e-08
1.0688e-08
1.06874e-08
1.06879e-08
1.06875e-08
1.06878e-08
1.06876e-08
1.06877e-08
1.06877e-08
1.06877e-08
1.06877e-08
1.06876e-08
1.06878e-08
1.06875e-08
1.06879e-08
1.06874e-08
1.0688e-08
1.06872e-08
1.06881e-08
1.06871e-08
1.06882e-08
1.06868e-08
1.06886e-08
1.06864e-08
1.06892e-08
1.06861e-08
1.06909e-08
1.06873e-08
1.06943e-08
1.06906e-08
1.0694e-08
1.06785e-08
1.06209e-08
1.06055e-08
9.17656e-09
9.19505e-09
9.24779e-09
9.26334e-09
9.26083e-09
9.26447e-09
9.25806e-09
9.26138e-09
9.25705e-09
9.25982e-09
9.25729e-09
9.25925e-09
9.25761e-09
9.2589e-09
9.25783e-09
9.25875e-09
9.25797e-09
9.25865e-09
9.25816e-09
9.25857e-09
9.25825e-09
9.25849e-09
9.25831e-09
9.25843e-09
9.25837e-09
9.25837e-09
9.25843e-09
9.25831e-09
9.25849e-09
9.25825e-09
9.25857e-09
9.25815e-09
9.25865e-09
9.25798e-09
9.25875e-09
9.25783e-09
9.25891e-09
9.25761e-09
9.25924e-09
9.2573e-09
9.25983e-09
9.25704e-09
9.26138e-09
9.25807e-09
9.26446e-09
9.26082e-09
9.26334e-09
9.24779e-09
9.19504e-09
9.17656e-09
7.92714e-09
7.94855e-09
7.99883e-09
8.01561e-09
8.01434e-09
8.0181e-09
8.01225e-09
8.0153e-09
8.01128e-09
8.01379e-09
8.01144e-09
8.01322e-09
8.0117e-09
8.01288e-09
8.01189e-09
8.01273e-09
8.01201e-09
8.01264e-09
8.01218e-09
8.01256e-09
8.01226e-09
8.01249e-09
8.01231e-09
8.01243e-09
8.01238e-09
8.01238e-09
8.01243e-09
8.01232e-09
8.01249e-09
8.01226e-09
8.01256e-09
8.01218e-09
8.01264e-09
8.01202e-09
8.01274e-09
8.01189e-09
8.01289e-09
8.0117e-09
8.01322e-09
8.01145e-09
8.01379e-09
8.01127e-09
8.0153e-09
8.01226e-09
8.01809e-09
8.01434e-09
8.01561e-09
7.99882e-09
7.94855e-09
7.92714e-09
6.87311e-09
6.89516e-09
6.94012e-09
6.95603e-09
6.95535e-09
6.95881e-09
6.95364e-09
6.95631e-09
6.95274e-09
6.95494e-09
6.95287e-09
6.95443e-09
6.95309e-09
6.95413e-09
6.95325e-09
6.95399e-09
6.95335e-09
6.95391e-09
6.9535e-09
6.95384e-09
6.95358e-09
6.95377e-09
6.95362e-09
6.95372e-09
6.95368e-09
6.95368e-09
6.95372e-09
6.95362e-09
6.95378e-09
6.95358e-09
6.95384e-09
6.9535e-09
6.95391e-09
6.95336e-09
6.954e-09
6.95325e-09
6.95413e-09
6.95309e-09
6.95443e-09
6.95287e-09
6.95495e-09
6.95274e-09
6.95631e-09
6.95364e-09
6.9588e-09
6.95535e-09
6.95603e-09
6.94011e-09
6.89516e-09
6.87311e-09
5.98316e-09
6.00541e-09
6.04548e-09
6.06045e-09
6.06024e-09
6.06342e-09
6.05885e-09
6.06119e-09
6.05802e-09
6.05995e-09
6.05811e-09
6.05948e-09
6.0583e-09
6.05921e-09
6.05843e-09
6.05909e-09
6.05853e-09
6.05902e-09
6.05866e-09
6.05896e-09
6.05872e-09
6.0589e-09
6.05876e-09
6.05885e-09
6.05881e-09
6.05881e-09
6.05885e-09
6.05876e-09
6.0589e-09
6.05872e-09
6.05896e-09
6.05866e-09
6.05902e-09
6.05853e-09
6.05909e-09
6.05843e-09
6.05922e-09
6.0583e-09
6.05948e-09
6.05812e-09
6.05995e-09
6.05802e-09
6.06119e-09
6.05885e-09
6.06341e-09
6.06024e-09
6.06045e-09
6.04548e-09
6.00541e-09
5.98316e-09
5.23084e-09
5.25286e-09
5.28858e-09
5.30255e-09
5.3027e-09
5.30561e-09
5.30157e-09
5.30362e-09
5.30082e-09
5.3025e-09
5.30088e-09
5.30208e-09
5.30103e-09
5.30183e-09
5.30115e-09
5.30172e-09
5.30123e-09
5.30166e-09
5.30134e-09
5.30161e-09
5.3014e-09
5.30156e-09
5.30143e-09
5.30152e-09
5.30148e-09
5.30148e-09
5.30152e-09
5.30144e-09
5.30156e-09
5.3014e-09
5.30161e-09
5.30134e-09
5.30166e-09
5.30123e-09
5.30173e-09
5.30115e-09
5.30184e-09
5.30103e-09
5.30207e-09
5.30088e-09
5.3025e-09
5.30081e-09
5.30362e-09
5.30157e-09
5.3056e-09
5.30269e-09
5.30255e-09
5.28858e-09
5.25286e-09
5.23084e-09
4.59378e-09
4.61527e-09
4.64715e-09
4.66009e-09
4.66052e-09
4.66318e-09
4.65961e-09
4.6614e-09
4.65893e-09
4.66039e-09
4.65896e-09
4.66001e-09
4.65908e-09
4.65979e-09
4.65918e-09
4.65969e-09
4.65925e-09
4.65964e-09
4.65936e-09
4.65959e-09
4.6594e-09
4.65954e-09
4.65944e-09
4.65951e-09
4.65948e-09
4.65948e-09
4.65951e-09
4.65944e-09
4.65954e-09
4.65941e-09
4.65959e-09
4.65935e-09
4.65963e-09
4.65925e-09
4.65969e-09
4.65918e-09
4.65979e-09
4.65908e-09
4.66e-09
4.65896e-09
4.66039e-09
4.65892e-09
4.6614e-09
4.65962e-09
4.66317e-09
4.66051e-09
4.66009e-09
4.64715e-09
4.61527e-09
4.59378e-09
4.05323e-09
4.07398e-09
4.10245e-09
4.11439e-09
4.11502e-09
4.11746e-09
4.11431e-09
4.11587e-09
4.11368e-09
4.11495e-09
4.11369e-09
4.11461e-09
4.11379e-09
4.11441e-09
4.11388e-09
4.11432e-09
4.11394e-09
4.11428e-09
4.11403e-09
4.11423e-09
4.11407e-09
4.11419e-09
4.1141e-09
4.11416e-09
4.11414e-09
4.11414e-09
4.11416e-09
4.1141e-09
4.1142e-09
4.11407e-09
4.11423e-09
4.11403e-09
4.11428e-09
4.11394e-09
4.11433e-09
4.11388e-09
4.11441e-09
4.11379e-09
4.1146e-09
4.1137e-09
4.11495e-09
4.11368e-09
4.11587e-09
4.11431e-09
4.11745e-09
4.11502e-09
4.11439e-09
4.10245e-09
4.07398e-09
4.05323e-09
3.59347e-09
3.61334e-09
3.63881e-09
3.64979e-09
3.65057e-09
3.65279e-09
3.65002e-09
3.65138e-09
3.64944e-09
3.65055e-09
3.64943e-09
3.65023e-09
3.64951e-09
3.65006e-09
3.64959e-09
3.64998e-09
3.64964e-09
3.64994e-09
3.64972e-09
3.6499e-09
3.64976e-09
3.64987e-09
3.64978e-09
3.64984e-09
3.64981e-09
3.64981e-09
3.64984e-09
3.64978e-09
3.64987e-09
3.64976e-09
3.6499e-09
3.64972e-09
3.64994e-09
3.64964e-09
3.64998e-09
3.64959e-09
3.65006e-09
3.64951e-09
3.65023e-09
3.64944e-09
3.65055e-09
3.64944e-09
3.65138e-09
3.65002e-09
3.65279e-09
3.65057e-09
3.64979e-09
3.63881e-09
3.61334e-09
3.59347e-09
3.20138e-09
3.2203e-09
3.24311e-09
3.25319e-09
3.25408e-09
3.25611e-09
3.25365e-09
3.25484e-09
3.25312e-09
3.25408e-09
3.2531e-09
3.2538e-09
3.25317e-09
3.25364e-09
3.25323e-09
3.25357e-09
3.25327e-09
3.25354e-09
3.25335e-09
3.25351e-09
3.25338e-09
3.25348e-09
3.2534e-09
3.25345e-09
3.25343e-09
3.25343e-09
3.25345e-09
3.2534e-09
3.25348e-09
3.25338e-09
3.25351e-09
3.25334e-09
3.25354e-09
3.25328e-09
3.25358e-09
3.25323e-09
3.25364e-09
3.25317e-09
3.2538e-09
3.25311e-09
3.25409e-09
3.25312e-09
3.25484e-09
3.25365e-09
3.2561e-09
3.25408e-09
3.25319e-09
3.2431e-09
3.2203e-09
3.20138e-09
2.86602e-09
2.88394e-09
2.90441e-09
2.91366e-09
2.91462e-09
2.91647e-09
2.9143e-09
2.91533e-09
2.91381e-09
2.91465e-09
2.91378e-09
2.91439e-09
2.91383e-09
2.91425e-09
2.91388e-09
2.91419e-09
2.91392e-09
2.91416e-09
2.91399e-09
2.91413e-09
2.91402e-09
2.9141e-09
2.91404e-09
2.91408e-09
2.91406e-09
2.91406e-09
2.91408e-09
2.91404e-09
2.9141e-09
2.91402e-09
2.91413e-09
2.91399e-09
2.91416e-09
2.91392e-09
2.91419e-09
2.91388e-09
2.91425e-09
2.91383e-09
2.91439e-09
2.91378e-09
2.91465e-09
2.91381e-09
2.91534e-09
2.9143e-09
2.91647e-09
2.91462e-09
2.91366e-09
2.90441e-09
2.88394e-09
2.86602e-09
2.57827e-09
2.5952e-09
2.61359e-09
2.62208e-09
2.62308e-09
2.62477e-09
2.62285e-09
2.62375e-09
2.6224e-09
2.62313e-09
2.62236e-09
2.62289e-09
2.6224e-09
2.62277e-09
2.62244e-09
2.62271e-09
2.62248e-09
2.62269e-09
2.62253e-09
2.62266e-09
2.62256e-09
2.62264e-09
2.62258e-09
2.62262e-09
2.6226e-09
2.6226e-09
2.62262e-09
2.62258e-09
2.62264e-09
2.62256e-09
2.62266e-09
2.62253e-09
2.62269e-09
2.62248e-09
2.62271e-09
2.62244e-09
2.62277e-09
2.6224e-09
2.62289e-09
2.62236e-09
2.62313e-09
2.6224e-09
2.62375e-09
2.62285e-09
2.62477e-09
2.62308e-09
2.62208e-09
2.61359e-09
2.5952e-09
2.57827e-09
2.33056e-09
2.34649e-09
2.36307e-09
2.37085e-09
2.37187e-09
2.37342e-09
2.37171e-09
2.3725e-09
2.37131e-09
2.37194e-09
2.37126e-09
2.37172e-09
2.37128e-09
2.37161e-09
2.37132e-09
2.37156e-09
2.37135e-09
2.37154e-09
2.3714e-09
2.37152e-09
2.37143e-09
2.37149e-09
2.37144e-09
2.37148e-09
2.37146e-09
2.37146e-09
2.37148e-09
2.37144e-09
2.37149e-09
2.37143e-09
2.37152e-09
2.3714e-09
2.37154e-09
2.37135e-09
2.37156e-09
2.37132e-09
2.37161e-09
2.37128e-09
2.37172e-09
2.37126e-09
2.37194e-09
2.3713e-09
2.3725e-09
2.37171e-09
2.37342e-09
2.37187e-09
2.37085e-09
2.36306e-09
2.34649e-09
2.33056e-09
2.11657e-09
2.13151e-09
2.1465e-09
2.15364e-09
2.15466e-09
2.15609e-09
2.15457e-09
2.15526e-09
2.1542e-09
2.15475e-09
2.15414e-09
2.15455e-09
2.15416e-09
2.15445e-09
2.15419e-09
2.1544e-09
2.15422e-09
2.15438e-09
2.15427e-09
2.15437e-09
2.15429e-09
2.15435e-09
2.1543e-09
2.15433e-09
2.15432e-09
2.15432e-09
2.15433e-09
2.1543e-09
2.15435e-09
2.15429e-09
2.15437e-09
2.15427e-09
2.15438e-09
2.15422e-09
2.15441e-09
2.15419e-09
2.15445e-09
2.15416e-09
2.15455e-09
2.15414e-09
2.15475e-09
2.15419e-09
2.15526e-09
2.15457e-09
2.15608e-09
2.15466e-09
2.15364e-09
2.1465e-09
2.13151e-09
2.11657e-09
1.93105e-09
1.94503e-09
1.95861e-09
1.96518e-09
1.96619e-09
1.9675e-09
1.96615e-09
1.96676e-09
1.96581e-09
1.96629e-09
1.96575e-09
1.96611e-09
1.96576e-09
1.96601e-09
1.96579e-09
1.96598e-09
1.96581e-09
1.96596e-09
1.96585e-09
1.96594e-09
1.96587e-09
1.96593e-09
1.96588e-09
1.96591e-09
1.9659e-09
1.9659e-09
1.96591e-09
1.96589e-09
1.96593e-09
1.96587e-09
1.96594e-09
1.96585e-09
1.96596e-09
1.96581e-09
1.96598e-09
1.96579e-09
1.96602e-09
1.96576e-09
1.96611e-09
1.96575e-09
1.96629e-09
1.9658e-09
1.96676e-09
1.96615e-09
1.96749e-09
1.96619e-09
1.96518e-09
1.95861e-09
1.94503e-09
1.93105e-09
1.76962e-09
1.78266e-09
1.79502e-09
1.80106e-09
1.80205e-09
1.80326e-09
1.80205e-09
1.80259e-09
1.80174e-09
1.80216e-09
1.80168e-09
1.80199e-09
1.80169e-09
1.80191e-09
1.80171e-09
1.80188e-09
1.80173e-09
1.80186e-09
1.80177e-09
1.80185e-09
1.80179e-09
1.80183e-09
1.8018e-09
1.80182e-09
1.80181e-09
1.80181e-09
1.80182e-09
1.8018e-09
1.80183e-09
1.80179e-09
1.80185e-09
1.80177e-09
1.80186e-09
1.80173e-09
1.80188e-09
1.80171e-09
1.80191e-09
1.80169e-09
1.80199e-09
1.80168e-09
1.80216e-09
1.80174e-09
1.80259e-09
1.80205e-09
1.80325e-09
1.80205e-09
1.80106e-09
1.79502e-09
1.78266e-09
1.76962e-09
1.62863e-09
1.64075e-09
1.65205e-09
1.65761e-09
1.65858e-09
1.65969e-09
1.65862e-09
1.65909e-09
1.65833e-09
1.65869e-09
1.65826e-09
1.65854e-09
1.65827e-09
1.65847e-09
1.65829e-09
1.65844e-09
1.65831e-09
1.65843e-09
1.65834e-09
1.65841e-09
1.65836e-09
1.6584e-09
1.65837e-09
1.65839e-09
1.65838e-09
1.65838e-09
1.65839e-09
1.65837e-09
1.6584e-09
1.65836e-09
1.65841e-09
1.65834e-09
1.65842e-09
1.65831e-09
1.65844e-09
1.65829e-09
1.65847e-09
1.65827e-09
1.65854e-09
1.65827e-09
1.65869e-09
1.65833e-09
1.65909e-09
1.65862e-09
1.65969e-09
1.65858e-09
1.65761e-09
1.65205e-09
1.64075e-09
1.62863e-09
1.505e-09
1.51629e-09
1.52663e-09
1.53176e-09
1.5327e-09
1.53372e-09
1.53277e-09
1.53318e-09
1.5325e-09
1.53282e-09
1.53244e-09
1.53269e-09
1.53244e-09
1.53262e-09
1.53246e-09
1.53259e-09
1.53248e-09
1.53258e-09
1.5325e-09
1.53257e-09
1.53252e-09
1.53256e-09
1.53253e-09
1.53255e-09
1.53254e-09
1.53254e-09
1.53255e-09
1.53253e-09
1.53256e-09
1.53252e-09
1.53257e-09
1.5325e-09
1.53258e-09
1.53248e-09
1.53259e-09
1.53246e-09
1.53262e-09
1.53244e-09
1.53268e-09
1.53244e-09
1.53282e-09
1.5325e-09
1.53318e-09
1.53277e-09
1.53372e-09
1.5327e-09
1.53176e-09
1.52663e-09
1.51629e-09
1.505e-09
)
;

boundaryField
{
    fuel
    {
        type            fixedValue;
        value           uniform 0;
    }
    wall
    {
        type            zeroGradient;
    }
    outlet
    {
        type            zeroGradient;
    }
    frontAndBack
    {
        type            empty;
    }
    procBoundary1to0
    {
        type            processor;
        value           nonuniform List<scalar> 
50
(
1.39619e-09
1.40672e-09
1.41621e-09
1.42094e-09
1.42184e-09
1.4228e-09
1.42194e-09
1.42231e-09
1.42169e-09
1.42198e-09
1.42163e-09
1.42185e-09
1.42163e-09
1.42179e-09
1.42165e-09
1.42177e-09
1.42166e-09
1.42176e-09
1.42169e-09
1.42175e-09
1.4217e-09
1.42174e-09
1.42171e-09
1.42173e-09
1.42172e-09
1.42172e-09
1.42173e-09
1.42171e-09
1.42174e-09
1.42171e-09
1.42175e-09
1.42169e-09
1.42176e-09
1.42166e-09
1.42177e-09
1.42165e-09
1.42179e-09
1.42163e-09
1.42185e-09
1.42163e-09
1.42198e-09
1.42169e-09
1.42231e-09
1.42194e-09
1.42279e-09
1.42184e-09
1.42094e-09
1.41621e-09
1.40672e-09
1.39619e-09
)
;
    }
}


// ************************************************************************* //
