/*--------------------------------*- C++ -*----------------------------------*\
| =========                 |                                                 |
| \\      /  F ield         | OpenFOAM: The Open Source CFD Toolbox           |
|  \\    /   O peration     | Version:  dev                                   |
|   \\  /    A nd           | Web:      www.OpenFOAM.org                      |
|    \\/     M anipulation  |                                                 |
\*---------------------------------------------------------------------------*/
FoamFile
{
    version     2.0;
    format      ascii;
    class       volVectorField;
    location    "0.08";
    object      U;
}
// * * * * * * * * * * * * * * * * * * * * * * * * * * * * * * * * * * * * * //

dimensions      [0 1 -1 0 0 0 0];

internalField   nonuniform List<vector> 
250
(
(0 2.09639 0.401165)
(0 1.66477 0.364463)
(0 1.57471 0.331756)
(0 1.27026 0.328662)
(0 1.13452 0.30625)
(0 0.885775 0.305694)
(0 0.724236 0.311054)
(0 0.492577 0.302804)
(0 0.324305 0.310455)
(0 0.0960445 0.305798)
(0 2.11363 0.369947)
(0 1.67386 0.335132)
(0 1.58177 0.304988)
(0 1.27536 0.302384)
(0 1.13759 0.281546)
(0 0.888946 0.28068)
(0 0.726454 0.286038)
(0 0.493528 0.277989)
(0 0.325799 0.285447)
(0 0.095229 0.280836)
(0 -0.0722832 0.279694)
(0 -0.307527 0.286304)
(0 -0.464984 0.276943)
(0 -0.719218 0.290328)
(0 -0.853249 0.277092)
(0 -1.15523 0.306264)
(0 -1.24022 0.272444)
(0 -1.65977 0.388231)
(0 -1.63779 0.258969)
(0 -2.29648 0.537334)
(0 2.12472 0.33786)
(0 1.67854 0.305025)
(0 1.58502 0.277784)
(0 1.27738 0.275489)
(0 1.13801 0.256421)
(0 0.88993 0.25526)
(0 0.72705 0.260554)
(0 0.493194 0.252811)
(0 0.326629 0.259981)
(0 0.0940083 0.255529)
(0 -0.0716747 0.25432)
(0 -0.308792 0.26079)
(0 -0.465269 0.251626)
(0 -0.720019 0.264531)
(0 -0.854987 0.251657)
(0 -1.15534 0.278976)
(0 -1.24373 0.247184)
(0 -1.65838 0.353621)
(0 -1.64778 0.236003)
(0 -2.30153 0.486476)
(0 2.12938 0.304941)
(0 1.67856 0.274316)
(0 1.5842 0.250155)
(0 1.27608 0.248032)
(0 1.13563 0.230881)
(0 0.88856 0.229464)
(0 0.725929 0.234614)
(0 0.491478 0.227262)
(0 0.326756 0.234103)
(0 0.092345 0.229826)
(0 -0.0707779 0.228625)
(0 -0.309467 0.234923)
(0 -0.464347 0.226033)
(0 -0.719173 0.238327)
(0 -0.854547 0.225951)
(0 -1.1527 0.251284)
(0 -1.24385 0.221596)
(0 -1.65297 0.318563)
(0 -1.65241 0.212226)
(0 -2.30035 0.435558)
(0 2.1273 0.271317)
(0 1.67372 0.243146)
(0 1.57903 0.222276)
(0 1.27124 0.220125)
(0 1.1303 0.205)
(0 0.884675 0.203414)
(0 0.723001 0.208349)
(0 0.48829 0.201476)
(0 0.326141 0.20789)
(0 0.0901988 0.203853)
(0 -0.0695743 0.202694)
(0 -0.309525 0.208701)
(0 -0.462157 0.200205)
(0 -0.716596 0.211777)
(0 -0.851798 0.199976)
(0 -1.14712 0.223225)
(0 -1.24039 0.195703)
(0 -1.6433 0.283015)
(0 -1.6515 0.18797)
(0 -2.29241 0.384599)
(0 2.11817 0.237212)
(0 1.66382 0.211683)
(0 1.56929 0.194238)
(0 1.26269 0.191927)
(0 1.12194 0.178918)
(0 0.878127 0.177218)
(0 0.718183 0.181866)
(0 0.483552 0.175567)
(0 0.324747 0.181463)
(0 0.0875364 0.177731)
(0 -0.068054 0.176618)
(0 -0.308946 0.182263)
(0 -0.458646 0.174278)
(0 -0.712217 0.184996)
(0 -0.846628 0.173908)
(0 -1.1385 0.194967)
(0 -1.23327 0.169744)
(0 -1.62903 0.24753)
(0 -1.64503 0.16309)
(0 -2.27718 0.33382)
(0 2.10183 0.202892)
(0 1.64873 0.180146)
(0 1.55475 0.166169)
(0 1.25027 0.163657)
(0 1.11046 0.152841)
(0 0.8688 0.151036)
(0 0.71141 0.155311)
(0 0.477197 0.149677)
(0 0.32254 0.154965)
(0 0.0843296 0.151604)
(0 -0.0662193 0.150552)
(0 -0.30772 0.155749)
(0 -0.453785 0.148399)
(0 -0.70599 0.158127)
(0 -0.838962 0.147904)
(0 -1.12673 0.166712)
(0 -1.22239 0.143933)
(0 -1.61001 0.211924)
(0 -1.63264 0.13815)
(0 -2.25432 0.283449)
(0 2.07811 0.16855)
(0 1.62842 0.148809)
(0 1.5353 0.138224)
(0 1.23389 0.135498)
(0 1.09583 0.126889)
(0 0.856628 0.125043)
(0 0.702644 0.128859)
(0 0.469189 0.123974)
(0 0.319487 0.128566)
(0 0.0805618 0.125641)
(0 -0.0640912 0.124673)
(0 -0.305847 0.129322)
(0 -0.447579 0.122743)
(0 -0.697906 0.131339)
(0 -0.828783 0.12215)
(0 -1.11177 0.138579)
(0 -1.20779 0.118446)
(0 -1.58626 0.17617)
(0 -1.61442 0.113684)
(0 -2.22309 0.233728)
(0 2.04703 0.134463)
(0 1.60304 0.117969)
(0 1.51096 0.110584)
(0 1.2136 0.107694)
(0 1.0781 0.101241)
(0 0.841636 0.0994399)
(0 0.691901 0.102715)
(0 0.459545 0.0986549)
(0 0.315565 0.102467)
(0 0.076238 0.100041)
(0 -0.0617213 0.0991801)
(0 -0.30335 0.103178)
(0 -0.440094 0.0975123)
(0 -0.688023 0.104832)
(0 -0.816167 0.0968616)
(0 -1.09367 0.110747)
(0 -1.18962 0.0935134)
(0 -1.55757 0.140929)
(0 -1.59083 0.0895668)
(0 -2.18309 0.185051)
(0 2.00894 0.100994)
(0 1.57301 0.0879702)
(0 1.48202 0.0834689)
(0 1.18968 0.0805509)
(0 1.0575 0.0761295)
(0 0.824016 0.0744728)
(0 0.679296 0.0771281)
(0 0.448375 0.0739586)
(0 0.310773 0.0769171)
(0 0.0714051 0.0750449)
(0 -0.0592106 0.0743191)
(0 -0.300289 0.0775586)
(0 -0.431496 0.072951)
(0 -0.676513 0.0788526)
(0 -0.801358 0.0722953)
(0 -1.07271 0.0834546)
(0 -1.16825 0.069422)
(0 -1.52412 0.106368)
(0 -1.56246 0.0662644)
(0 -2.13431 0.137929)
(0 1.96491 0.0687292)
(0 1.53933 0.0593301)
(0 1.4493 0.0572747)
(0 1.16283 0.0545484)
(0 1.0346 0.0519536)
(0 0.804283 0.0505482)
(0 0.665146 0.0525173)
(0 0.435983 0.050281)
(0 0.305162 0.0523354)
(0 0.0661958 0.0510546)
(0 -0.0567394 0.0504915)
(0 -0.296783 0.052879)
(0 -0.422139 0.0494581)
(0 -0.66376 0.0538202)
(0 -0.784897 0.0488605)
(0 -1.0495 0.0571231)
(0 -1.14445 0.0465936)
(0 -1.48666 0.0729754)
(0 -1.53048 0.0442546)
(0 -2.07749 0.0931543)
(0 1.91756 0.038867)
(0 1.50419 0.0331037)
(0 1.41481 0.0328687)
(0 1.13469 0.0306457)
(0 1.01071 0.0295561)
(0 0.78365 0.0285152)
(0 0.650226 0.0297579)
(0 0.423096 0.0284476)
(0 0.298935 0.0296051)
(0 0.0609375 0.0289092)
(0 -0.0546137 0.0285331)
(0 -0.29307 0.0300142)
(0 -0.412738 0.0278606)
(0 -0.650576 0.0306156)
(0 -0.767918 0.0273936)
(0 -1.02548 0.0326531)
(0 -1.11984 0.0258577)
(0 -1.44719 0.0418708)
(0 -1.49719 0.0243567)
(0 -2.01521 0.0522896)
(0 1.87411 0.0140359)
(0 1.47283 0.0119681)
(0 1.38378 0.0119963)
(0 1.10943 0.0110662)
(0 0.98926 0.0107124)
(0 0.76524 0.0102939)
(0 0.636675 0.0107539)
(0 0.411656 0.0102772)
(0 0.292989 0.0106855)
(0 0.0563739 0.0104437)
(0 -0.0531976 0.0102886)
(0 -0.289783 0.0108602)
(0 -0.404806 0.0100318)
(0 -0.638922 0.0110904)
(0 -0.753032 0.00985145)
(0 -1.0042 0.0118438)
(0 -1.09816 0.00930173)
(0 -1.41143 0.0151446)
(0 -1.46783 0.0089229)
(0 -1.95639 0.0184569)
)
;

boundaryField
{
    fuel
    {
        type            fixedValue;
        value           nonuniform 0();
    }
    wall
    {
        type            slip;
    }
    outlet
    {
        type            pressureInletOutletVelocity;
        value           nonuniform List<vector> 
25
(
(0 2.09639 0.401165)
(0 2.11363 0.369947)
(0 2.12472 0.33786)
(0 2.12938 0.304941)
(0 2.1273 0.271317)
(0 2.11817 0.237212)
(0 2.10183 0.202892)
(0 2.07811 0.16855)
(0 2.04703 0.134463)
(0 2.00894 0.100994)
(0 1.96491 0.0687292)
(0 1.91756 0.038867)
(0 1.87411 0.0140359)
(0 -2.29648 0.537334)
(0 -2.30153 0.486476)
(0 -2.30035 0.435558)
(0 -2.29241 0.384599)
(0 -2.27718 0.33382)
(0 -2.25432 0.283449)
(0 -2.22309 0.233728)
(0 -2.18309 0.185051)
(0 -2.13431 0.137929)
(0 -2.07749 0.0931543)
(0 -2.01521 0.0522896)
(0 -1.95639 0.0184569)
)
;
    }
    frontAndBack
    {
        type            empty;
    }
    procBoundary1to0
    {
        type            processor;
        value           nonuniform List<vector> 
21
(
(0 2.07332 0.431364)
(0 1.65148 0.392926)
(0 1.56413 0.358024)
(0 1.26229 0.354262)
(0 1.12896 0.330455)
(0 0.880586 0.33021)
(0 0.720494 0.335504)
(0 0.490433 0.327131)
(0 0.322187 0.334898)
(0 0.0964894 0.33023)
(0 -0.0726124 0.304625)
(0 -0.0726124 0.304625)
(0 -0.305695 0.311319)
(0 -0.463568 0.301853)
(0 -0.716856 0.315614)
(0 -0.849473 0.302118)
(0 -1.15255 0.333093)
(0 -1.23345 0.297284)
(0 -1.65744 0.422317)
(0 -1.62264 0.281056)
(0 -2.28573 0.587982)
)
;
    }
}


// ************************************************************************* //
