/*--------------------------------*- C++ -*----------------------------------*\
| =========                 |                                                 |
| \\      /  F ield         | OpenFOAM: The Open Source CFD Toolbox           |
|  \\    /   O peration     | Version:  dev                                   |
|   \\  /    A nd           | Web:      www.OpenFOAM.org                      |
|    \\/     M anipulation  |                                                 |
\*---------------------------------------------------------------------------*/
FoamFile
{
    version     2.0;
    format      ascii;
    class       volScalarField;
    location    "0.05";
    object      A1;
}
// * * * * * * * * * * * * * * * * * * * * * * * * * * * * * * * * * * * * * //

dimensions      [0 0 0 0 0 0 0];

internalField   nonuniform List<scalar> 
250
(
2.12791e-05
1.74948e-05
1.56821e-05
1.49283e-05
1.4879e-05
1.48222e-05
1.48153e-05
1.48551e-05
1.48073e-05
1.48602e-05
2.14612e-05
1.79316e-05
1.62733e-05
1.55842e-05
1.55331e-05
1.54793e-05
1.54717e-05
1.55071e-05
1.54628e-05
1.55114e-05
1.55065e-05
1.54808e-05
1.55035e-05
1.54883e-05
1.54826e-05
1.5552e-05
1.55953e-05
1.62124e-05
1.7739e-05
2.07574e-05
2.16036e-05
1.83226e-05
1.68035e-05
1.61796e-05
1.61266e-05
1.60761e-05
1.60678e-05
1.60987e-05
1.60581e-05
1.6102e-05
1.60974e-05
1.60745e-05
1.60952e-05
1.60826e-05
1.60788e-05
1.61429e-05
1.61888e-05
1.67459e-05
1.81206e-05
2.08748e-05
2.16871e-05
1.86586e-05
1.72724e-05
1.67136e-05
1.66593e-05
1.66125e-05
1.66036e-05
1.663e-05
1.65934e-05
1.66323e-05
1.6628e-05
1.66079e-05
1.66267e-05
1.66167e-05
1.66146e-05
1.66733e-05
1.6721e-05
1.72194e-05
1.84567e-05
2.09669e-05
2.17048e-05
1.89386e-05
1.76842e-05
1.71896e-05
1.71353e-05
1.70922e-05
1.7083e-05
1.7105e-05
1.70722e-05
1.71062e-05
1.71023e-05
1.7085e-05
1.71019e-05
1.70943e-05
1.70937e-05
1.7147e-05
1.71953e-05
1.76369e-05
1.8745e-05
2.1022e-05
2.16592e-05
1.91666e-05
1.80454e-05
1.76133e-05
1.75603e-05
1.75208e-05
1.75114e-05
1.75293e-05
1.75001e-05
1.75293e-05
1.75257e-05
1.75112e-05
1.75264e-05
1.7521e-05
1.75218e-05
1.75697e-05
1.76175e-05
1.80043e-05
1.89944e-05
2.10373e-05
2.15599e-05
1.93504e-05
1.83637e-05
1.79915e-05
1.79407e-05
1.79048e-05
1.78953e-05
1.79093e-05
1.78836e-05
1.79081e-05
1.79049e-05
1.78931e-05
1.79066e-05
1.79033e-05
1.79053e-05
1.79482e-05
1.79945e-05
1.83291e-05
1.91992e-05
2.1015e-05
2.14221e-05
1.95003e-05
1.86483e-05
1.83323e-05
1.82844e-05
1.82518e-05
1.82422e-05
1.82527e-05
1.82302e-05
1.82501e-05
1.82472e-05
1.82381e-05
1.82501e-05
1.82488e-05
1.82518e-05
1.829e-05
1.83341e-05
1.86197e-05
1.93736e-05
2.09641e-05
2.12659e-05
1.96291e-05
1.89084e-05
1.86441e-05
1.85994e-05
1.85696e-05
1.85601e-05
1.8567e-05
1.85477e-05
1.8563e-05
1.85606e-05
1.85541e-05
1.85646e-05
1.85652e-05
1.85692e-05
1.86032e-05
1.86449e-05
1.88854e-05
1.95281e-05
2.0898e-05
2.1113e-05
1.97488e-05
1.91509e-05
1.89329e-05
1.88906e-05
1.88634e-05
1.88538e-05
1.88574e-05
1.88412e-05
1.88519e-05
1.88499e-05
1.88461e-05
1.88552e-05
1.88575e-05
1.88626e-05
1.88928e-05
1.89328e-05
1.91327e-05
1.96724e-05
2.08321e-05
2.09812e-05
1.98644e-05
1.93742e-05
1.91963e-05
1.91548e-05
1.91296e-05
1.912e-05
1.912e-05
1.91073e-05
1.9113e-05
1.91116e-05
1.91106e-05
1.91181e-05
1.91221e-05
1.91286e-05
1.91554e-05
1.91951e-05
1.93598e-05
1.98095e-05
2.0778e-05
2.08779e-05
1.99668e-05
1.95623e-05
1.94167e-05
1.93745e-05
1.93509e-05
1.9341e-05
1.93377e-05
1.93286e-05
1.93293e-05
1.93284e-05
1.93302e-05
1.93363e-05
1.93418e-05
1.93496e-05
1.93737e-05
1.94145e-05
1.95509e-05
1.99284e-05
2.07374e-05
2.0817e-05
2.00426e-05
1.96932e-05
1.95685e-05
1.95249e-05
1.95023e-05
1.94921e-05
1.94863e-05
1.94801e-05
1.94769e-05
1.94765e-05
1.94804e-05
1.94853e-05
1.94918e-05
1.95009e-05
1.9523e-05
1.95655e-05
1.96834e-05
2.00144e-05
2.0717e-05
)
;

boundaryField
{
    fuel
    {
        type            fixedValue;
        value           nonuniform 0();
    }
    wall
    {
        type            zeroGradient;
    }
    outlet
    {
        type            zeroGradient;
    }
    frontAndBack
    {
        type            empty;
    }
    procBoundary1to0
    {
        type            processor;
        value           nonuniform List<scalar> 
21
(
2.10908e-05
1.70312e-05
1.50373e-05
1.42197e-05
1.41701e-05
1.41108e-05
1.41048e-05
1.41482e-05
1.40977e-05
1.41541e-05
1.48551e-05
1.48551e-05
1.48269e-05
1.48513e-05
1.48335e-05
1.4826e-05
1.49002e-05
1.49412e-05
1.56196e-05
1.73206e-05
2.06363e-05
)
;
    }
}


// ************************************************************************* //
