/*--------------------------------*- C++ -*----------------------------------*\
| =========                 |                                                 |
| \\      /  F ield         | OpenFOAM: The Open Source CFD Toolbox           |
|  \\    /   O peration     | Version:  dev                                   |
|   \\  /    A nd           | Web:      www.OpenFOAM.org                      |
|    \\/     M anipulation  |                                                 |
\*---------------------------------------------------------------------------*/
FoamFile
{
    version     2.0;
    format      ascii;
    class       volScalarField;
    location    "0.05";
    object      A2C2HB;
}
// * * * * * * * * * * * * * * * * * * * * * * * * * * * * * * * * * * * * * //

dimensions      [0 0 0 0 0 0 0];

internalField   nonuniform List<scalar> 
250
(
2.44634e-09
1.10901e-09
7.93573e-10
7.23207e-10
7.00677e-10
6.98844e-10
6.95886e-10
6.97268e-10
6.95702e-10
6.96751e-10
2.10478e-09
1.06745e-09
8.06635e-10
7.43006e-10
7.23178e-10
7.20477e-10
7.17859e-10
7.18612e-10
7.17244e-10
7.18031e-10
7.18837e-10
7.15635e-10
7.19535e-10
7.14084e-10
7.21285e-10
7.16334e-10
7.41517e-10
8.04481e-10
1.1918e-09
3.72424e-09
1.82719e-09
1.02556e-09
8.11634e-10
7.54361e-10
7.37086e-10
7.33676e-10
7.31374e-10
7.31546e-10
7.30352e-10
7.30881e-10
7.3128e-10
7.29124e-10
7.31791e-10
7.28356e-10
7.33566e-10
7.3143e-10
7.52319e-10
8.08901e-10
1.12077e-09
3.0714e-09
1.60127e-09
9.84249e-10
8.09877e-10
7.58859e-10
7.43879e-10
7.39999e-10
7.37943e-10
7.37634e-10
7.36558e-10
7.36851e-10
7.36915e-10
7.35601e-10
7.37304e-10
7.35492e-10
7.39111e-10
7.39184e-10
7.56284e-10
8.06636e-10
1.05411e-09
2.53633e-09
1.41774e-09
9.44424e-10
8.0335e-10
7.58527e-10
7.45561e-10
7.41446e-10
7.39546e-10
7.38862e-10
7.37838e-10
7.37919e-10
7.37717e-10
7.37033e-10
7.38055e-10
7.3745e-10
7.39911e-10
7.41537e-10
7.55454e-10
7.99662e-10
9.93249e-10
2.1044e-09
1.26945e-09
9.08097e-10
7.94098e-10
7.55285e-10
7.44017e-10
7.39853e-10
7.38027e-10
7.37056e-10
7.3603e-10
7.35917e-10
7.35527e-10
7.35265e-10
7.35881e-10
7.3608e-10
7.37808e-10
7.40385e-10
7.51744e-10
7.89994e-10
9.39447e-10
1.75665e-09
1.15061e-09
8.75713e-10
7.83792e-10
7.50625e-10
7.4078e-10
7.36686e-10
7.34863e-10
7.33667e-10
7.32597e-10
7.32297e-10
7.31766e-10
7.31784e-10
7.32187e-10
7.32907e-10
7.34211e-10
7.37306e-10
7.46636e-10
7.79274e-10
8.93293e-10
1.47934e-09
1.05634e-09
8.47621e-10
7.73567e-10
7.45521e-10
7.36857e-10
7.32889e-10
7.31017e-10
7.29633e-10
7.28488e-10
7.28006e-10
7.27366e-10
7.27567e-10
7.27892e-10
7.28937e-10
7.30034e-10
7.33359e-10
7.41096e-10
7.68609e-10
8.54743e-10
1.27118e-09
9.82428e-10
8.23793e-10
7.64063e-10
7.40515e-10
7.32819e-10
7.2899e-10
7.27034e-10
7.25484e-10
7.24245e-10
7.23581e-10
7.22854e-10
7.23175e-10
7.23509e-10
7.24752e-10
7.25788e-10
7.29161e-10
7.35662e-10
7.58629e-10
8.23249e-10
1.11337e-09
9.25332e-10
8.04006e-10
7.55596e-10
7.35877e-10
7.28962e-10
7.25263e-10
7.23198e-10
7.21499e-10
7.20155e-10
7.19313e-10
7.18511e-10
7.18913e-10
7.19309e-10
7.20665e-10
7.21736e-10
7.25049e-10
7.30612e-10
7.4965e-10
7.98063e-10
9.96433e-10
8.82286e-10
7.88051e-10
7.48353e-10
7.31777e-10
7.25473e-10
7.21883e-10
7.19698e-10
7.17867e-10
7.16416e-10
7.15406e-10
7.14542e-10
7.14993e-10
7.15484e-10
7.16895e-10
7.18061e-10
7.21246e-10
7.26129e-10
7.41886e-10
7.78487e-10
9.12508e-10
8.51571e-10
7.75963e-10
7.42584e-10
7.28423e-10
7.22565e-10
7.1906e-10
7.1676e-10
7.1482e-10
7.1327e-10
7.12115e-10
7.112e-10
7.11678e-10
7.12277e-10
7.13699e-10
7.14989e-10
7.1802e-10
7.2245e-10
7.3564e-10
7.64142e-10
8.55758e-10
8.33258e-10
7.68407e-10
7.38834e-10
7.26206e-10
7.20616e-10
7.17166e-10
7.14779e-10
7.12767e-10
7.11145e-10
7.09891e-10
7.08944e-10
7.09431e-10
7.1012e-10
7.11527e-10
7.12927e-10
7.15825e-10
7.2001e-10
7.31551e-10
7.55399e-10
8.23576e-10
)
;

boundaryField
{
    fuel
    {
        type            fixedValue;
        value           nonuniform 0();
    }
    wall
    {
        type            zeroGradient;
    }
    outlet
    {
        type            zeroGradient;
    }
    frontAndBack
    {
        type            empty;
    }
    procBoundary1to0
    {
        type            processor;
        value           nonuniform List<scalar> 
21
(
2.86749e-09
1.15032e-09
7.72476e-10
6.94456e-10
6.69236e-10
6.68262e-10
6.65004e-10
6.66981e-10
6.6524e-10
6.66525e-10
6.98001e-10
6.98001e-10
6.93655e-10
6.98919e-10
6.91254e-10
7.00643e-10
6.92562e-10
7.22266e-10
7.92042e-10
1.26598e-09
4.50989e-09
)
;
    }
}


// ************************************************************************* //
