/*--------------------------------*- C++ -*----------------------------------*\
| =========                 |                                                 |
| \\      /  F ield         | OpenFOAM: The Open Source CFD Toolbox           |
|  \\    /   O peration     | Version:  dev                                   |
|   \\  /    A nd           | Web:      www.OpenFOAM.org                      |
|    \\/     M anipulation  |                                                 |
\*---------------------------------------------------------------------------*/
FoamFile
{
    version     2.0;
    format      ascii;
    class       volScalarField;
    location    "0.05";
    object      A2C2HB;
}
// * * * * * * * * * * * * * * * * * * * * * * * * * * * * * * * * * * * * * //

dimensions      [0 0 0 0 0 0 0];

internalField   nonuniform List<scalar> 
25
(
5.99643e-16
7.76532e-16
1.00334e-15
1.29241e-15
1.6603e-15
2.12805e-15
2.74294e-15
3.5362e-15
4.5667e-15
5.91163e-15
7.67005e-15
9.96738e-15
1.29596e-14
1.68296e-14
2.17685e-14
2.79482e-14
3.55229e-14
4.47619e-14
5.54445e-14
6.8059e-14
8.30029e-14
9.98031e-14
1.17555e-13
1.37051e-13
1.58353e-13
)
;

boundaryField
{
    wall
    {
        type            zeroGradient;
    }
    fuel
    {
        type            fixedValue;
        value           nonuniform 0();
    }
    outlet
    {
        type            inletOutlet;
        inletValue      nonuniform 0();
        value           nonuniform 0();
    }
    procBoundary1to0
    {
        type            processor;
        value           uniform 4.62622e-16;
    }
    procBoundary1to2
    {
        type            processor;
        value           uniform 1.81767e-13;
    }
}


// ************************************************************************* //
