/*--------------------------------*- C++ -*----------------------------------*\
| =========                 |                                                 |
| \\      /  F ield         | OpenFOAM: The Open Source CFD Toolbox           |
|  \\    /   O peration     | Version:  dev                                   |
|   \\  /    A nd           | Web:      www.OpenFOAM.org                      |
|    \\/     M anipulation  |                                                 |
\*---------------------------------------------------------------------------*/
FoamFile
{
    version     2.0;
    format      ascii;
    class       volScalarField;
    location    "0.05";
    object      A2R5;
}
// * * * * * * * * * * * * * * * * * * * * * * * * * * * * * * * * * * * * * //

dimensions      [0 0 0 0 0 0 0];

internalField   nonuniform List<scalar> 
250
(
1.13602e-07
7.99444e-08
6.45199e-08
5.81665e-08
5.64007e-08
5.59716e-08
5.58285e-08
5.58036e-08
5.57812e-08
5.57937e-08
1.05064e-07
7.68475e-08
6.37383e-08
5.82447e-08
5.66727e-08
5.62712e-08
5.61315e-08
5.60993e-08
5.60747e-08
5.60804e-08
5.60779e-08
5.60433e-08
5.60793e-08
5.60567e-08
5.62126e-08
5.65638e-08
5.8078e-08
6.38021e-08
7.75876e-08
1.20837e-07
9.75662e-08
7.40584e-08
6.29943e-08
5.82683e-08
5.68781e-08
5.65008e-08
5.63654e-08
5.63249e-08
5.62983e-08
5.62966e-08
5.62899e-08
5.6265e-08
5.6294e-08
5.62872e-08
5.64263e-08
5.67575e-08
5.80842e-08
6.30452e-08
7.45807e-08
1.10339e-07
9.10085e-08
7.15475e-08
6.22721e-08
5.82294e-08
5.70075e-08
5.66524e-08
5.65216e-08
5.64724e-08
5.64437e-08
5.64344e-08
5.64232e-08
5.64087e-08
5.64302e-08
5.64406e-08
5.65618e-08
5.68778e-08
5.80269e-08
6.22926e-08
7.18547e-08
1.0112e-07
8.52988e-08
6.92692e-08
6.15669e-08
5.81301e-08
5.70627e-08
5.67295e-08
5.66028e-08
5.65454e-08
5.65139e-08
5.64968e-08
5.64802e-08
5.64765e-08
5.64906e-08
5.65184e-08
5.66218e-08
5.69245e-08
5.79091e-08
6.15449e-08
6.93919e-08
9.31015e-08
8.03558e-08
6.7252e-08
6.08814e-08
5.79792e-08
5.70506e-08
5.67384e-08
5.66153e-08
5.65502e-08
5.65153e-08
5.6491e-08
5.647e-08
5.64748e-08
5.64845e-08
5.65263e-08
5.66157e-08
5.6904e-08
5.77405e-08
6.08095e-08
6.71872e-08
8.6105e-08
7.6104e-08
6.54613e-08
6.0223e-08
5.77895e-08
5.69848e-08
5.66932e-08
5.65729e-08
5.65009e-08
5.64619e-08
5.64305e-08
5.64053e-08
5.64171e-08
5.64246e-08
5.64775e-08
5.65563e-08
5.68285e-08
5.75344e-08
6.00979e-08
6.52331e-08
8.00223e-08
7.24761e-08
6.38865e-08
5.96014e-08
5.75755e-08
5.68799e-08
5.66084e-08
5.64897e-08
5.64118e-08
5.63678e-08
5.63297e-08
5.63006e-08
5.63178e-08
5.63254e-08
5.63863e-08
5.64581e-08
5.67124e-08
5.73059e-08
5.94231e-08
6.35222e-08
7.50242e-08
6.94141e-08
6.25201e-08
5.90276e-08
5.73522e-08
5.67511e-08
5.64988e-08
5.63808e-08
5.62976e-08
5.62481e-08
5.62037e-08
5.61711e-08
5.61919e-08
5.6202e-08
5.62676e-08
5.63363e-08
5.65709e-08
5.707e-08
5.87988e-08
6.20473e-08
7.08621e-08
6.68732e-08
6.13584e-08
5.8514e-08
5.71348e-08
5.6614e-08
5.63794e-08
5.6261e-08
5.61735e-08
5.61181e-08
5.60679e-08
5.60321e-08
5.6055e-08
5.60695e-08
5.6137e-08
5.62057e-08
5.64197e-08
5.68422e-08
5.82396e-08
6.08041e-08
6.74699e-08
6.48283e-08
6.04052e-08
5.80753e-08
5.69391e-08
5.64841e-08
5.62651e-08
5.61455e-08
5.60544e-08
5.5993e-08
5.59377e-08
5.58992e-08
5.59229e-08
5.5943e-08
5.60102e-08
5.60815e-08
5.62754e-08
5.66382e-08
5.77622e-08
5.97944e-08
6.47984e-08
6.32868e-08
5.96768e-08
5.77307e-08
5.67811e-08
5.63764e-08
5.61701e-08
5.60489e-08
5.59549e-08
5.58882e-08
5.58286e-08
5.57877e-08
5.58115e-08
5.58374e-08
5.59032e-08
5.59782e-08
5.61544e-08
5.64737e-08
5.73876e-08
5.90312e-08
6.28315e-08
6.23301e-08
5.92217e-08
5.75117e-08
5.668e-08
5.63068e-08
5.61088e-08
5.59862e-08
5.58904e-08
5.58199e-08
5.57574e-08
5.57149e-08
5.57385e-08
5.57687e-08
5.5833e-08
5.59113e-08
5.60753e-08
5.63685e-08
5.715e-08
5.85583e-08
6.16368e-08
)
;

boundaryField
{
    fuel
    {
        type            fixedValue;
        value           nonuniform 0();
    }
    wall
    {
        type            zeroGradient;
    }
    outlet
    {
        type            zeroGradient;
    }
    frontAndBack
    {
        type            empty;
    }
    procBoundary1to0
    {
        type            processor;
        value           nonuniform List<scalar> 
21
(
1.2328e-07
8.33887e-08
6.53671e-08
5.80537e-08
5.60839e-08
5.56222e-08
5.5477e-08
5.54576e-08
5.54378e-08
5.54565e-08
5.57945e-08
5.57945e-08
5.57525e-08
5.57932e-08
5.57592e-08
5.59277e-08
5.63083e-08
5.80151e-08
6.45735e-08
8.09005e-08
1.32689e-07
)
;
    }
}


// ************************************************************************* //
