/*--------------------------------*- C++ -*----------------------------------*\
| =========                 |                                                 |
| \\      /  F ield         | OpenFOAM: The Open Source CFD Toolbox           |
|  \\    /   O peration     | Version:  dev                                   |
|   \\  /    A nd           | Web:      www.OpenFOAM.org                      |
|    \\/     M anipulation  |                                                 |
\*---------------------------------------------------------------------------*/
FoamFile
{
    version     2.0;
    format      ascii;
    class       volScalarField;
    location    "0.05";
    object      A3C2H;
}
// * * * * * * * * * * * * * * * * * * * * * * * * * * * * * * * * * * * * * //

dimensions      [0 0 0 0 0 0 0];

internalField   nonuniform List<scalar> 
250
(
4.24607e-11
2.27427e-11
1.58915e-11
1.29681e-11
1.24187e-11
1.21619e-11
1.21577e-11
1.20928e-11
1.212e-11
1.21011e-11
3.49879e-11
1.95819e-11
1.42909e-11
1.18501e-11
1.14108e-11
1.11694e-11
1.11733e-11
1.11033e-11
1.11337e-11
1.11102e-11
1.10679e-11
1.11827e-11
1.1037e-11
1.12585e-11
1.1076e-11
1.15376e-11
1.17748e-11
1.43202e-11
2.08002e-11
5.07059e-11
2.8574e-11
1.66795e-11
1.26651e-11
1.06509e-11
1.03095e-11
1.00863e-11
1.00968e-11
1.00245e-11
1.00568e-11
1.00297e-11
9.98467e-12
1.01068e-11
9.95332e-12
1.01832e-11
9.98714e-12
1.04353e-11
1.05736e-11
1.27033e-11
1.75734e-11
3.9234e-11
2.31172e-11
1.40497e-11
1.10495e-11
9.41113e-12
9.15433e-12
8.9535e-12
8.96729e-12
8.8982e-12
8.92961e-12
8.90212e-12
8.85297e-12
8.97784e-12
8.82244e-12
9.05106e-12
8.85106e-12
9.27299e-12
9.33417e-12
1.10899e-11
1.4694e-11
3.02518e-11
1.85446e-11
1.17014e-11
9.50139e-12
8.19325e-12
7.98451e-12
7.80985e-12
7.82715e-12
7.76335e-12
7.78993e-12
7.76859e-12
7.73487e-12
7.83441e-12
7.70681e-12
7.90296e-12
7.73055e-12
8.09777e-12
8.11988e-12
9.5381e-12
1.21678e-11
2.32775e-11
1.48089e-11
9.72412e-12
8.09719e-12
7.07828e-12
6.92046e-12
6.77652e-12
6.7906e-12
6.73798e-12
6.75898e-12
6.74119e-12
6.70898e-12
6.79543e-12
6.6855e-12
6.85318e-12
6.70525e-12
7.01223e-12
7.01154e-12
8.12555e-12
1.00288e-11
1.78752e-11
1.18707e-11
8.13814e-12
6.91705e-12
6.14622e-12
6.02353e-12
5.91125e-12
5.92038e-12
5.87869e-12
5.89409e-12
5.87879e-12
5.85288e-12
5.92062e-12
5.83558e-12
5.96546e-12
5.85252e-12
6.08888e-12
6.08823e-12
6.93443e-12
8.31187e-12
1.37666e-11
9.6766e-12
6.95912e-12
6.0188e-12
5.4517e-12
5.35139e-12
5.2683e-12
5.27123e-12
5.24019e-12
5.24978e-12
5.23711e-12
5.21865e-12
5.26607e-12
5.20808e-12
5.29833e-12
5.22348e-12
5.39017e-12
5.40269e-12
6.02502e-12
7.03029e-12
1.08734e-11
8.13599e-12
6.15711e-12
5.41298e-12
5.00248e-12
4.91613e-12
4.85656e-12
4.85343e-12
4.83135e-12
4.83565e-12
4.82521e-12
4.81316e-12
4.84298e-12
4.80865e-12
4.86518e-12
4.82358e-12
4.93275e-12
4.9607e-12
5.40965e-12
6.1536e-12
8.86364e-12
7.11598e-12
5.65663e-12
5.056e-12
4.7571e-12
4.68042e-12
4.63717e-12
4.62931e-12
4.61332e-12
4.6137e-12
4.60447e-12
4.59677e-12
4.61439e-12
4.59689e-12
4.63006e-12
4.61202e-12
4.68148e-12
4.71985e-12
5.04497e-12
5.60446e-12
7.52102e-12
6.46811e-12
5.36367e-12
4.87247e-12
4.64825e-12
4.57942e-12
4.546e-12
4.53517e-12
4.52243e-12
4.5204e-12
4.51131e-12
4.50601e-12
4.51679e-12
4.50925e-12
4.529e-12
4.52487e-12
4.57084e-12
4.61322e-12
4.85463e-12
5.28362e-12
6.64685e-12
6.06788e-12
5.19585e-12
4.78665e-12
4.60958e-12
4.54744e-12
4.51916e-12
4.50685e-12
4.49535e-12
4.4921e-12
4.4825e-12
4.47825e-12
4.48603e-12
4.48334e-12
4.49682e-12
4.49945e-12
4.53332e-12
4.57531e-12
4.76244e-12
5.10198e-12
6.09159e-12
5.84278e-12
5.10322e-12
4.7453e-12
4.5948e-12
4.53735e-12
4.51154e-12
4.49858e-12
4.48748e-12
4.48361e-12
4.47352e-12
4.46967e-12
4.47624e-12
4.47578e-12
4.48647e-12
4.49222e-12
4.52e-12
4.56086e-12
4.71585e-12
5.00346e-12
5.77582e-12
)
;

boundaryField
{
    fuel
    {
        type            fixedValue;
        value           nonuniform 0();
    }
    wall
    {
        type            zeroGradient;
    }
    outlet
    {
        type            zeroGradient;
    }
    frontAndBack
    {
        type            empty;
    }
    procBoundary1to0
    {
        type            processor;
        value           nonuniform List<scalar> 
21
(
5.11212e-11
2.61644e-11
1.74498e-11
1.39828e-11
1.33132e-11
1.30424e-11
1.30296e-11
1.2971e-11
1.29947e-11
1.29806e-11
1.2062e-11
1.2062e-11
1.21663e-11
1.20326e-11
1.22389e-11
1.20767e-11
1.25425e-11
1.28965e-11
1.59027e-11
2.43969e-11
6.52892e-11
)
;
    }
}


// ************************************************************************* //
