/*--------------------------------*- C++ -*----------------------------------*\
| =========                 |                                                 |
| \\      /  F ield         | OpenFOAM: The Open Source CFD Toolbox           |
|  \\    /   O peration     | Version:  dev                                   |
|   \\  /    A nd           | Web:      www.OpenFOAM.org                      |
|    \\/     M anipulation  |                                                 |
\*---------------------------------------------------------------------------*/
FoamFile
{
    version     2.0;
    format      ascii;
    class       volScalarField;
    location    "0.05";
    object      CH2(S);
}
// * * * * * * * * * * * * * * * * * * * * * * * * * * * * * * * * * * * * * //

dimensions      [0 0 0 0 0 0 0];

internalField   nonuniform List<scalar> 
250
(
7.32102e-10
7.13727e-10
9.55587e-10
7.89743e-10
8.18439e-10
7.64972e-10
7.81745e-10
7.5622e-10
7.70173e-10
7.60802e-10
4.60044e-10
4.15588e-10
5.50963e-10
4.45021e-10
4.62254e-10
4.29508e-10
4.40233e-10
4.2421e-10
4.33181e-10
4.27067e-10
4.15999e-10
4.48296e-10
4.08008e-10
4.69534e-10
4.08489e-10
5.10032e-10
4.37571e-10
5.74814e-10
5.15585e-10
4.97392e-10
2.66529e-10
2.2465e-10
2.95045e-10
2.3323e-10
2.42984e-10
2.24516e-10
2.30816e-10
2.21548e-10
2.26872e-10
2.23153e-10
2.16716e-10
2.3551e-10
2.12113e-10
2.47362e-10
2.12305e-10
2.69794e-10
2.28602e-10
3.08663e-10
2.80106e-10
2.84469e-10
1.40917e-10
1.11638e-10
1.45322e-10
1.1254e-10
1.1781e-10
1.08289e-10
1.11606e-10
1.06825e-10
1.09659e-10
1.07663e-10
1.03985e-10
1.14167e-10
1.01547e-10
1.20224e-10
1.01594e-10
1.31603e-10
1.09886e-10
1.52667e-10
1.39665e-10
1.49694e-10
6.70364e-11
4.98593e-11
6.49064e-11
4.92455e-11
5.11225e-11
4.67063e-11
4.83767e-11
4.6111e-11
4.73966e-11
4.66007e-11
4.52711e-11
4.95378e-11
4.40942e-11
5.24003e-11
4.40838e-11
5.78457e-11
4.78758e-11
6.85679e-11
6.29529e-11
7.15226e-11
2.81144e-11
1.98289e-11
2.57227e-11
1.91094e-11
1.99087e-11
1.80885e-11
1.87876e-11
1.78744e-11
1.84037e-11
1.80911e-11
1.74769e-11
1.92981e-11
1.69728e-11
2.04781e-11
1.69542e-11
2.27231e-11
1.84828e-11
2.73583e-11
2.51195e-11
3.00976e-11
1.00608e-11
6.73626e-12
8.73656e-12
6.34088e-12
6.63839e-12
5.991e-12
6.24874e-12
5.91966e-12
6.11516e-12
5.99729e-12
5.7675e-12
6.43736e-12
5.58226e-12
6.85527e-12
5.57031e-12
7.64993e-12
6.09642e-12
9.36433e-12
8.57495e-12
1.06621e-11
2.91277e-12
1.84679e-12
2.40536e-12
1.699e-12
1.79005e-12
1.60166e-12
1.68014e-12
1.58163e-12
1.64162e-12
1.60439e-12
1.53645e-12
1.73658e-12
1.48119e-12
1.85711e-12
1.47617e-12
2.08574e-12
1.62254e-12
2.59958e-12
2.36889e-12
3.13484e-12
6.29174e-13
3.77118e-13
4.95185e-13
3.39712e-13
3.60676e-13
3.196e-13
3.37552e-13
3.15477e-13
3.29158e-13
3.20533e-13
3.0572e-13
3.50125e-13
2.93466e-13
3.76097e-13
2.92065e-13
4.25087e-13
3.22272e-13
5.39265e-13
4.88447e-13
6.89921e-13
9.3251e-14
5.3568e-14
7.06557e-14
4.75358e-14
5.08114e-14
4.47183e-14
4.75036e-14
4.41564e-14
4.62541e-14
4.49242e-14
4.27388e-14
4.9399e-14
4.08959e-14
5.32027e-14
4.06509e-14
6.03106e-14
4.48899e-14
7.73182e-14
6.97417e-14
1.04701e-13
9.0597e-15
5.05684e-15
6.61873e-15
4.42344e-15
4.7444e-15
4.16303e-15
4.43935e-15
4.1131e-15
4.3199e-15
4.18752e-15
3.98006e-15
4.62235e-15
3.80187e-15
4.98084e-15
3.77611e-15
5.64524e-15
4.16211e-15
7.27162e-15
6.56666e-15
1.06967e-14
4.96414e-16
2.63396e-16
3.36058e-16
2.26156e-16
2.42341e-16
2.13112e-16
2.27367e-16
2.10691e-16
2.21395e-16
2.14384e-16
2.04082e-16
2.36498e-16
1.9513e-16
2.54201e-16
1.93864e-16
2.8692e-16
2.12766e-16
3.69557e-16
3.41857e-16
6.80196e-16
1.77787e-17
7.92644e-18
9.12615e-18
6.4667e-18
6.82556e-18
6.11887e-18
6.46735e-18
6.05089e-18
6.32685e-18
6.13518e-18
5.88567e-18
6.68599e-18
5.67031e-18
7.11019e-18
5.64618e-18
7.90686e-18
6.11401e-18
1.00646e-17
1.0512e-17
3.76862e-17
)
;

boundaryField
{
    fuel
    {
        type            fixedValue;
        value           nonuniform 0();
    }
    wall
    {
        type            zeroGradient;
    }
    outlet
    {
        type            zeroGradient;
    }
    frontAndBack
    {
        type            empty;
    }
    procBoundary1to0
    {
        type            processor;
        value           nonuniform List<scalar> 
21
(
1.08525e-09
1.14483e-09
1.55319e-09
1.31222e-09
1.35876e-09
1.27702e-09
1.30162e-09
1.2636e-09
1.28383e-09
1.27029e-09
7.42919e-10
7.42919e-10
7.94639e-10
7.30156e-10
8.29713e-10
7.31338e-10
8.96777e-10
7.7944e-10
9.93525e-10
8.82505e-10
8.07648e-10
)
;
    }
}


// ************************************************************************* //
