/*--------------------------------*- C++ -*----------------------------------*\
| =========                 |                                                 |
| \\      /  F ield         | OpenFOAM: The Open Source CFD Toolbox           |
|  \\    /   O peration     | Version:  dev                                   |
|   \\  /    A nd           | Web:      www.OpenFOAM.org                      |
|    \\/     M anipulation  |                                                 |
\*---------------------------------------------------------------------------*/
FoamFile
{
    version     2.0;
    format      ascii;
    class       volScalarField;
    location    "0.05";
    object      CO;
}
// * * * * * * * * * * * * * * * * * * * * * * * * * * * * * * * * * * * * * //

dimensions      [0 0 0 0 0 0 0];

internalField   nonuniform List<scalar> 
250
(
0.181431
0.182624
0.18351
0.183889
0.183991
0.184031
0.18404
0.184033
0.184044
0.184028
0.181576
0.182646
0.183419
0.183753
0.18384
0.183876
0.183884
0.183877
0.183888
0.183872
0.183874
0.183883
0.183877
0.18388
0.183876
0.183837
0.183756
0.183446
0.182721
0.181724
0.181705
0.182657
0.183327
0.18362
0.183694
0.183726
0.183734
0.183726
0.183738
0.183721
0.183723
0.183732
0.183727
0.183729
0.183726
0.183691
0.183622
0.18335
0.182724
0.181841
0.181821
0.18266
0.183237
0.183491
0.183554
0.183582
0.183588
0.183581
0.183592
0.183576
0.183577
0.183587
0.183582
0.183584
0.183581
0.18355
0.183492
0.183256
0.182718
0.181942
0.181923
0.182656
0.183147
0.183365
0.183418
0.183442
0.183448
0.183441
0.183452
0.183435
0.183437
0.183446
0.183441
0.183444
0.183441
0.183414
0.183366
0.183163
0.182705
0.182029
0.182013
0.182644
0.183057
0.183242
0.183285
0.183306
0.183311
0.183304
0.183315
0.183298
0.1833
0.18331
0.183304
0.183307
0.183305
0.183282
0.183242
0.18307
0.182684
0.182103
0.182086
0.182623
0.182964
0.18312
0.183154
0.183171
0.183177
0.183169
0.18318
0.183163
0.183165
0.183175
0.18317
0.183172
0.183171
0.183151
0.183119
0.182975
0.182655
0.18216
0.182143
0.182592
0.182869
0.182998
0.183024
0.183038
0.183043
0.183036
0.183047
0.183029
0.183031
0.183042
0.183037
0.183039
0.183038
0.183021
0.182997
0.182878
0.182616
0.182201
0.182181
0.18255
0.182771
0.182875
0.182895
0.182907
0.182911
0.182904
0.182915
0.182897
0.182898
0.18291
0.182905
0.182907
0.182907
0.182893
0.182874
0.182777
0.182568
0.182226
0.182201
0.182499
0.182671
0.182754
0.182769
0.182778
0.182782
0.182775
0.182786
0.182768
0.18277
0.182781
0.182776
0.182779
0.182778
0.182767
0.182753
0.182676
0.182511
0.182235
0.182206
0.182443
0.182574
0.18264
0.182651
0.182658
0.182662
0.182655
0.182665
0.182647
0.182649
0.182661
0.182656
0.182658
0.182658
0.182649
0.182639
0.182578
0.182451
0.182229
0.182199
0.182387
0.182488
0.18254
0.182549
0.182554
0.182558
0.182551
0.182561
0.182543
0.182545
0.182557
0.182552
0.182555
0.182554
0.182547
0.182539
0.182491
0.182392
0.182215
0.182188
0.182346
0.182428
0.18247
0.182478
0.182482
0.182486
0.18248
0.18249
0.182471
0.182473
0.182485
0.182481
0.182483
0.182482
0.182476
0.18247
0.18243
0.182349
0.1822
)
;

boundaryField
{
    fuel
    {
        type            fixedValue;
        value           nonuniform 0();
    }
    wall
    {
        type            zeroGradient;
    }
    outlet
    {
        type            zeroGradient;
    }
    frontAndBack
    {
        type            empty;
    }
    procBoundary1to0
    {
        type            processor;
        value           nonuniform List<scalar> 
21
(
0.181265
0.182587
0.183599
0.184024
0.184143
0.184188
0.184197
0.184191
0.184202
0.184186
0.184029
0.184029
0.184038
0.184033
0.184035
0.18403
0.183988
0.183893
0.183541
0.182707
0.181587
)
;
    }
}


// ************************************************************************* //
