/*--------------------------------*- C++ -*----------------------------------*\
| =========                 |                                                 |
| \\      /  F ield         | OpenFOAM: The Open Source CFD Toolbox           |
|  \\    /   O peration     | Version:  dev                                   |
|   \\  /    A nd           | Web:      www.OpenFOAM.org                      |
|    \\/     M anipulation  |                                                 |
\*---------------------------------------------------------------------------*/
FoamFile
{
    version     2.0;
    format      ascii;
    class       volScalarField;
    location    "0.05";
    object      CO2;
}
// * * * * * * * * * * * * * * * * * * * * * * * * * * * * * * * * * * * * * //

dimensions      [0 0 0 0 0 0 0];

internalField   nonuniform List<scalar> 
2000
(
0.0125002
0.0125001
0.0125024
0.0125034
0.0125047
0.0125044
0.0125049
0.0125045
0.0125048
0.0125046
0.0125048
0.0125046
0.0125047
0.0125046
0.0125047
0.0125046
0.0125047
0.0125046
0.0125047
0.0125046
0.0125047
0.0125047
0.0125047
0.0125047
0.0125047
0.0125047
0.0125047
0.0125047
0.0125047
0.0125047
0.0125046
0.0125047
0.0125046
0.0125047
0.0125046
0.0125047
0.0125046
0.0125047
0.0125046
0.0125048
0.0125046
0.0125048
0.0125045
0.0125049
0.0125044
0.0125047
0.0125034
0.0125024
0.0125001
0.0125002
0.0256248
0.0256224
0.0256241
0.0256248
0.0256272
0.0256263
0.0256274
0.0256266
0.0256273
0.0256267
0.0256272
0.0256268
0.0256271
0.0256269
0.0256271
0.0256269
0.025627
0.0256269
0.025627
0.0256269
0.025627
0.025627
0.025627
0.025627
0.025627
0.025627
0.025627
0.025627
0.025627
0.025627
0.0256269
0.025627
0.0256269
0.025627
0.0256269
0.0256271
0.0256269
0.0256271
0.0256268
0.0256272
0.0256267
0.0256273
0.0256266
0.0256274
0.0256263
0.0256272
0.0256248
0.0256241
0.0256224
0.0256248
0.0343404
0.0343342
0.0343312
0.0343303
0.0343325
0.0343313
0.0343326
0.0343316
0.0343324
0.0343317
0.0343323
0.0343318
0.0343322
0.0343319
0.0343321
0.0343319
0.0343321
0.0343319
0.0343321
0.034332
0.034332
0.034332
0.034332
0.034332
0.034332
0.034332
0.034332
0.034332
0.034332
0.034332
0.034332
0.0343321
0.0343319
0.0343321
0.0343319
0.0343321
0.0343319
0.0343322
0.0343318
0.0343323
0.0343317
0.0343324
0.0343316
0.0343326
0.0343313
0.0343325
0.0343303
0.0343312
0.0343342
0.0343404
0.0396929
0.0396847
0.039678
0.0396758
0.0396777
0.0396763
0.0396776
0.0396765
0.0396774
0.0396767
0.0396773
0.0396768
0.0396772
0.0396769
0.0396771
0.0396769
0.0396771
0.0396769
0.0396771
0.039677
0.0396771
0.039677
0.039677
0.039677
0.039677
0.039677
0.039677
0.039677
0.039677
0.0396771
0.039677
0.0396771
0.0396769
0.0396771
0.0396769
0.0396771
0.0396769
0.0396772
0.0396768
0.0396773
0.0396767
0.0396774
0.0396765
0.0396776
0.0396763
0.0396777
0.0396758
0.039678
0.0396847
0.0396929
0.043032
0.0430229
0.0430139
0.0430109
0.0430123
0.0430109
0.0430121
0.0430111
0.043012
0.0430112
0.0430118
0.0430113
0.0430117
0.0430114
0.0430117
0.0430115
0.0430117
0.0430115
0.0430116
0.0430115
0.0430116
0.0430116
0.0430116
0.0430116
0.0430116
0.0430116
0.0430116
0.0430116
0.0430116
0.0430116
0.0430115
0.0430116
0.0430115
0.0430117
0.0430115
0.0430117
0.0430114
0.0430117
0.0430113
0.0430118
0.0430112
0.043012
0.0430111
0.0430121
0.0430109
0.0430123
0.0430109
0.0430139
0.0430229
0.043032
0.0451715
0.0451621
0.0451518
0.0451483
0.0451494
0.045148
0.0451491
0.0451481
0.0451489
0.0451483
0.0451488
0.0451484
0.0451487
0.0451484
0.0451487
0.0451485
0.0451487
0.0451485
0.0451486
0.0451485
0.0451486
0.0451486
0.0451486
0.0451486
0.0451486
0.0451486
0.0451486
0.0451486
0.0451486
0.0451486
0.0451485
0.0451486
0.0451485
0.0451487
0.0451485
0.0451487
0.0451484
0.0451487
0.0451484
0.0451488
0.0451483
0.0451489
0.0451481
0.0451491
0.045148
0.0451494
0.0451483
0.0451518
0.0451621
0.0451715
0.0465855
0.0465762
0.0465654
0.0465616
0.0465624
0.0465611
0.0465621
0.0465612
0.0465619
0.0465613
0.0465618
0.0465614
0.0465617
0.0465615
0.0465617
0.0465615
0.0465617
0.0465615
0.0465616
0.0465616
0.0465616
0.0465616
0.0465616
0.0465616
0.0465616
0.0465616
0.0465616
0.0465616
0.0465616
0.0465616
0.0465616
0.0465616
0.0465615
0.0465617
0.0465615
0.0465617
0.0465615
0.0465617
0.0465614
0.0465618
0.0465613
0.0465619
0.0465612
0.0465621
0.0465611
0.0465624
0.0465616
0.0465654
0.0465762
0.0465855
0.0475487
0.0475397
0.047529
0.0475251
0.0475257
0.0475244
0.0475253
0.0475245
0.0475251
0.0475246
0.047525
0.0475247
0.047525
0.0475247
0.0475249
0.0475248
0.0475249
0.0475248
0.0475249
0.0475248
0.0475249
0.0475248
0.0475249
0.0475249
0.0475249
0.0475249
0.0475249
0.0475249
0.0475248
0.0475249
0.0475248
0.0475249
0.0475248
0.0475249
0.0475248
0.0475249
0.0475247
0.047525
0.0475247
0.047525
0.0475246
0.0475251
0.0475245
0.0475253
0.0475244
0.0475257
0.0475251
0.047529
0.0475397
0.0475487
0.0482227
0.0482142
0.0482038
0.0482
0.0482004
0.0481992
0.0482
0.0481992
0.0481998
0.0481993
0.0481997
0.0481994
0.0481997
0.0481995
0.0481997
0.0481995
0.0481996
0.0481995
0.0481996
0.0481995
0.0481996
0.0481996
0.0481996
0.0481996
0.0481996
0.0481996
0.0481996
0.0481996
0.0481996
0.0481996
0.0481995
0.0481996
0.0481995
0.0481996
0.0481995
0.0481997
0.0481995
0.0481997
0.0481994
0.0481997
0.0481993
0.0481998
0.0481992
0.0482
0.0481992
0.0482004
0.0482
0.0482038
0.0482142
0.0482227
0.048705
0.0486971
0.0486873
0.0486837
0.0486839
0.0486828
0.0486834
0.0486828
0.0486833
0.0486828
0.0486832
0.0486829
0.0486832
0.048683
0.0486831
0.048683
0.0486831
0.048683
0.0486831
0.048683
0.0486831
0.0486831
0.0486831
0.0486831
0.0486831
0.0486831
0.0486831
0.0486831
0.0486831
0.0486831
0.048683
0.0486831
0.048683
0.0486831
0.048683
0.0486831
0.048683
0.0486832
0.0486829
0.0486832
0.0486828
0.0486833
0.0486828
0.0486834
0.0486828
0.0486839
0.0486837
0.0486873
0.0486971
0.048705
0.0490559
0.0490486
0.0490396
0.0490361
0.0490362
0.0490352
0.0490358
0.0490352
0.0490357
0.0490353
0.0490356
0.0490353
0.0490355
0.0490354
0.0490355
0.0490354
0.0490355
0.0490354
0.0490355
0.0490354
0.0490355
0.0490354
0.0490355
0.0490354
0.0490355
0.0490355
0.0490354
0.0490355
0.0490354
0.0490355
0.0490354
0.0490355
0.0490354
0.0490355
0.0490354
0.0490355
0.0490354
0.0490355
0.0490353
0.0490356
0.0490353
0.0490357
0.0490352
0.0490358
0.0490352
0.0490362
0.0490361
0.0490396
0.0490486
0.0490559
0.0493244
0.049318
0.0493101
0.0493069
0.049307
0.0493061
0.0493065
0.049306
0.0493064
0.0493061
0.0493063
0.0493061
0.0493063
0.0493061
0.0493063
0.0493062
0.0493063
0.0493062
0.0493062
0.0493062
0.0493062
0.0493062
0.0493062
0.0493062
0.0493062
0.0493062
0.0493062
0.0493062
0.0493062
0.0493062
0.0493062
0.0493062
0.0493062
0.0493063
0.0493062
0.0493063
0.0493061
0.0493063
0.0493061
0.0493063
0.0493061
0.0493064
0.049306
0.0493065
0.0493061
0.049307
0.0493069
0.0493101
0.049318
0.0493244
0.0495164
0.0495108
0.0495037
0.0495009
0.0495009
0.0495001
0.0495005
0.0495
0.0495003
0.0495
0.0495003
0.0495001
0.0495002
0.0495001
0.0495002
0.0495001
0.0495002
0.0495001
0.0495002
0.0495001
0.0495002
0.0495001
0.0495002
0.0495002
0.0495002
0.0495002
0.0495002
0.0495002
0.0495001
0.0495002
0.0495001
0.0495002
0.0495001
0.0495002
0.0495001
0.0495002
0.0495001
0.0495002
0.0495001
0.0495003
0.0495
0.0495003
0.0495
0.0495005
0.0495001
0.0495009
0.0495009
0.0495037
0.0495108
0.0495164
0.0496597
0.0496554
0.0496498
0.0496475
0.0496474
0.0496468
0.049647
0.0496467
0.0496469
0.0496467
0.0496468
0.0496467
0.0496468
0.0496467
0.0496468
0.0496467
0.0496468
0.0496467
0.0496468
0.0496468
0.0496468
0.0496468
0.0496468
0.0496468
0.0496468
0.0496468
0.0496468
0.0496468
0.0496468
0.0496468
0.0496468
0.0496468
0.0496467
0.0496468
0.0496467
0.0496468
0.0496467
0.0496468
0.0496467
0.0496468
0.0496467
0.0496469
0.0496467
0.049647
0.0496468
0.0496474
0.0496475
0.0496498
0.0496554
0.0496597
0.0497685
0.0497651
0.0497607
0.0497588
0.0497587
0.0497582
0.0497584
0.0497581
0.0497582
0.049758
0.0497582
0.0497581
0.0497582
0.0497581
0.0497581
0.0497581
0.0497581
0.0497581
0.0497581
0.0497581
0.0497581
0.0497581
0.0497581
0.0497581
0.0497581
0.0497581
0.0497581
0.0497581
0.0497581
0.0497581
0.0497581
0.0497581
0.0497581
0.0497581
0.0497581
0.0497581
0.0497581
0.0497582
0.0497581
0.0497582
0.049758
0.0497582
0.0497581
0.0497584
0.0497582
0.0497587
0.0497588
0.0497607
0.0497651
0.0497685
0.0498441
0.0498417
0.0498382
0.0498368
0.0498367
0.0498363
0.0498364
0.0498362
0.0498363
0.0498361
0.0498362
0.0498361
0.0498362
0.0498361
0.0498362
0.0498362
0.0498362
0.0498362
0.0498362
0.0498362
0.0498362
0.0498362
0.0498362
0.0498362
0.0498362
0.0498362
0.0498362
0.0498362
0.0498362
0.0498362
0.0498362
0.0498362
0.0498362
0.0498362
0.0498362
0.0498362
0.0498361
0.0498362
0.0498361
0.0498362
0.0498361
0.0498363
0.0498362
0.0498364
0.0498363
0.0498367
0.0498368
0.0498382
0.0498417
0.0498441
0.0498984
0.0498968
0.0498944
0.0498933
0.0498933
0.049893
0.049893
0.0498928
0.0498929
0.0498928
0.0498928
0.0498928
0.0498928
0.0498928
0.0498928
0.0498928
0.0498928
0.0498928
0.0498928
0.0498928
0.0498928
0.0498928
0.0498928
0.0498928
0.0498928
0.0498928
0.0498928
0.0498928
0.0498928
0.0498928
0.0498928
0.0498928
0.0498928
0.0498928
0.0498928
0.0498928
0.0498928
0.0498928
0.0498928
0.0498928
0.0498928
0.0498929
0.0498928
0.049893
0.049893
0.0498933
0.0498933
0.0498944
0.0498968
0.0498984
0.0499324
0.0499317
0.0499303
0.0499296
0.0499297
0.0499295
0.0499295
0.0499293
0.0499294
0.0499293
0.0499293
0.0499292
0.0499293
0.0499293
0.0499293
0.0499293
0.0499293
0.0499293
0.0499293
0.0499293
0.0499293
0.0499293
0.0499293
0.0499293
0.0499293
0.0499293
0.0499293
0.0499293
0.0499293
0.0499293
0.0499293
0.0499293
0.0499293
0.0499293
0.0499293
0.0499293
0.0499293
0.0499293
0.0499292
0.0499293
0.0499293
0.0499294
0.0499293
0.0499295
0.0499295
0.0499297
0.0499296
0.0499303
0.0499317
0.0499324
0.0499517
0.049952
0.0499516
0.0499514
0.0499516
0.0499514
0.0499514
0.0499513
0.0499512
0.0499512
0.0499512
0.0499511
0.0499512
0.0499511
0.0499512
0.0499511
0.0499512
0.0499512
0.0499512
0.0499512
0.0499512
0.0499512
0.0499512
0.0499512
0.0499512
0.0499512
0.0499512
0.0499512
0.0499512
0.0499512
0.0499512
0.0499512
0.0499512
0.0499512
0.0499511
0.0499512
0.0499511
0.0499512
0.0499512
0.0499512
0.0499512
0.0499512
0.0499513
0.0499514
0.0499514
0.0499516
0.0499514
0.0499516
0.049952
0.0499517
0.049958
0.0499593
0.0499599
0.0499602
0.0499605
0.0499605
0.0499604
0.0499603
0.0499602
0.0499602
0.0499601
0.0499601
0.0499601
0.0499601
0.0499601
0.0499601
0.0499601
0.0499601
0.0499601
0.0499601
0.0499601
0.0499601
0.0499601
0.0499601
0.0499601
0.0499601
0.0499601
0.0499601
0.0499601
0.0499601
0.0499601
0.0499601
0.0499601
0.0499601
0.0499601
0.0499601
0.0499601
0.0499601
0.0499601
0.0499601
0.0499602
0.0499602
0.0499603
0.0499604
0.0499605
0.0499605
0.0499602
0.0499599
0.0499593
0.049958
0.0499536
0.0499557
0.0499573
0.0499581
0.0499585
0.0499586
0.0499584
0.0499584
0.0499583
0.0499583
0.0499582
0.0499582
0.0499582
0.0499582
0.0499582
0.0499582
0.0499582
0.0499582
0.0499582
0.0499582
0.0499582
0.0499582
0.0499582
0.0499582
0.0499582
0.0499582
0.0499582
0.0499582
0.0499582
0.0499582
0.0499582
0.0499582
0.0499582
0.0499582
0.0499582
0.0499582
0.0499582
0.0499582
0.0499582
0.0499582
0.0499583
0.0499583
0.0499584
0.0499584
0.0499586
0.0499585
0.0499581
0.0499573
0.0499557
0.0499536
0.0499402
0.0499433
0.0499458
0.049947
0.0499475
0.0499477
0.0499475
0.0499475
0.0499473
0.0499473
0.0499473
0.0499473
0.0499473
0.0499473
0.0499472
0.0499473
0.0499472
0.0499473
0.0499473
0.0499473
0.0499473
0.0499473
0.0499473
0.0499473
0.0499473
0.0499473
0.0499473
0.0499473
0.0499473
0.0499473
0.0499473
0.0499473
0.0499473
0.0499472
0.0499473
0.0499472
0.0499473
0.0499473
0.0499473
0.0499473
0.0499473
0.0499473
0.0499475
0.0499475
0.0499477
0.0499475
0.049947
0.0499458
0.0499433
0.0499402
0.0499191
0.0499225
0.0499259
0.0499276
0.0499282
0.0499285
0.0499283
0.0499283
0.0499281
0.0499281
0.049928
0.049928
0.049928
0.049928
0.049928
0.049928
0.049928
0.049928
0.049928
0.049928
0.049928
0.049928
0.049928
0.049928
0.049928
0.049928
0.049928
0.049928
0.049928
0.049928
0.049928
0.049928
0.049928
0.049928
0.049928
0.049928
0.049928
0.049928
0.049928
0.049928
0.0499281
0.0499281
0.0499283
0.0499283
0.0499285
0.0499282
0.0499276
0.0499259
0.0499225
0.0499191
0.0498915
0.0498957
0.0498999
0.0499021
0.0499029
0.0499032
0.049903
0.049903
0.0499028
0.0499028
0.0499027
0.0499027
0.0499027
0.0499027
0.0499026
0.0499027
0.0499026
0.0499027
0.0499026
0.0499027
0.0499027
0.0499027
0.0499027
0.0499027
0.0499027
0.0499027
0.0499027
0.0499027
0.0499027
0.0499027
0.0499027
0.0499026
0.0499027
0.0499026
0.0499027
0.0499026
0.0499027
0.0499027
0.0499027
0.0499027
0.0499028
0.0499028
0.049903
0.049903
0.0499032
0.0499029
0.0499021
0.0498999
0.0498957
0.0498915
0.0498568
0.049862
0.0498671
0.0498697
0.0498706
0.0498711
0.0498708
0.0498708
0.0498706
0.0498706
0.0498705
0.0498705
0.0498704
0.0498705
0.0498704
0.0498705
0.0498704
0.0498705
0.0498704
0.0498705
0.0498705
0.0498705
0.0498705
0.0498705
0.0498705
0.0498705
0.0498705
0.0498705
0.0498705
0.0498705
0.0498705
0.0498704
0.0498705
0.0498704
0.0498705
0.0498704
0.0498705
0.0498704
0.0498705
0.0498705
0.0498706
0.0498706
0.0498708
0.0498708
0.0498711
0.0498706
0.0498697
0.0498671
0.049862
0.0498568
0.0498169
0.0498229
0.0498288
0.0498318
0.0498329
0.0498334
0.0498331
0.0498332
0.0498329
0.0498329
0.0498328
0.0498328
0.0498327
0.0498328
0.0498327
0.0498328
0.0498327
0.0498328
0.0498327
0.0498328
0.0498327
0.0498328
0.0498327
0.0498328
0.0498328
0.0498328
0.0498328
0.0498328
0.0498328
0.0498327
0.0498328
0.0498327
0.0498328
0.0498327
0.0498328
0.0498327
0.0498328
0.0498327
0.0498328
0.0498328
0.0498329
0.0498329
0.0498332
0.0498331
0.0498334
0.0498329
0.0498318
0.0498288
0.0498229
0.0498169
0.0497724
0.0497793
0.0497859
0.0497893
0.0497905
0.0497911
0.0497908
0.0497909
0.0497905
0.0497906
0.0497904
0.0497905
0.0497904
0.0497905
0.0497904
0.0497904
0.0497904
0.0497904
0.0497904
0.0497904
0.0497904
0.0497904
0.0497904
0.0497904
0.0497904
0.0497904
0.0497904
0.0497904
0.0497904
0.0497904
0.0497904
0.0497904
0.0497904
0.0497904
0.0497904
0.0497904
0.0497905
0.0497904
0.0497905
0.0497904
0.0497906
0.0497905
0.0497909
0.0497908
0.0497911
0.0497905
0.0497893
0.0497859
0.0497793
0.0497724
0.0497241
0.0497318
0.049739
0.0497428
0.0497441
0.0497448
0.0497444
0.0497445
0.0497442
0.0497443
0.0497441
0.0497441
0.049744
0.0497441
0.049744
0.0497441
0.049744
0.0497441
0.049744
0.049744
0.049744
0.049744
0.049744
0.049744
0.049744
0.049744
0.049744
0.049744
0.049744
0.049744
0.049744
0.049744
0.0497441
0.049744
0.0497441
0.049744
0.0497441
0.049744
0.0497441
0.0497441
0.0497443
0.0497442
0.0497445
0.0497444
0.0497448
0.0497441
0.0497428
0.049739
0.0497318
0.0497241
0.0496723
0.0496807
0.0496886
0.0496927
0.0496941
0.0496949
0.0496945
0.0496946
0.0496943
0.0496944
0.0496941
0.0496942
0.0496941
0.0496942
0.0496941
0.0496941
0.0496941
0.0496941
0.0496941
0.0496941
0.0496941
0.0496941
0.0496941
0.0496941
0.0496941
0.0496941
0.0496941
0.0496941
0.0496941
0.0496941
0.0496941
0.0496941
0.0496941
0.0496941
0.0496941
0.0496941
0.0496942
0.0496941
0.0496942
0.0496941
0.0496944
0.0496943
0.0496946
0.0496945
0.0496949
0.0496941
0.0496927
0.0496886
0.0496807
0.0496723
0.0496175
0.0496267
0.0496352
0.0496396
0.0496411
0.0496419
0.0496415
0.0496417
0.0496413
0.0496414
0.0496411
0.0496412
0.0496411
0.0496412
0.0496411
0.0496411
0.0496411
0.0496411
0.0496411
0.0496411
0.0496411
0.0496411
0.0496411
0.0496411
0.0496411
0.0496411
0.0496411
0.0496411
0.0496411
0.0496411
0.0496411
0.0496411
0.0496411
0.0496411
0.0496411
0.0496411
0.0496412
0.0496411
0.0496412
0.0496411
0.0496414
0.0496413
0.0496417
0.0496415
0.0496419
0.0496411
0.0496396
0.0496352
0.0496267
0.0496175
0.0495602
0.0495701
0.0495791
0.0495838
0.0495854
0.0495863
0.0495859
0.049586
0.0495856
0.0495857
0.0495855
0.0495856
0.0495854
0.0495855
0.0495854
0.0495855
0.0495854
0.0495855
0.0495854
0.0495854
0.0495854
0.0495854
0.0495854
0.0495854
0.0495854
0.0495854
0.0495854
0.0495854
0.0495854
0.0495854
0.0495854
0.0495854
0.0495855
0.0495854
0.0495855
0.0495854
0.0495855
0.0495854
0.0495856
0.0495855
0.0495857
0.0495856
0.049586
0.0495859
0.0495863
0.0495854
0.0495838
0.0495791
0.0495701
0.0495602
0.0495007
0.0495112
0.0495207
0.0495257
0.0495274
0.0495283
0.0495279
0.0495281
0.0495276
0.0495277
0.0495275
0.0495276
0.0495274
0.0495275
0.0495274
0.0495275
0.0495274
0.0495275
0.0495274
0.0495275
0.0495274
0.0495275
0.0495274
0.0495274
0.0495274
0.0495274
0.0495274
0.0495274
0.0495275
0.0495274
0.0495275
0.0495274
0.0495275
0.0495274
0.0495275
0.0495274
0.0495275
0.0495274
0.0495276
0.0495275
0.0495277
0.0495276
0.0495281
0.0495279
0.0495283
0.0495274
0.0495257
0.0495207
0.0495112
0.0495007
0.0494394
0.0494505
0.0494605
0.0494656
0.0494674
0.0494684
0.049468
0.0494681
0.0494677
0.0494678
0.0494675
0.0494676
0.0494675
0.0494676
0.0494675
0.0494675
0.0494675
0.0494675
0.0494675
0.0494675
0.0494675
0.0494675
0.0494675
0.0494675
0.0494675
0.0494675
0.0494675
0.0494675
0.0494675
0.0494675
0.0494675
0.0494675
0.0494675
0.0494675
0.0494675
0.0494675
0.0494676
0.0494675
0.0494676
0.0494675
0.0494678
0.0494677
0.0494681
0.049468
0.0494684
0.0494674
0.0494656
0.0494605
0.0494505
0.0494394
0.0493765
0.0493881
0.0493985
0.0494039
0.0494057
0.0494068
0.0494063
0.0494065
0.0494061
0.0494062
0.0494059
0.049406
0.0494058
0.0494059
0.0494058
0.0494059
0.0494058
0.0494059
0.0494058
0.0494059
0.0494058
0.0494059
0.0494058
0.0494059
0.0494058
0.0494058
0.0494059
0.0494058
0.0494059
0.0494058
0.0494059
0.0494058
0.0494059
0.0494058
0.0494059
0.0494058
0.0494059
0.0494058
0.049406
0.0494059
0.0494062
0.0494061
0.0494065
0.0494063
0.0494068
0.0494057
0.0494039
0.0493985
0.0493881
0.0493765
0.0493124
0.0493245
0.0493353
0.0493407
0.0493427
0.0493438
0.0493433
0.0493435
0.049343
0.0493432
0.0493429
0.049343
0.0493428
0.0493429
0.0493428
0.0493429
0.0493428
0.0493428
0.0493428
0.0493428
0.0493428
0.0493428
0.0493428
0.0493428
0.0493428
0.0493428
0.0493428
0.0493428
0.0493428
0.0493428
0.0493428
0.0493428
0.0493428
0.0493428
0.0493429
0.0493428
0.0493429
0.0493428
0.049343
0.0493429
0.0493432
0.049343
0.0493435
0.0493433
0.0493438
0.0493427
0.0493407
0.0493353
0.0493245
0.0493124
0.0492473
0.0492597
0.0492709
0.0492765
0.0492785
0.0492796
0.0492792
0.0492794
0.0492789
0.049279
0.0492787
0.0492788
0.0492786
0.0492787
0.0492786
0.0492787
0.0492786
0.0492787
0.0492786
0.0492787
0.0492786
0.0492787
0.0492786
0.0492786
0.0492786
0.0492786
0.0492786
0.0492786
0.0492787
0.0492786
0.0492787
0.0492786
0.0492787
0.0492786
0.0492787
0.0492786
0.0492787
0.0492786
0.0492788
0.0492787
0.049279
0.0492789
0.0492794
0.0492792
0.0492796
0.0492785
0.0492765
0.0492709
0.0492597
0.0492473
0.0491814
0.0491941
0.0492056
0.0492113
0.0492134
0.0492146
0.0492141
0.0492143
0.0492138
0.0492139
0.0492136
0.0492137
0.0492135
0.0492136
0.0492135
0.0492136
0.0492135
0.0492136
0.0492135
0.0492136
0.0492135
0.0492136
0.0492135
0.0492136
0.0492136
0.0492136
0.0492136
0.0492135
0.0492136
0.0492135
0.0492136
0.0492135
0.0492136
0.0492135
0.0492136
0.0492135
0.0492136
0.0492135
0.0492137
0.0492136
0.0492139
0.0492138
0.0492143
0.0492141
0.0492146
0.0492134
0.0492113
0.0492056
0.0491941
0.0491814
0.049115
0.0491279
0.0491396
0.0491455
0.0491476
0.0491488
0.0491483
0.0491485
0.049148
0.0491481
0.0491478
0.049148
0.0491478
0.0491479
0.0491477
0.0491478
0.0491477
0.0491478
0.0491478
0.0491478
0.0491478
0.0491478
0.0491478
0.0491478
0.0491478
0.0491478
0.0491478
0.0491478
0.0491478
0.0491478
0.0491478
0.0491477
0.0491478
0.0491477
0.0491478
0.0491477
0.0491479
0.0491478
0.049148
0.0491478
0.0491481
0.049148
0.0491485
0.0491483
0.0491488
0.0491476
0.0491455
0.0491396
0.0491279
0.049115
0.0490482
0.0490613
0.0490732
0.0490792
0.0490813
0.0490825
0.0490821
0.0490823
0.0490818
0.0490819
0.0490816
0.0490817
0.0490815
0.0490816
0.0490815
0.0490815
0.0490815
0.0490815
0.0490815
0.0490815
0.0490815
0.0490815
0.0490815
0.0490815
0.0490815
0.0490815
0.0490815
0.0490815
0.0490815
0.0490815
0.0490815
0.0490815
0.0490815
0.0490815
0.0490815
0.0490815
0.0490816
0.0490815
0.0490817
0.0490816
0.0490819
0.0490818
0.0490823
0.0490821
0.0490825
0.0490813
0.0490792
0.0490732
0.0490613
0.0490482
0.0489811
0.0489944
0.0490066
0.0490126
0.0490147
0.049016
0.0490155
0.0490157
0.0490152
0.0490153
0.049015
0.0490151
0.0490149
0.049015
0.0490149
0.049015
0.0490149
0.0490149
0.0490149
0.0490149
0.0490149
0.0490149
0.0490149
0.0490149
0.0490149
0.0490149
0.0490149
0.0490149
0.0490149
0.0490149
0.0490149
0.0490149
0.0490149
0.0490149
0.049015
0.0490149
0.049015
0.0490149
0.0490151
0.049015
0.0490153
0.0490152
0.0490157
0.0490155
0.049016
0.0490147
0.0490126
0.0490066
0.0489944
0.0489811
)
;

boundaryField
{
    fuel
    {
        type            fixedValue;
        value           uniform 0;
    }
    wall
    {
        type            zeroGradient;
    }
    outlet
    {
        type            zeroGradient;
    }
    frontAndBack
    {
        type            empty;
    }
    procBoundary1to0
    {
        type            processor;
        value           nonuniform List<scalar> 
50
(
0.0489141
0.0489275
0.0489398
0.0489458
0.048948
0.0489493
0.0489488
0.048949
0.0489485
0.0489486
0.0489483
0.0489484
0.0489482
0.0489483
0.0489482
0.0489482
0.0489482
0.0489482
0.0489482
0.0489482
0.0489482
0.0489482
0.0489482
0.0489482
0.0489482
0.0489482
0.0489482
0.0489482
0.0489482
0.0489482
0.0489482
0.0489482
0.0489482
0.0489482
0.0489482
0.0489482
0.0489483
0.0489482
0.0489484
0.0489483
0.0489486
0.0489485
0.048949
0.0489488
0.0489493
0.048948
0.0489458
0.0489398
0.0489275
0.0489141
)
;
    }
}


// ************************************************************************* //
