/*--------------------------------*- C++ -*----------------------------------*\
| =========                 |                                                 |
| \\      /  F ield         | OpenFOAM: The Open Source CFD Toolbox           |
|  \\    /   O peration     | Version:  dev                                   |
|   \\  /    A nd           | Web:      www.OpenFOAM.org                      |
|    \\/     M anipulation  |                                                 |
\*---------------------------------------------------------------------------*/
FoamFile
{
    version     2.0;
    format      ascii;
    class       volScalarField;
    location    "0.05";
    object      H;
}
// * * * * * * * * * * * * * * * * * * * * * * * * * * * * * * * * * * * * * //

dimensions      [0 0 0 0 0 0 0];

internalField   nonuniform List<scalar> 
2000
(
7.74204e-06
7.75723e-06
7.77606e-06
7.78458e-06
7.78616e-06
7.78778e-06
7.7873e-06
7.78794e-06
7.78741e-06
7.78781e-06
7.78745e-06
7.78773e-06
7.78748e-06
7.78765e-06
7.78749e-06
7.78761e-06
7.7875e-06
7.7876e-06
7.78753e-06
7.78758e-06
7.78754e-06
7.78757e-06
7.78754e-06
7.78756e-06
7.78755e-06
7.78755e-06
7.78756e-06
7.78754e-06
7.78757e-06
7.78754e-06
7.78758e-06
7.78753e-06
7.7876e-06
7.7875e-06
7.78762e-06
7.78749e-06
7.78765e-06
7.78748e-06
7.78773e-06
7.78745e-06
7.78782e-06
7.78741e-06
7.78794e-06
7.7873e-06
7.78778e-06
7.78616e-06
7.78457e-06
7.77606e-06
7.75723e-06
7.74204e-06
3.79911e-05
3.80602e-05
3.81386e-05
3.81741e-05
3.81803e-05
3.81873e-05
3.81851e-05
3.81879e-05
3.81856e-05
3.81873e-05
3.81858e-05
3.8187e-05
3.81859e-05
3.81866e-05
3.81859e-05
3.81865e-05
3.8186e-05
3.81864e-05
3.81861e-05
3.81864e-05
3.81862e-05
3.81863e-05
3.81862e-05
3.81862e-05
3.81862e-05
3.81862e-05
3.81862e-05
3.81862e-05
3.81863e-05
3.81862e-05
3.81864e-05
3.81861e-05
3.81864e-05
3.8186e-05
3.81865e-05
3.81859e-05
3.81866e-05
3.81859e-05
3.8187e-05
3.81858e-05
3.81873e-05
3.81856e-05
3.81879e-05
3.81851e-05
3.81872e-05
3.81803e-05
3.8174e-05
3.81386e-05
3.80602e-05
3.79911e-05
7.17112e-05
7.18247e-05
7.19457e-05
7.2002e-05
7.20087e-05
7.20212e-05
7.20162e-05
7.20218e-05
7.20172e-05
7.20208e-05
7.20176e-05
7.20201e-05
7.20179e-05
7.20195e-05
7.20181e-05
7.20192e-05
7.20181e-05
7.2019e-05
7.20184e-05
7.20189e-05
7.20185e-05
7.20188e-05
7.20185e-05
7.20187e-05
7.20186e-05
7.20186e-05
7.20187e-05
7.20185e-05
7.20188e-05
7.20185e-05
7.20189e-05
7.20184e-05
7.2019e-05
7.20182e-05
7.20192e-05
7.20181e-05
7.20195e-05
7.20179e-05
7.20201e-05
7.20176e-05
7.20208e-05
7.20171e-05
7.20218e-05
7.20162e-05
7.20212e-05
7.20087e-05
7.2002e-05
7.19457e-05
7.18247e-05
7.17112e-05
9.73451e-05
9.75023e-05
9.76632e-05
9.7738e-05
9.7743e-05
9.77615e-05
9.77527e-05
9.77618e-05
9.77543e-05
9.77602e-05
9.77551e-05
9.77591e-05
9.77556e-05
9.77582e-05
9.77559e-05
9.77577e-05
9.7756e-05
9.77575e-05
9.77564e-05
9.77572e-05
9.77566e-05
9.7757e-05
9.77566e-05
9.77569e-05
9.77568e-05
9.77568e-05
9.77569e-05
9.77566e-05
9.7757e-05
9.77566e-05
9.77572e-05
9.77564e-05
9.77575e-05
9.77561e-05
9.77577e-05
9.77559e-05
9.77582e-05
9.77556e-05
9.77591e-05
9.77551e-05
9.77602e-05
9.77542e-05
9.77618e-05
9.77527e-05
9.77615e-05
9.7743e-05
9.7738e-05
9.76632e-05
9.75023e-05
9.73451e-05
0.000109379
0.000109556
0.000109736
0.000109817
0.000109818
0.00010984
0.000109828
0.00010984
0.00010983
0.000109838
0.000109831
0.000109837
0.000109832
0.000109835
0.000109832
0.000109835
0.000109833
0.000109834
0.000109833
0.000109834
0.000109833
0.000109834
0.000109833
0.000109834
0.000109834
0.000109834
0.000109834
0.000109833
0.000109834
0.000109833
0.000109834
0.000109833
0.000109834
0.000109833
0.000109835
0.000109832
0.000109835
0.000109832
0.000109836
0.000109831
0.000109838
0.00010983
0.00010984
0.000109828
0.00010984
0.000109818
0.000109817
0.000109736
0.000109556
0.000109379
0.000109238
0.000109418
0.000109607
0.000109688
0.000109686
0.00010971
0.000109696
0.000109709
0.000109699
0.000109707
0.0001097
0.000109706
0.000109701
0.000109704
0.000109701
0.000109704
0.000109701
0.000109703
0.000109702
0.000109703
0.000109702
0.000109703
0.000109702
0.000109702
0.000109702
0.000109702
0.000109702
0.000109702
0.000109703
0.000109702
0.000109703
0.000109702
0.000109703
0.000109701
0.000109704
0.000109701
0.000109704
0.000109701
0.000109706
0.0001097
0.000109707
0.000109699
0.000109709
0.000109696
0.00010971
0.000109686
0.000109688
0.000109607
0.000109418
0.000109238
0.000101964
0.00010214
0.000102335
0.000102415
0.000102412
0.000102435
0.000102421
0.000102434
0.000102423
0.000102432
0.000102425
0.000102431
0.000102425
0.000102429
0.000102426
0.000102429
0.000102426
0.000102428
0.000102427
0.000102428
0.000102427
0.000102428
0.000102427
0.000102427
0.000102427
0.000102427
0.000102427
0.000102427
0.000102428
0.000102427
0.000102428
0.000102427
0.000102428
0.000102426
0.000102429
0.000102426
0.000102429
0.000102425
0.000102431
0.000102425
0.000102432
0.000102423
0.000102434
0.000102421
0.000102435
0.000102412
0.000102415
0.000102335
0.00010214
0.000101964
9.17691e-05
9.19387e-05
9.21367e-05
9.2214e-05
9.2211e-05
9.22344e-05
9.22201e-05
9.22334e-05
9.22221e-05
9.22311e-05
9.22234e-05
9.22296e-05
9.22243e-05
9.22282e-05
9.22249e-05
9.22276e-05
9.22251e-05
9.22272e-05
9.22256e-05
9.22268e-05
9.22258e-05
9.22265e-05
9.22259e-05
9.22263e-05
9.22261e-05
9.22261e-05
9.22263e-05
9.22259e-05
9.22265e-05
9.22258e-05
9.22268e-05
9.22256e-05
9.22272e-05
9.22251e-05
9.22276e-05
9.22249e-05
9.22282e-05
9.22244e-05
9.22295e-05
9.22235e-05
9.22311e-05
9.22221e-05
9.22334e-05
9.22201e-05
9.22344e-05
9.2211e-05
9.2214e-05
9.21367e-05
9.19387e-05
9.17691e-05
8.11737e-05
8.13344e-05
8.15318e-05
8.16068e-05
8.16047e-05
8.16272e-05
8.16134e-05
8.16263e-05
8.16153e-05
8.16239e-05
8.16165e-05
8.16225e-05
8.16174e-05
8.16211e-05
8.16179e-05
8.16205e-05
8.16181e-05
8.16201e-05
8.16186e-05
8.16197e-05
8.16188e-05
8.16195e-05
8.16189e-05
8.16192e-05
8.16191e-05
8.16191e-05
8.16192e-05
8.16189e-05
8.16195e-05
8.16188e-05
8.16197e-05
8.16186e-05
8.16201e-05
8.16181e-05
8.16205e-05
8.16179e-05
8.16212e-05
8.16174e-05
8.16224e-05
8.16166e-05
8.1624e-05
8.16153e-05
8.16262e-05
8.16134e-05
8.16272e-05
8.16047e-05
8.16068e-05
8.15318e-05
8.13344e-05
8.11737e-05
7.14322e-05
7.15837e-05
7.17775e-05
7.18501e-05
7.18493e-05
7.18707e-05
7.18578e-05
7.18699e-05
7.18595e-05
7.18677e-05
7.18606e-05
7.18662e-05
7.18614e-05
7.1865e-05
7.18619e-05
7.18644e-05
7.18621e-05
7.1864e-05
7.18626e-05
7.18636e-05
7.18628e-05
7.18633e-05
7.18628e-05
7.18631e-05
7.1863e-05
7.1863e-05
7.18631e-05
7.18628e-05
7.18634e-05
7.18628e-05
7.18636e-05
7.18626e-05
7.1864e-05
7.18621e-05
7.18644e-05
7.18619e-05
7.1865e-05
7.18615e-05
7.18662e-05
7.18607e-05
7.18677e-05
7.18595e-05
7.18699e-05
7.18578e-05
7.18707e-05
7.18493e-05
7.18501e-05
7.17775e-05
7.15837e-05
7.14322e-05
6.29886e-05
6.31314e-05
6.33196e-05
6.33898e-05
6.33905e-05
6.34107e-05
6.33986e-05
6.341e-05
6.34002e-05
6.34078e-05
6.34012e-05
6.34065e-05
6.3402e-05
6.34053e-05
6.34024e-05
6.34047e-05
6.34025e-05
6.34043e-05
6.3403e-05
6.3404e-05
6.34032e-05
6.34037e-05
6.34032e-05
6.34035e-05
6.34034e-05
6.34034e-05
6.34035e-05
6.34032e-05
6.34037e-05
6.34032e-05
6.3404e-05
6.3403e-05
6.34043e-05
6.34026e-05
6.34047e-05
6.34024e-05
6.34053e-05
6.3402e-05
6.34064e-05
6.34013e-05
6.34079e-05
6.34002e-05
6.341e-05
6.33986e-05
6.34107e-05
6.33905e-05
6.33898e-05
6.33196e-05
6.31314e-05
6.29886e-05
5.5613e-05
5.57439e-05
5.59179e-05
5.59835e-05
5.59855e-05
5.60038e-05
5.59932e-05
5.60033e-05
5.59945e-05
5.60014e-05
5.59954e-05
5.60001e-05
5.59961e-05
5.5999e-05
5.59964e-05
5.59985e-05
5.59966e-05
5.59982e-05
5.5997e-05
5.59979e-05
5.59971e-05
5.59976e-05
5.59972e-05
5.59975e-05
5.59973e-05
5.59973e-05
5.59975e-05
5.59972e-05
5.59976e-05
5.59971e-05
5.59979e-05
5.5997e-05
5.59982e-05
5.59966e-05
5.59985e-05
5.59964e-05
5.5999e-05
5.59961e-05
5.60001e-05
5.59955e-05
5.60014e-05
5.59945e-05
5.60033e-05
5.59932e-05
5.60038e-05
5.59855e-05
5.59835e-05
5.59179e-05
5.57439e-05
5.5613e-05
4.9748e-05
4.98723e-05
5.00387e-05
5.01019e-05
5.01048e-05
5.01221e-05
5.01123e-05
5.01217e-05
5.01135e-05
5.01198e-05
5.01143e-05
5.01186e-05
5.01149e-05
5.01176e-05
5.01152e-05
5.01171e-05
5.01153e-05
5.01168e-05
5.01157e-05
5.01165e-05
5.01158e-05
5.01163e-05
5.01159e-05
5.01161e-05
5.0116e-05
5.0116e-05
5.01161e-05
5.01159e-05
5.01163e-05
5.01158e-05
5.01165e-05
5.01157e-05
5.01168e-05
5.01153e-05
5.01171e-05
5.01152e-05
5.01176e-05
5.01149e-05
5.01186e-05
5.01143e-05
5.01199e-05
5.01135e-05
5.01217e-05
5.01123e-05
5.01221e-05
5.01048e-05
5.01019e-05
5.00387e-05
4.98723e-05
4.9748e-05
4.49253e-05
4.50227e-05
4.51625e-05
4.52178e-05
4.52244e-05
4.52388e-05
4.5232e-05
4.52392e-05
4.5233e-05
4.52377e-05
4.52335e-05
4.52367e-05
4.52338e-05
4.52359e-05
4.5234e-05
4.52355e-05
4.52341e-05
4.52352e-05
4.52344e-05
4.5235e-05
4.52345e-05
4.52348e-05
4.52345e-05
4.52347e-05
4.52346e-05
4.52346e-05
4.52347e-05
4.52345e-05
4.52348e-05
4.52345e-05
4.5235e-05
4.52344e-05
4.52352e-05
4.52341e-05
4.52355e-05
4.5234e-05
4.52359e-05
4.52339e-05
4.52367e-05
4.52335e-05
4.52378e-05
4.5233e-05
4.52392e-05
4.5232e-05
4.52388e-05
4.52244e-05
4.52178e-05
4.51625e-05
4.50227e-05
4.49253e-05
4.08716e-05
4.09603e-05
4.10864e-05
4.11375e-05
4.11448e-05
4.11578e-05
4.1152e-05
4.11583e-05
4.11529e-05
4.1157e-05
4.11533e-05
4.11561e-05
4.11536e-05
4.11553e-05
4.11537e-05
4.11549e-05
4.11537e-05
4.11547e-05
4.1154e-05
4.11545e-05
4.1154e-05
4.11543e-05
4.1154e-05
4.11542e-05
4.11541e-05
4.11541e-05
4.11542e-05
4.1154e-05
4.11543e-05
4.1154e-05
4.11545e-05
4.1154e-05
4.11547e-05
4.11537e-05
4.11549e-05
4.11537e-05
4.11553e-05
4.11536e-05
4.11561e-05
4.11533e-05
4.1157e-05
4.11529e-05
4.11583e-05
4.1152e-05
4.11578e-05
4.11448e-05
4.11375e-05
4.10864e-05
4.09603e-05
4.08716e-05
3.76969e-05
3.77797e-05
3.78961e-05
3.79442e-05
3.79521e-05
3.79642e-05
3.79592e-05
3.79648e-05
3.79599e-05
3.79636e-05
3.79603e-05
3.79627e-05
3.79605e-05
3.7962e-05
3.79606e-05
3.79617e-05
3.79606e-05
3.79615e-05
3.79608e-05
3.79613e-05
3.79609e-05
3.79611e-05
3.79609e-05
3.7961e-05
3.7961e-05
3.7961e-05
3.7961e-05
3.79609e-05
3.79611e-05
3.79609e-05
3.79613e-05
3.79608e-05
3.79615e-05
3.79606e-05
3.79617e-05
3.79606e-05
3.7962e-05
3.79605e-05
3.79627e-05
3.79603e-05
3.79636e-05
3.79599e-05
3.79648e-05
3.79591e-05
3.79641e-05
3.79521e-05
3.79442e-05
3.78961e-05
3.77797e-05
3.76969e-05
3.50267e-05
3.51078e-05
3.52194e-05
3.52677e-05
3.52772e-05
3.52888e-05
3.52845e-05
3.52896e-05
3.52851e-05
3.52884e-05
3.52853e-05
3.52875e-05
3.52855e-05
3.52868e-05
3.52855e-05
3.52865e-05
3.52855e-05
3.52863e-05
3.52857e-05
3.52861e-05
3.52857e-05
3.5286e-05
3.52857e-05
3.52859e-05
3.52858e-05
3.52858e-05
3.52859e-05
3.52857e-05
3.5286e-05
3.52857e-05
3.52861e-05
3.52857e-05
3.52863e-05
3.52855e-05
3.52865e-05
3.52855e-05
3.52868e-05
3.52855e-05
3.52875e-05
3.52854e-05
3.52884e-05
3.52851e-05
3.52896e-05
3.52845e-05
3.52888e-05
3.52772e-05
3.52677e-05
3.52194e-05
3.51078e-05
3.50267e-05
3.29246e-05
3.30012e-05
3.31038e-05
3.31494e-05
3.31593e-05
3.31702e-05
3.31665e-05
3.31711e-05
3.31671e-05
3.317e-05
3.31672e-05
3.31691e-05
3.31673e-05
3.31685e-05
3.31673e-05
3.31681e-05
3.31673e-05
3.3168e-05
3.31674e-05
3.31678e-05
3.31675e-05
3.31677e-05
3.31675e-05
3.31676e-05
3.31675e-05
3.31675e-05
3.31676e-05
3.31675e-05
3.31677e-05
3.31675e-05
3.31678e-05
3.31674e-05
3.3168e-05
3.31673e-05
3.31682e-05
3.31673e-05
3.31685e-05
3.31673e-05
3.31691e-05
3.31672e-05
3.317e-05
3.31671e-05
3.31711e-05
3.31665e-05
3.31701e-05
3.31593e-05
3.31494e-05
3.31038e-05
3.30012e-05
3.29246e-05
3.11465e-05
3.12229e-05
3.13221e-05
3.13674e-05
3.13774e-05
3.1388e-05
3.13845e-05
3.13889e-05
3.1385e-05
3.13878e-05
3.13851e-05
3.1387e-05
3.13851e-05
3.13863e-05
3.13851e-05
3.1386e-05
3.13851e-05
3.13858e-05
3.13853e-05
3.13857e-05
3.13853e-05
3.13855e-05
3.13853e-05
3.13854e-05
3.13854e-05
3.13854e-05
3.13854e-05
3.13853e-05
3.13855e-05
3.13853e-05
3.13857e-05
3.13853e-05
3.13858e-05
3.13851e-05
3.1386e-05
3.13851e-05
3.13863e-05
3.13852e-05
3.13869e-05
3.13851e-05
3.13878e-05
3.1385e-05
3.13889e-05
3.13845e-05
3.1388e-05
3.13774e-05
3.13674e-05
3.13221e-05
3.12229e-05
3.11465e-05
2.96897e-05
2.97623e-05
2.98523e-05
2.98947e-05
2.99049e-05
2.99147e-05
2.99118e-05
2.99157e-05
2.99123e-05
2.99146e-05
2.99123e-05
2.99139e-05
2.99123e-05
2.99133e-05
2.99123e-05
2.9913e-05
2.99122e-05
2.99128e-05
2.99123e-05
2.99127e-05
2.99124e-05
2.99126e-05
2.99124e-05
2.99125e-05
2.99124e-05
2.99124e-05
2.99125e-05
2.99124e-05
2.99126e-05
2.99124e-05
2.99127e-05
2.99123e-05
2.99128e-05
2.99122e-05
2.9913e-05
2.99122e-05
2.99133e-05
2.99123e-05
2.99139e-05
2.99123e-05
2.99146e-05
2.99123e-05
2.99157e-05
2.99118e-05
2.99147e-05
2.99049e-05
2.98947e-05
2.98523e-05
2.97623e-05
2.96897e-05
2.85379e-05
2.86089e-05
2.86922e-05
2.87325e-05
2.87429e-05
2.8752e-05
2.87496e-05
2.87531e-05
2.875e-05
2.87521e-05
2.875e-05
2.87514e-05
2.875e-05
2.87508e-05
2.87499e-05
2.87505e-05
2.87499e-05
2.87504e-05
2.875e-05
2.87503e-05
2.875e-05
2.87501e-05
2.875e-05
2.87501e-05
2.875e-05
2.875e-05
2.87501e-05
2.875e-05
2.87501e-05
2.875e-05
2.87503e-05
2.875e-05
2.87504e-05
2.87499e-05
2.87505e-05
2.87499e-05
2.87508e-05
2.875e-05
2.87514e-05
2.875e-05
2.87521e-05
2.875e-05
2.87531e-05
2.87496e-05
2.8752e-05
2.87429e-05
2.87325e-05
2.86922e-05
2.86089e-05
2.85379e-05
2.75923e-05
2.76626e-05
2.774e-05
2.77783e-05
2.77888e-05
2.77975e-05
2.77955e-05
2.77986e-05
2.77958e-05
2.77977e-05
2.77958e-05
2.7797e-05
2.77957e-05
2.77964e-05
2.77956e-05
2.77961e-05
2.77955e-05
2.7796e-05
2.77956e-05
2.77959e-05
2.77956e-05
2.77958e-05
2.77956e-05
2.77957e-05
2.77957e-05
2.77957e-05
2.77957e-05
2.77956e-05
2.77958e-05
2.77956e-05
2.77959e-05
2.77956e-05
2.7796e-05
2.77955e-05
2.77962e-05
2.77956e-05
2.77964e-05
2.77957e-05
2.7797e-05
2.77958e-05
2.77977e-05
2.77958e-05
2.77986e-05
2.77955e-05
2.77975e-05
2.77888e-05
2.77783e-05
2.774e-05
2.76626e-05
2.75923e-05
2.68149e-05
2.6863e-05
2.69322e-05
2.69679e-05
2.6979e-05
2.69871e-05
2.69858e-05
2.69884e-05
2.69861e-05
2.69875e-05
2.69858e-05
2.69868e-05
2.69856e-05
2.69862e-05
2.69855e-05
2.69859e-05
2.69854e-05
2.69858e-05
2.69855e-05
2.69857e-05
2.69855e-05
2.69856e-05
2.69854e-05
2.69855e-05
2.69855e-05
2.69855e-05
2.69855e-05
2.69854e-05
2.69856e-05
2.69855e-05
2.69857e-05
2.69855e-05
2.69858e-05
2.69854e-05
2.69859e-05
2.69855e-05
2.69862e-05
2.69856e-05
2.69867e-05
2.69858e-05
2.69875e-05
2.69861e-05
2.69884e-05
2.69858e-05
2.69871e-05
2.6979e-05
2.69679e-05
2.69322e-05
2.6863e-05
2.68149e-05
2.6175e-05
2.62222e-05
2.62866e-05
2.63206e-05
2.63317e-05
2.63394e-05
2.63384e-05
2.63407e-05
2.63386e-05
2.63398e-05
2.63383e-05
2.63391e-05
2.63381e-05
2.63386e-05
2.63379e-05
2.63383e-05
2.63378e-05
2.63382e-05
2.63379e-05
2.63381e-05
2.63379e-05
2.6338e-05
2.63379e-05
2.63379e-05
2.63379e-05
2.63379e-05
2.63379e-05
2.63379e-05
2.6338e-05
2.63379e-05
2.63381e-05
2.63379e-05
2.63382e-05
2.63378e-05
2.63383e-05
2.63379e-05
2.63386e-05
2.63381e-05
2.63391e-05
2.63383e-05
2.63398e-05
2.63386e-05
2.63407e-05
2.63384e-05
2.63393e-05
2.63317e-05
2.63206e-05
2.62866e-05
2.62222e-05
2.6175e-05
2.56277e-05
2.5674e-05
2.5735e-05
2.5768e-05
2.57792e-05
2.57866e-05
2.57859e-05
2.5788e-05
2.57861e-05
2.57871e-05
2.57857e-05
2.57864e-05
2.57855e-05
2.57859e-05
2.57853e-05
2.57856e-05
2.57852e-05
2.57855e-05
2.57852e-05
2.57854e-05
2.57852e-05
2.57853e-05
2.57852e-05
2.57852e-05
2.57852e-05
2.57852e-05
2.57852e-05
2.57852e-05
2.57853e-05
2.57852e-05
2.57854e-05
2.57852e-05
2.57855e-05
2.57852e-05
2.57856e-05
2.57853e-05
2.57859e-05
2.57855e-05
2.57864e-05
2.57857e-05
2.57871e-05
2.57861e-05
2.5788e-05
2.57859e-05
2.57866e-05
2.57792e-05
2.5768e-05
2.5735e-05
2.5674e-05
2.56277e-05
2.51747e-05
2.52194e-05
2.52761e-05
2.53075e-05
2.53186e-05
2.53257e-05
2.53252e-05
2.53271e-05
2.53253e-05
2.53262e-05
2.53249e-05
2.53255e-05
2.53246e-05
2.5325e-05
2.53244e-05
2.53247e-05
2.53243e-05
2.53245e-05
2.53243e-05
2.53244e-05
2.53243e-05
2.53244e-05
2.53243e-05
2.53243e-05
2.53243e-05
2.53243e-05
2.53243e-05
2.53243e-05
2.53244e-05
2.53243e-05
2.53244e-05
2.53243e-05
2.53245e-05
2.53243e-05
2.53247e-05
2.53244e-05
2.5325e-05
2.53246e-05
2.53255e-05
2.53249e-05
2.53262e-05
2.53253e-05
2.5327e-05
2.53252e-05
2.53257e-05
2.53186e-05
2.53075e-05
2.52761e-05
2.52194e-05
2.51747e-05
2.47984e-05
2.48417e-05
2.48946e-05
2.49244e-05
2.49355e-05
2.49422e-05
2.4942e-05
2.49436e-05
2.49421e-05
2.49428e-05
2.49416e-05
2.49421e-05
2.49413e-05
2.49415e-05
2.4941e-05
2.49413e-05
2.49409e-05
2.49411e-05
2.49409e-05
2.4941e-05
2.49409e-05
2.4941e-05
2.49409e-05
2.49409e-05
2.49409e-05
2.49409e-05
2.49409e-05
2.49409e-05
2.4941e-05
2.49409e-05
2.4941e-05
2.49409e-05
2.49411e-05
2.49409e-05
2.49413e-05
2.4941e-05
2.49415e-05
2.49413e-05
2.49421e-05
2.49416e-05
2.49428e-05
2.49421e-05
2.49436e-05
2.4942e-05
2.49422e-05
2.49355e-05
2.49244e-05
2.48946e-05
2.48417e-05
2.47984e-05
2.44846e-05
2.45266e-05
2.45762e-05
2.46046e-05
2.46155e-05
2.4622e-05
2.46219e-05
2.46234e-05
2.4622e-05
2.46225e-05
2.46215e-05
2.46218e-05
2.46211e-05
2.46213e-05
2.46208e-05
2.4621e-05
2.46207e-05
2.46209e-05
2.46207e-05
2.46208e-05
2.46206e-05
2.46207e-05
2.46206e-05
2.46206e-05
2.46206e-05
2.46206e-05
2.46206e-05
2.46206e-05
2.46207e-05
2.46206e-05
2.46208e-05
2.46207e-05
2.46209e-05
2.46207e-05
2.4621e-05
2.46208e-05
2.46213e-05
2.46211e-05
2.46218e-05
2.46215e-05
2.46225e-05
2.4622e-05
2.46234e-05
2.46219e-05
2.4622e-05
2.46155e-05
2.46046e-05
2.45762e-05
2.45266e-05
2.44846e-05
2.42217e-05
2.42623e-05
2.43092e-05
2.43362e-05
2.4347e-05
2.43532e-05
2.43533e-05
2.43545e-05
2.43533e-05
2.43537e-05
2.43527e-05
2.43529e-05
2.43523e-05
2.43524e-05
2.4352e-05
2.43521e-05
2.43519e-05
2.4352e-05
2.43518e-05
2.43519e-05
2.43518e-05
2.43518e-05
2.43518e-05
2.43518e-05
2.43518e-05
2.43518e-05
2.43518e-05
2.43518e-05
2.43518e-05
2.43518e-05
2.43519e-05
2.43518e-05
2.4352e-05
2.43519e-05
2.43522e-05
2.4352e-05
2.43524e-05
2.43523e-05
2.43529e-05
2.43527e-05
2.43537e-05
2.43533e-05
2.43545e-05
2.43533e-05
2.43532e-05
2.4347e-05
2.43362e-05
2.43092e-05
2.42623e-05
2.42217e-05
2.40001e-05
2.40394e-05
2.40839e-05
2.41096e-05
2.41203e-05
2.41262e-05
2.41265e-05
2.41276e-05
2.41264e-05
2.41267e-05
2.41258e-05
2.41259e-05
2.41253e-05
2.41254e-05
2.4125e-05
2.41251e-05
2.41249e-05
2.4125e-05
2.41248e-05
2.41249e-05
2.41248e-05
2.41248e-05
2.41248e-05
2.41248e-05
2.41248e-05
2.41248e-05
2.41248e-05
2.41248e-05
2.41248e-05
2.41248e-05
2.41249e-05
2.41248e-05
2.4125e-05
2.41249e-05
2.41251e-05
2.4125e-05
2.41254e-05
2.41253e-05
2.41259e-05
2.41258e-05
2.41267e-05
2.41264e-05
2.41276e-05
2.41265e-05
2.41262e-05
2.41203e-05
2.41096e-05
2.40839e-05
2.40394e-05
2.40001e-05
2.38121e-05
2.38501e-05
2.38925e-05
2.39171e-05
2.39276e-05
2.39333e-05
2.39336e-05
2.39346e-05
2.39335e-05
2.39337e-05
2.39328e-05
2.39329e-05
2.39323e-05
2.39324e-05
2.3932e-05
2.39321e-05
2.39318e-05
2.39319e-05
2.39318e-05
2.39318e-05
2.39317e-05
2.39318e-05
2.39317e-05
2.39317e-05
2.39317e-05
2.39317e-05
2.39317e-05
2.39317e-05
2.39318e-05
2.39317e-05
2.39318e-05
2.39318e-05
2.39319e-05
2.39318e-05
2.39321e-05
2.3932e-05
2.39324e-05
2.39323e-05
2.39329e-05
2.39328e-05
2.39337e-05
2.39335e-05
2.39346e-05
2.39336e-05
2.39333e-05
2.39276e-05
2.39171e-05
2.38925e-05
2.38501e-05
2.38121e-05
2.36512e-05
2.36879e-05
2.37285e-05
2.3752e-05
2.37624e-05
2.37679e-05
2.37683e-05
2.37691e-05
2.37681e-05
2.37682e-05
2.37674e-05
2.37674e-05
2.37668e-05
2.37668e-05
2.37665e-05
2.37665e-05
2.37663e-05
2.37664e-05
2.37662e-05
2.37663e-05
2.37662e-05
2.37662e-05
2.37662e-05
2.37662e-05
2.37662e-05
2.37662e-05
2.37662e-05
2.37662e-05
2.37662e-05
2.37662e-05
2.37663e-05
2.37662e-05
2.37664e-05
2.37663e-05
2.37665e-05
2.37665e-05
2.37668e-05
2.37668e-05
2.37674e-05
2.37674e-05
2.37682e-05
2.37681e-05
2.37691e-05
2.37683e-05
2.37679e-05
2.37624e-05
2.3752e-05
2.37285e-05
2.36879e-05
2.36512e-05
2.35122e-05
2.35477e-05
2.35867e-05
2.36093e-05
2.36194e-05
2.36247e-05
2.36252e-05
2.36259e-05
2.36249e-05
2.36249e-05
2.36241e-05
2.36241e-05
2.36235e-05
2.36235e-05
2.36232e-05
2.36232e-05
2.3623e-05
2.3623e-05
2.36229e-05
2.36229e-05
2.36228e-05
2.36229e-05
2.36228e-05
2.36228e-05
2.36228e-05
2.36228e-05
2.36228e-05
2.36228e-05
2.36229e-05
2.36228e-05
2.36229e-05
2.36229e-05
2.3623e-05
2.3623e-05
2.36232e-05
2.36232e-05
2.36235e-05
2.36235e-05
2.36241e-05
2.36241e-05
2.36249e-05
2.36249e-05
2.36259e-05
2.36252e-05
2.36247e-05
2.36194e-05
2.36093e-05
2.35867e-05
2.35477e-05
2.35122e-05
2.33907e-05
2.34252e-05
2.34627e-05
2.34843e-05
2.34943e-05
2.34994e-05
2.34999e-05
2.35005e-05
2.34995e-05
2.34995e-05
2.34987e-05
2.34986e-05
2.34981e-05
2.3498e-05
2.34977e-05
2.34977e-05
2.34975e-05
2.34975e-05
2.34974e-05
2.34974e-05
2.34973e-05
2.34973e-05
2.34973e-05
2.34973e-05
2.34973e-05
2.34973e-05
2.34973e-05
2.34973e-05
2.34973e-05
2.34973e-05
2.34974e-05
2.34974e-05
2.34975e-05
2.34975e-05
2.34977e-05
2.34977e-05
2.3498e-05
2.34981e-05
2.34986e-05
2.34987e-05
2.34995e-05
2.34995e-05
2.35005e-05
2.34999e-05
2.34994e-05
2.34943e-05
2.34843e-05
2.34626e-05
2.34252e-05
2.33907e-05
2.32833e-05
2.33166e-05
2.33528e-05
2.33737e-05
2.33834e-05
2.33884e-05
2.33889e-05
2.33894e-05
2.33884e-05
2.33883e-05
2.33875e-05
2.33874e-05
2.33868e-05
2.33867e-05
2.33864e-05
2.33864e-05
2.33862e-05
2.33862e-05
2.33861e-05
2.33861e-05
2.3386e-05
2.3386e-05
2.3386e-05
2.3386e-05
2.3386e-05
2.3386e-05
2.3386e-05
2.3386e-05
2.3386e-05
2.3386e-05
2.33861e-05
2.33861e-05
2.33862e-05
2.33862e-05
2.33864e-05
2.33864e-05
2.33867e-05
2.33868e-05
2.33874e-05
2.33875e-05
2.33883e-05
2.33884e-05
2.33894e-05
2.33889e-05
2.33884e-05
2.33834e-05
2.33737e-05
2.33528e-05
2.33166e-05
2.32833e-05
2.31869e-05
2.32192e-05
2.32542e-05
2.32743e-05
2.32838e-05
2.32886e-05
2.32891e-05
2.32895e-05
2.32885e-05
2.32883e-05
2.32875e-05
2.32874e-05
2.32868e-05
2.32867e-05
2.32864e-05
2.32864e-05
2.32862e-05
2.32862e-05
2.32861e-05
2.32861e-05
2.3286e-05
2.3286e-05
2.3286e-05
2.3286e-05
2.3286e-05
2.3286e-05
2.3286e-05
2.3286e-05
2.3286e-05
2.3286e-05
2.32861e-05
2.32861e-05
2.32862e-05
2.32862e-05
2.32864e-05
2.32864e-05
2.32867e-05
2.32868e-05
2.32874e-05
2.32875e-05
2.32883e-05
2.32885e-05
2.32895e-05
2.32891e-05
2.32886e-05
2.32838e-05
2.32743e-05
2.32542e-05
2.32192e-05
2.31869e-05
2.30992e-05
2.31304e-05
2.31644e-05
2.31838e-05
2.31931e-05
2.31977e-05
2.31981e-05
2.31984e-05
2.31975e-05
2.31972e-05
2.31964e-05
2.31962e-05
2.31957e-05
2.31955e-05
2.31952e-05
2.31951e-05
2.31949e-05
2.3195e-05
2.31948e-05
2.31948e-05
2.31948e-05
2.31948e-05
2.31947e-05
2.31947e-05
2.31947e-05
2.31947e-05
2.31947e-05
2.31947e-05
2.31948e-05
2.31948e-05
2.31948e-05
2.31948e-05
2.3195e-05
2.31949e-05
2.31951e-05
2.31952e-05
2.31955e-05
2.31957e-05
2.31962e-05
2.31964e-05
2.31972e-05
2.31975e-05
2.31984e-05
2.31981e-05
2.31977e-05
2.31931e-05
2.31838e-05
2.31644e-05
2.31304e-05
2.30992e-05
2.30181e-05
2.30482e-05
2.30814e-05
2.31001e-05
2.31091e-05
2.31135e-05
2.31139e-05
2.31142e-05
2.31132e-05
2.31128e-05
2.3112e-05
2.31118e-05
2.31112e-05
2.31111e-05
2.31107e-05
2.31107e-05
2.31105e-05
2.31105e-05
2.31104e-05
2.31104e-05
2.31103e-05
2.31103e-05
2.31102e-05
2.31102e-05
2.31102e-05
2.31102e-05
2.31102e-05
2.31102e-05
2.31103e-05
2.31103e-05
2.31104e-05
2.31104e-05
2.31105e-05
2.31105e-05
2.31107e-05
2.31107e-05
2.31111e-05
2.31112e-05
2.31118e-05
2.3112e-05
2.31128e-05
2.31132e-05
2.31142e-05
2.31139e-05
2.31135e-05
2.31091e-05
2.31001e-05
2.30814e-05
2.30482e-05
2.30181e-05
2.2942e-05
2.29711e-05
2.30034e-05
2.30215e-05
2.30303e-05
2.30345e-05
2.30348e-05
2.3035e-05
2.3034e-05
2.30335e-05
2.30327e-05
2.30324e-05
2.30319e-05
2.30317e-05
2.30314e-05
2.30313e-05
2.30311e-05
2.30311e-05
2.30309e-05
2.30309e-05
2.30309e-05
2.30309e-05
2.30308e-05
2.30308e-05
2.30308e-05
2.30308e-05
2.30308e-05
2.30308e-05
2.30309e-05
2.30309e-05
2.30309e-05
2.30309e-05
2.30311e-05
2.30311e-05
2.30313e-05
2.30314e-05
2.30317e-05
2.30319e-05
2.30324e-05
2.30327e-05
2.30335e-05
2.3034e-05
2.3035e-05
2.30348e-05
2.30345e-05
2.30303e-05
2.30215e-05
2.30034e-05
2.29711e-05
2.2942e-05
2.28693e-05
2.28977e-05
2.29291e-05
2.29466e-05
2.29551e-05
2.29591e-05
2.29594e-05
2.29594e-05
2.29584e-05
2.29579e-05
2.29571e-05
2.29567e-05
2.29562e-05
2.2956e-05
2.29556e-05
2.29555e-05
2.29553e-05
2.29553e-05
2.29552e-05
2.29552e-05
2.29551e-05
2.29551e-05
2.2955e-05
2.2955e-05
2.2955e-05
2.2955e-05
2.2955e-05
2.2955e-05
2.29551e-05
2.29551e-05
2.29552e-05
2.29552e-05
2.29553e-05
2.29553e-05
2.29555e-05
2.29556e-05
2.2956e-05
2.29562e-05
2.29567e-05
2.29571e-05
2.29579e-05
2.29584e-05
2.29594e-05
2.29594e-05
2.29591e-05
2.29551e-05
2.29466e-05
2.29291e-05
2.28977e-05
2.28693e-05
)
;

boundaryField
{
    fuel
    {
        type            fixedValue;
        value           uniform 0;
    }
    wall
    {
        type            zeroGradient;
    }
    outlet
    {
        type            zeroGradient;
    }
    frontAndBack
    {
        type            empty;
    }
    procBoundary1to0
    {
        type            processor;
        value           nonuniform List<scalar> 
50
(
2.27991e-05
2.28267e-05
2.28573e-05
2.28742e-05
2.28824e-05
2.28863e-05
2.28865e-05
2.28864e-05
2.28853e-05
2.28848e-05
2.28839e-05
2.28835e-05
2.28829e-05
2.28827e-05
2.28824e-05
2.28823e-05
2.28821e-05
2.2882e-05
2.28819e-05
2.28819e-05
2.28818e-05
2.28818e-05
2.28818e-05
2.28818e-05
2.28817e-05
2.28817e-05
2.28818e-05
2.28818e-05
2.28818e-05
2.28818e-05
2.28819e-05
2.28819e-05
2.2882e-05
2.28821e-05
2.28823e-05
2.28824e-05
2.28827e-05
2.28829e-05
2.28835e-05
2.28839e-05
2.28848e-05
2.28853e-05
2.28864e-05
2.28865e-05
2.28863e-05
2.28824e-05
2.28742e-05
2.28573e-05
2.28267e-05
2.27991e-05
)
;
    }
}


// ************************************************************************* //
