/*--------------------------------*- C++ -*----------------------------------*\
| =========                 |                                                 |
| \\      /  F ield         | OpenFOAM: The Open Source CFD Toolbox           |
|  \\    /   O peration     | Version:  dev                                   |
|   \\  /    A nd           | Web:      www.OpenFOAM.org                      |
|    \\/     M anipulation  |                                                 |
\*---------------------------------------------------------------------------*/
FoamFile
{
    version     2.0;
    format      ascii;
    class       volScalarField;
    location    "0.05";
    object      H2;
}
// * * * * * * * * * * * * * * * * * * * * * * * * * * * * * * * * * * * * * //

dimensions      [0 0 0 0 0 0 0];

internalField   nonuniform List<scalar> 
2000
(
0.00190684
0.00190744
0.00190837
0.00190879
0.00190899
0.00190902
0.00190905
0.00190904
0.00190905
0.00190904
0.00190905
0.00190904
0.00190905
0.00190904
0.00190905
0.00190904
0.00190905
0.00190904
0.00190905
0.00190904
0.00190904
0.00190904
0.00190904
0.00190904
0.00190904
0.00190904
0.00190904
0.00190904
0.00190904
0.00190904
0.00190904
0.00190905
0.00190904
0.00190905
0.00190904
0.00190905
0.00190904
0.00190905
0.00190904
0.00190905
0.00190904
0.00190905
0.00190904
0.00190905
0.00190902
0.00190899
0.00190879
0.00190837
0.00190744
0.00190684
0.0039649
0.00396587
0.00396747
0.0039682
0.00396857
0.0039686
0.00396868
0.00396865
0.00396868
0.00396865
0.00396868
0.00396866
0.00396867
0.00396866
0.00396867
0.00396866
0.00396866
0.00396866
0.00396866
0.00396866
0.00396866
0.00396866
0.00396866
0.00396866
0.00396866
0.00396866
0.00396866
0.00396866
0.00396866
0.00396866
0.00396866
0.00396866
0.00396866
0.00396866
0.00396866
0.00396867
0.00396866
0.00396867
0.00396866
0.00396868
0.00396865
0.00396868
0.00396865
0.00396868
0.0039686
0.00396857
0.0039682
0.00396747
0.00396587
0.0039649
0.00537758
0.00537805
0.0053789
0.00537937
0.00537968
0.00537967
0.00537976
0.00537972
0.00537976
0.00537972
0.00537975
0.00537973
0.00537975
0.00537973
0.00537974
0.00537973
0.00537974
0.00537973
0.00537974
0.00537973
0.00537974
0.00537973
0.00537974
0.00537974
0.00537974
0.00537974
0.00537974
0.00537974
0.00537973
0.00537974
0.00537973
0.00537974
0.00537973
0.00537974
0.00537973
0.00537974
0.00537973
0.00537975
0.00537973
0.00537975
0.00537972
0.00537976
0.00537972
0.00537976
0.00537967
0.00537968
0.00537937
0.0053789
0.00537805
0.00537758
0.00613529
0.00613534
0.00613548
0.0061357
0.00613593
0.00613589
0.00613599
0.00613593
0.00613599
0.00613594
0.00613598
0.00613595
0.00613597
0.00613595
0.00613597
0.00613595
0.00613596
0.00613595
0.00613596
0.00613596
0.00613596
0.00613596
0.00613596
0.00613596
0.00613596
0.00613596
0.00613596
0.00613596
0.00613596
0.00613596
0.00613596
0.00613596
0.00613595
0.00613596
0.00613595
0.00613597
0.00613595
0.00613597
0.00613595
0.00613598
0.00613594
0.00613599
0.00613593
0.00613599
0.00613589
0.00613593
0.0061357
0.00613548
0.00613534
0.00613529
0.00656079
0.00656061
0.00656029
0.00656036
0.00656055
0.00656049
0.00656059
0.00656053
0.00656059
0.00656054
0.00656058
0.00656055
0.00656057
0.00656055
0.00656057
0.00656055
0.00656057
0.00656055
0.00656056
0.00656056
0.00656056
0.00656056
0.00656056
0.00656056
0.00656056
0.00656056
0.00656056
0.00656056
0.00656056
0.00656056
0.00656056
0.00656056
0.00656055
0.00656057
0.00656055
0.00656057
0.00656055
0.00656057
0.00656055
0.00656058
0.00656054
0.00656059
0.00656053
0.00656059
0.00656049
0.00656055
0.00656036
0.00656029
0.00656061
0.00656079
0.00683341
0.00683308
0.00683246
0.00683242
0.00683258
0.00683251
0.00683262
0.00683255
0.00683262
0.00683256
0.00683261
0.00683257
0.0068326
0.00683258
0.0068326
0.00683258
0.00683259
0.00683258
0.00683259
0.00683258
0.00683259
0.00683258
0.00683259
0.00683259
0.00683259
0.00683259
0.00683259
0.00683259
0.00683258
0.00683259
0.00683258
0.00683259
0.00683258
0.00683259
0.00683258
0.0068326
0.00683258
0.0068326
0.00683257
0.00683261
0.00683256
0.00683262
0.00683255
0.00683262
0.00683251
0.00683258
0.00683242
0.00683246
0.00683308
0.00683341
0.00702955
0.0070291
0.00702821
0.00702808
0.00702822
0.00702814
0.00702825
0.00702817
0.00702825
0.00702819
0.00702824
0.0070282
0.00702823
0.00702821
0.00702823
0.00702821
0.00702823
0.00702821
0.00702822
0.00702822
0.00702822
0.00702822
0.00702822
0.00702822
0.00702822
0.00702822
0.00702822
0.00702822
0.00702822
0.00702822
0.00702822
0.00702822
0.00702821
0.00702823
0.00702821
0.00702823
0.00702821
0.00702823
0.0070282
0.00702824
0.00702819
0.00702825
0.00702817
0.00702825
0.00702814
0.00702822
0.00702808
0.00702821
0.0070291
0.00702955
0.00718161
0.00718102
0.00717987
0.00717965
0.00717976
0.00717966
0.00717978
0.0071797
0.00717978
0.00717972
0.00717977
0.00717973
0.00717977
0.00717974
0.00717976
0.00717974
0.00717976
0.00717975
0.00717976
0.00717975
0.00717975
0.00717975
0.00717975
0.00717975
0.00717975
0.00717975
0.00717975
0.00717975
0.00717975
0.00717975
0.00717975
0.00717976
0.00717975
0.00717976
0.00717974
0.00717976
0.00717974
0.00717977
0.00717973
0.00717977
0.00717972
0.00717978
0.0071797
0.00717978
0.00717966
0.00717976
0.00717965
0.00717987
0.00718102
0.00718161
0.00730481
0.00730407
0.00730266
0.00730234
0.00730243
0.00730232
0.00730244
0.00730235
0.00730244
0.00730238
0.00730244
0.00730239
0.00730243
0.0073024
0.00730242
0.0073024
0.00730242
0.00730241
0.00730242
0.00730241
0.00730242
0.00730241
0.00730241
0.00730241
0.00730241
0.00730241
0.00730241
0.00730241
0.00730241
0.00730242
0.00730241
0.00730242
0.00730241
0.00730242
0.0073024
0.00730242
0.0073024
0.00730243
0.00730239
0.00730244
0.00730238
0.00730244
0.00730236
0.00730244
0.00730232
0.00730243
0.00730234
0.00730266
0.00730407
0.00730481
0.00740741
0.00740649
0.00740483
0.0074044
0.00740446
0.00740433
0.00740446
0.00740437
0.00740447
0.0074044
0.00740446
0.00740441
0.00740445
0.00740442
0.00740445
0.00740442
0.00740444
0.00740443
0.00740444
0.00740443
0.00740444
0.00740443
0.00740444
0.00740443
0.00740443
0.00740443
0.00740443
0.00740444
0.00740443
0.00740444
0.00740443
0.00740444
0.00740443
0.00740444
0.00740442
0.00740445
0.00740442
0.00740445
0.00740441
0.00740446
0.0074044
0.00740447
0.00740437
0.00740446
0.00740433
0.00740446
0.0074044
0.00740483
0.00740649
0.00740741
0.00749455
0.00749344
0.00749153
0.00749099
0.00749101
0.00749086
0.007491
0.0074909
0.00749101
0.00749093
0.007491
0.00749095
0.00749099
0.00749096
0.00749099
0.00749096
0.00749098
0.00749097
0.00749098
0.00749097
0.00749098
0.00749097
0.00749098
0.00749097
0.00749098
0.00749098
0.00749097
0.00749098
0.00749097
0.00749098
0.00749097
0.00749098
0.00749097
0.00749098
0.00749096
0.00749099
0.00749096
0.00749099
0.00749095
0.007491
0.00749093
0.00749101
0.0074909
0.007491
0.00749086
0.00749101
0.00749099
0.00749153
0.00749344
0.00749455
0.00757283
0.00757154
0.00756946
0.00756881
0.0075688
0.00756864
0.00756878
0.00756868
0.00756878
0.00756871
0.00756878
0.00756873
0.00756877
0.00756874
0.00756877
0.00756874
0.00756876
0.00756875
0.00756876
0.00756875
0.00756876
0.00756875
0.00756876
0.00756875
0.00756876
0.00756876
0.00756875
0.00756876
0.00756875
0.00756876
0.00756875
0.00756876
0.00756875
0.00756876
0.00756874
0.00756877
0.00756874
0.00756877
0.00756873
0.00756878
0.00756871
0.00756878
0.00756868
0.00756878
0.00756864
0.0075688
0.00756881
0.00756946
0.00757154
0.00757283
0.00763894
0.00763743
0.00763513
0.00763436
0.00763431
0.00763413
0.00763427
0.00763417
0.00763428
0.00763421
0.00763428
0.00763422
0.00763427
0.00763424
0.00763427
0.00763424
0.00763427
0.00763425
0.00763426
0.00763425
0.00763426
0.00763425
0.00763426
0.00763425
0.00763426
0.00763426
0.00763425
0.00763426
0.00763425
0.00763426
0.00763425
0.00763426
0.00763425
0.00763427
0.00763424
0.00763427
0.00763424
0.00763427
0.00763422
0.00763428
0.00763421
0.00763428
0.00763417
0.00763427
0.00763413
0.00763431
0.00763436
0.00763513
0.00763743
0.00763894
0.00769801
0.00769654
0.00769424
0.00769342
0.0076933
0.00769312
0.00769325
0.00769315
0.00769326
0.00769319
0.00769326
0.00769321
0.00769325
0.00769322
0.00769325
0.00769323
0.00769325
0.00769323
0.00769325
0.00769324
0.00769324
0.00769324
0.00769324
0.00769324
0.00769324
0.00769324
0.00769324
0.00769324
0.00769324
0.00769324
0.00769324
0.00769325
0.00769323
0.00769325
0.00769323
0.00769325
0.00769322
0.00769325
0.00769321
0.00769326
0.00769319
0.00769326
0.00769315
0.00769325
0.00769312
0.00769331
0.00769342
0.00769424
0.00769654
0.00769801
0.00775287
0.00775123
0.00774879
0.00774787
0.00774771
0.00774751
0.00774764
0.00774755
0.00774765
0.00774759
0.00774765
0.00774761
0.00774765
0.00774762
0.00774765
0.00774763
0.00774765
0.00774763
0.00774764
0.00774763
0.00774764
0.00774764
0.00774764
0.00774764
0.00774764
0.00774764
0.00774764
0.00774764
0.00774764
0.00774764
0.00774763
0.00774764
0.00774763
0.00774765
0.00774763
0.00774765
0.00774762
0.00774765
0.00774761
0.00774765
0.00774759
0.00774765
0.00774755
0.00774764
0.00774751
0.00774771
0.00774787
0.00774879
0.00775123
0.00775287
0.00780091
0.00779906
0.00779645
0.00779543
0.00779523
0.00779502
0.00779514
0.00779505
0.00779516
0.00779509
0.00779516
0.00779511
0.00779516
0.00779513
0.00779516
0.00779513
0.00779516
0.00779514
0.00779515
0.00779514
0.00779515
0.00779514
0.00779515
0.00779515
0.00779515
0.00779515
0.00779515
0.00779515
0.00779514
0.00779515
0.00779514
0.00779515
0.00779514
0.00779516
0.00779513
0.00779516
0.00779513
0.00779516
0.00779511
0.00779516
0.00779509
0.00779516
0.00779505
0.00779514
0.00779502
0.00779523
0.00779543
0.00779645
0.00779906
0.00780091
0.00784654
0.00784441
0.00784157
0.00784038
0.00784012
0.00783988
0.00784001
0.00783991
0.00784003
0.00783996
0.00784003
0.00783998
0.00784003
0.00784
0.00784003
0.00784001
0.00784003
0.00784001
0.00784003
0.00784002
0.00784002
0.00784002
0.00784002
0.00784002
0.00784002
0.00784002
0.00784002
0.00784002
0.00784002
0.00784002
0.00784002
0.00784003
0.00784001
0.00784003
0.00784001
0.00784003
0.00784
0.00784003
0.00783998
0.00784003
0.00783996
0.00784003
0.00783991
0.00784001
0.00783988
0.00784012
0.00784038
0.00784157
0.00784441
0.00784654
0.00788739
0.00788504
0.00788206
0.00788078
0.00788047
0.00788022
0.00788035
0.00788024
0.00788037
0.0078803
0.00788037
0.00788032
0.00788037
0.00788034
0.00788037
0.00788035
0.00788037
0.00788035
0.00788037
0.00788036
0.00788037
0.00788036
0.00788036
0.00788036
0.00788036
0.00788036
0.00788036
0.00788036
0.00788036
0.00788036
0.00788036
0.00788037
0.00788035
0.00788037
0.00788035
0.00788037
0.00788034
0.00788037
0.00788032
0.00788037
0.00788029
0.00788037
0.00788024
0.00788035
0.00788022
0.00788048
0.00788078
0.00788206
0.00788504
0.00788739
0.00792694
0.00792428
0.00792106
0.00791962
0.00791929
0.007919
0.00791914
0.00791903
0.00791916
0.00791908
0.00791917
0.00791911
0.00791917
0.00791913
0.00791917
0.00791914
0.00791917
0.00791915
0.00791916
0.00791915
0.00791916
0.00791915
0.00791916
0.00791916
0.00791916
0.00791916
0.00791916
0.00791916
0.00791915
0.00791916
0.00791915
0.00791916
0.00791915
0.00791917
0.00791914
0.00791917
0.00791913
0.00791917
0.00791911
0.00791917
0.00791908
0.00791916
0.00791903
0.00791914
0.007919
0.00791929
0.00791962
0.00792106
0.00792428
0.00792694
0.00796418
0.0079613
0.007958
0.00795648
0.0079561
0.0079558
0.00795594
0.00795583
0.00795597
0.00795589
0.00795598
0.00795592
0.00795598
0.00795594
0.00795598
0.00795595
0.00795598
0.00795596
0.00795597
0.00795596
0.00795597
0.00795596
0.00795597
0.00795597
0.00795597
0.00795597
0.00795597
0.00795597
0.00795596
0.00795597
0.00795596
0.00795597
0.00795596
0.00795598
0.00795595
0.00795598
0.00795594
0.00795598
0.00795592
0.00795598
0.00795589
0.00795597
0.00795583
0.00795594
0.0079558
0.0079561
0.00795648
0.007958
0.0079613
0.00796418
0.00799807
0.00799496
0.00799155
0.00798995
0.00798954
0.00798922
0.00798936
0.00798925
0.00798939
0.00798931
0.0079894
0.00798934
0.0079894
0.00798936
0.0079894
0.00798937
0.0079894
0.00798938
0.0079894
0.00798938
0.00798939
0.00798939
0.00798939
0.00798939
0.00798939
0.00798939
0.00798939
0.00798939
0.00798939
0.00798939
0.00798938
0.0079894
0.00798938
0.0079894
0.00798937
0.0079894
0.00798936
0.0079894
0.00798934
0.0079894
0.00798931
0.00798939
0.00798925
0.00798936
0.00798922
0.00798954
0.00798995
0.00799155
0.00799496
0.00799807
0.00803022
0.00802687
0.00802336
0.00802168
0.00802123
0.0080209
0.00802104
0.00802092
0.00802107
0.00802099
0.00802108
0.00802103
0.00802109
0.00802105
0.00802109
0.00802106
0.00802109
0.00802106
0.00802108
0.00802107
0.00802108
0.00802107
0.00802108
0.00802108
0.00802108
0.00802108
0.00802108
0.00802108
0.00802107
0.00802108
0.00802107
0.00802108
0.00802106
0.00802109
0.00802106
0.00802109
0.00802105
0.00802108
0.00802103
0.00802108
0.00802099
0.00802107
0.00802092
0.00802104
0.0080209
0.00802123
0.00802168
0.00802336
0.00802687
0.00803022
0.00806083
0.00805812
0.00805463
0.00805291
0.0080524
0.00805205
0.00805218
0.00805207
0.00805222
0.00805215
0.00805223
0.00805218
0.00805224
0.00805221
0.00805225
0.00805222
0.00805225
0.00805223
0.00805224
0.00805223
0.00805224
0.00805224
0.00805224
0.00805224
0.00805224
0.00805224
0.00805224
0.00805224
0.00805223
0.00805224
0.00805223
0.00805224
0.00805223
0.00805225
0.00805222
0.00805225
0.00805221
0.00805224
0.00805218
0.00805223
0.00805215
0.00805222
0.00805207
0.00805218
0.00805205
0.0080524
0.00805291
0.00805463
0.00805812
0.00806083
0.00809009
0.00808718
0.00808363
0.00808183
0.00808129
0.00808093
0.00808106
0.00808095
0.00808109
0.00808103
0.00808112
0.00808107
0.00808113
0.00808109
0.00808113
0.00808111
0.00808113
0.00808111
0.00808113
0.00808112
0.00808113
0.00808112
0.00808113
0.00808112
0.00808112
0.00808112
0.00808112
0.00808113
0.00808112
0.00808113
0.00808112
0.00808113
0.00808111
0.00808113
0.0080811
0.00808113
0.00808109
0.00808113
0.00808107
0.00808112
0.00808103
0.00808109
0.00808095
0.00808106
0.00808093
0.00808129
0.00808183
0.00808363
0.00808718
0.00809009
0.00811921
0.00811611
0.00811243
0.00811054
0.00810995
0.00810957
0.0081097
0.00810959
0.00810974
0.00810968
0.00810977
0.00810972
0.00810978
0.00810975
0.00810979
0.00810976
0.00810979
0.00810977
0.00810978
0.00810977
0.00810978
0.00810978
0.00810978
0.00810978
0.00810978
0.00810978
0.00810978
0.00810978
0.00810978
0.00810978
0.00810977
0.00810979
0.00810977
0.00810979
0.00810976
0.00810979
0.00810975
0.00810978
0.00810972
0.00810977
0.00810968
0.00810974
0.00810959
0.0081097
0.00810957
0.00810995
0.00811054
0.00811243
0.00811611
0.00811921
0.00814726
0.00814401
0.0081403
0.00813836
0.00813774
0.00813735
0.00813748
0.00813737
0.00813752
0.00813746
0.00813755
0.0081375
0.00813757
0.00813753
0.00813757
0.00813755
0.00813758
0.00813755
0.00813757
0.00813756
0.00813757
0.00813756
0.00813757
0.00813757
0.00813757
0.00813757
0.00813757
0.00813757
0.00813756
0.00813757
0.00813756
0.00813757
0.00813755
0.00813757
0.00813755
0.00813757
0.00813753
0.00813757
0.0081375
0.00813755
0.00813746
0.00813752
0.00813737
0.00813748
0.00813735
0.00813774
0.00813836
0.0081403
0.00814401
0.00814726
0.00817435
0.00817095
0.00816721
0.00816524
0.0081646
0.0081642
0.00816432
0.00816422
0.00816437
0.00816431
0.0081644
0.00816435
0.00816441
0.00816438
0.00816442
0.0081644
0.00816443
0.0081644
0.00816442
0.00816441
0.00816442
0.00816441
0.00816442
0.00816442
0.00816442
0.00816442
0.00816442
0.00816442
0.00816441
0.00816442
0.00816441
0.00816442
0.0081644
0.00816443
0.0081644
0.00816442
0.00816438
0.00816441
0.00816435
0.0081644
0.0081643
0.00816437
0.00816422
0.00816432
0.0081642
0.0081646
0.00816524
0.00816721
0.00817095
0.00817435
0.00820057
0.00819704
0.00819327
0.00819127
0.0081906
0.00819019
0.00819032
0.00819021
0.00819037
0.00819031
0.0081904
0.00819036
0.00819042
0.00819039
0.00819043
0.0081904
0.00819043
0.00819041
0.00819043
0.00819041
0.00819043
0.00819042
0.00819043
0.00819042
0.00819042
0.00819042
0.00819042
0.00819043
0.00819042
0.00819043
0.00819041
0.00819043
0.00819041
0.00819043
0.0081904
0.00819043
0.00819039
0.00819042
0.00819036
0.0081904
0.00819031
0.00819037
0.00819021
0.00819032
0.00819019
0.0081906
0.00819127
0.00819327
0.00819704
0.00820057
0.00822599
0.00822234
0.00821855
0.00821652
0.00821584
0.00821542
0.00821554
0.00821544
0.00821559
0.00821554
0.00821563
0.00821559
0.00821565
0.00821562
0.00821566
0.00821564
0.00821567
0.00821564
0.00821566
0.00821565
0.00821566
0.00821565
0.00821566
0.00821566
0.00821566
0.00821566
0.00821566
0.00821566
0.00821565
0.00821566
0.00821565
0.00821566
0.00821564
0.00821567
0.00821564
0.00821566
0.00821562
0.00821565
0.00821559
0.00821563
0.00821554
0.00821559
0.00821544
0.00821554
0.00821542
0.00821584
0.00821652
0.00821855
0.00822234
0.00822599
0.00825067
0.00824693
0.00824311
0.00824107
0.00824036
0.00823994
0.00824006
0.00823996
0.00824012
0.00824006
0.00824016
0.00824012
0.00824018
0.00824015
0.00824019
0.00824017
0.00824019
0.00824017
0.00824019
0.00824018
0.00824019
0.00824018
0.00824019
0.00824019
0.00824019
0.00824019
0.00824019
0.00824019
0.00824018
0.00824019
0.00824018
0.00824019
0.00824017
0.00824019
0.00824017
0.00824019
0.00824015
0.00824018
0.00824012
0.00824016
0.00824006
0.00824012
0.00823996
0.00824006
0.00823994
0.00824036
0.00824107
0.00824311
0.00824693
0.00825067
0.00827467
0.00827085
0.008267
0.00826496
0.00826424
0.00826381
0.00826393
0.00826383
0.00826399
0.00826393
0.00826403
0.00826399
0.00826405
0.00826403
0.00826407
0.00826404
0.00826407
0.00826405
0.00826407
0.00826406
0.00826407
0.00826406
0.00826407
0.00826406
0.00826406
0.00826406
0.00826406
0.00826407
0.00826406
0.00826407
0.00826406
0.00826407
0.00826405
0.00826407
0.00826404
0.00826406
0.00826403
0.00826405
0.00826399
0.00826403
0.00826393
0.00826399
0.00826383
0.00826393
0.00826381
0.00826424
0.00826496
0.008267
0.00827085
0.00827467
0.00829804
0.00829414
0.00829029
0.00828824
0.0082875
0.00828707
0.00828719
0.0082871
0.00828725
0.0082872
0.0082873
0.00828726
0.00828732
0.0082873
0.00828734
0.00828731
0.00828734
0.00828732
0.00828734
0.00828733
0.00828734
0.00828733
0.00828734
0.00828733
0.00828734
0.00828734
0.00828733
0.00828734
0.00828733
0.00828734
0.00828733
0.00828734
0.00828732
0.00828734
0.00828731
0.00828734
0.0082873
0.00828732
0.00828726
0.0082873
0.0082872
0.00828725
0.0082871
0.00828719
0.00828707
0.0082875
0.00828824
0.00829029
0.00829414
0.00829804
0.00832082
0.00831686
0.00831299
0.00831095
0.0083102
0.00830977
0.00830988
0.0083098
0.00830995
0.0083099
0.00831
0.00830997
0.00831003
0.00831
0.00831004
0.00831002
0.00831005
0.00831003
0.00831005
0.00831003
0.00831005
0.00831004
0.00831005
0.00831004
0.00831004
0.00831004
0.00831004
0.00831005
0.00831004
0.00831005
0.00831003
0.00831005
0.00831003
0.00831005
0.00831002
0.00831004
0.00831
0.00831003
0.00830997
0.00831
0.0083099
0.00830995
0.0083098
0.00830988
0.00830977
0.0083102
0.00831095
0.00831299
0.00831686
0.00832082
0.00834304
0.00833904
0.00833517
0.00833312
0.00833237
0.00833194
0.00833205
0.00833196
0.00833212
0.00833208
0.00833217
0.00833214
0.0083322
0.00833218
0.00833222
0.0083322
0.00833222
0.00833221
0.00833222
0.00833221
0.00833222
0.00833222
0.00833222
0.00833222
0.00833222
0.00833222
0.00833222
0.00833222
0.00833222
0.00833222
0.00833221
0.00833222
0.00833221
0.00833222
0.0083322
0.00833222
0.00833218
0.0083322
0.00833214
0.00833217
0.00833208
0.00833212
0.00833197
0.00833205
0.00833194
0.00833237
0.00833312
0.00833517
0.00833904
0.00834304
0.00836474
0.00836071
0.00835683
0.00835479
0.00835404
0.0083536
0.00835372
0.00835364
0.00835379
0.00835375
0.00835385
0.00835382
0.00835388
0.00835386
0.0083539
0.00835388
0.0083539
0.00835388
0.0083539
0.00835389
0.0083539
0.00835389
0.0083539
0.0083539
0.0083539
0.0083539
0.0083539
0.0083539
0.00835389
0.0083539
0.00835389
0.0083539
0.00835388
0.0083539
0.00835388
0.0083539
0.00835386
0.00835388
0.00835382
0.00835385
0.00835375
0.00835379
0.00835364
0.00835372
0.00835361
0.00835404
0.0083548
0.00835683
0.00836071
0.00836474
0.00838593
0.00838189
0.00837801
0.00837599
0.00837524
0.0083748
0.00837491
0.00837483
0.00837499
0.00837495
0.00837505
0.00837502
0.00837508
0.00837506
0.0083751
0.00837508
0.00837511
0.00837509
0.0083751
0.00837509
0.0083751
0.0083751
0.00837511
0.0083751
0.0083751
0.0083751
0.0083751
0.00837511
0.0083751
0.0083751
0.00837509
0.0083751
0.00837509
0.00837511
0.00837508
0.0083751
0.00837506
0.00837508
0.00837502
0.00837505
0.00837495
0.00837499
0.00837483
0.00837491
0.0083748
0.00837524
0.00837599
0.00837801
0.00838189
0.00838593
0.00840665
0.00840261
0.00839874
0.00839673
0.00839598
0.00839554
0.00839566
0.00839558
0.00839573
0.0083957
0.0083958
0.00839577
0.00839583
0.00839581
0.00839585
0.00839583
0.00839586
0.00839584
0.00839586
0.00839585
0.00839586
0.00839585
0.00839586
0.00839586
0.00839586
0.00839586
0.00839586
0.00839586
0.00839585
0.00839586
0.00839585
0.00839586
0.00839584
0.00839586
0.00839583
0.00839585
0.00839581
0.00839583
0.00839577
0.0083958
0.0083957
0.00839573
0.00839558
0.00839566
0.00839554
0.00839598
0.00839673
0.00839874
0.00840261
0.00840665
0.00842691
0.0084229
0.00841903
0.00841704
0.00841629
0.00841586
0.00841597
0.0084159
0.00841605
0.00841602
0.00841612
0.0084161
0.00841616
0.00841614
0.00841618
0.00841616
0.00841619
0.00841617
0.00841618
0.00841617
0.00841618
0.00841618
0.00841619
0.00841618
0.00841618
0.00841618
0.00841618
0.00841618
0.00841618
0.00841618
0.00841617
0.00841618
0.00841617
0.00841619
0.00841616
0.00841618
0.00841614
0.00841616
0.0084161
0.00841612
0.00841602
0.00841605
0.0084159
0.00841597
0.00841586
0.00841629
0.00841704
0.00841903
0.0084229
0.00842691
0.00844674
0.00844275
0.0084389
0.00843693
0.00843619
0.00843576
0.00843587
0.0084358
0.00843596
0.00843593
0.00843603
0.00843601
0.00843607
0.00843605
0.00843609
0.00843607
0.0084361
0.00843608
0.0084361
0.00843609
0.0084361
0.00843609
0.0084361
0.0084361
0.0084361
0.0084361
0.0084361
0.0084361
0.00843609
0.0084361
0.00843609
0.0084361
0.00843608
0.0084361
0.00843607
0.00843609
0.00843605
0.00843607
0.00843601
0.00843603
0.00843593
0.00843596
0.0084358
0.00843587
0.00843576
0.00843619
0.00843694
0.0084389
0.00844275
0.00844674
0.00846617
0.0084622
0.00845837
0.00845643
0.00845569
0.00845527
0.00845538
0.00845532
0.00845547
0.00845545
0.00845554
0.00845552
0.00845559
0.00845557
0.00845561
0.00845559
0.00845562
0.0084556
0.00845562
0.00845561
0.00845562
0.00845561
0.00845562
0.00845561
0.00845561
0.00845561
0.00845561
0.00845562
0.00845561
0.00845562
0.00845561
0.00845562
0.0084556
0.00845562
0.00845559
0.00845561
0.00845557
0.00845559
0.00845552
0.00845554
0.00845545
0.00845547
0.00845532
0.00845538
0.00845527
0.00845569
0.00845643
0.00845838
0.0084622
0.00846617
)
;

boundaryField
{
    fuel
    {
        type            fixedValue;
        value           uniform 0;
    }
    wall
    {
        type            zeroGradient;
    }
    outlet
    {
        type            zeroGradient;
    }
    frontAndBack
    {
        type            empty;
    }
    procBoundary1to0
    {
        type            processor;
        value           nonuniform List<scalar> 
50
(
0.0084852
0.00848124
0.00847746
0.00847554
0.00847481
0.00847439
0.00847451
0.00847445
0.0084746
0.00847458
0.00847468
0.00847466
0.00847472
0.0084747
0.00847474
0.00847473
0.00847475
0.00847474
0.00847475
0.00847474
0.00847475
0.00847475
0.00847475
0.00847475
0.00847475
0.00847475
0.00847475
0.00847475
0.00847475
0.00847475
0.00847474
0.00847475
0.00847474
0.00847475
0.00847473
0.00847474
0.0084747
0.00847472
0.00847466
0.00847468
0.00847458
0.0084746
0.00847445
0.00847451
0.00847439
0.00847481
0.00847554
0.00847746
0.00848124
0.00848519
)
;
    }
}


// ************************************************************************* //
