/*--------------------------------*- C++ -*----------------------------------*\
| =========                 |                                                 |
| \\      /  F ield         | OpenFOAM: The Open Source CFD Toolbox           |
|  \\    /   O peration     | Version:  dev                                   |
|   \\  /    A nd           | Web:      www.OpenFOAM.org                      |
|    \\/     M anipulation  |                                                 |
\*---------------------------------------------------------------------------*/
FoamFile
{
    version     2.0;
    format      ascii;
    class       volScalarField;
    location    "0.05";
    object      H2O;
}
// * * * * * * * * * * * * * * * * * * * * * * * * * * * * * * * * * * * * * //

dimensions      [0 0 0 0 0 0 0];

internalField   nonuniform List<scalar> 
250
(
0.0583298
0.0579803
0.0578579
0.0577135
0.0576823
0.0576563
0.0576565
0.0576478
0.057652
0.057648
0.0581684
0.0578538
0.0577415
0.0576132
0.0575843
0.0575607
0.0575605
0.0575523
0.0575562
0.0575518
0.0575469
0.0575612
0.0575445
0.057571
0.0575496
0.0576032
0.0576034
0.0577585
0.0578873
0.0582554
0.0580167
0.0577368
0.0576343
0.0575213
0.0574947
0.0574734
0.0574729
0.0574651
0.0574687
0.0574639
0.0574595
0.0574728
0.0574577
0.0574815
0.0574629
0.0575102
0.0575112
0.0576481
0.0577621
0.0580872
0.057875
0.0576287
0.0575358
0.0574369
0.0574126
0.0573935
0.0573926
0.0573853
0.0573886
0.0573834
0.0573792
0.0573917
0.0573781
0.0573995
0.0573833
0.0574251
0.0574266
0.0575466
0.0576465
0.0579317
0.057743
0.0575272
0.0574449
0.0573586
0.0573353
0.0573181
0.057317
0.0573102
0.0573129
0.0573076
0.0573046
0.0573152
0.0573042
0.0573224
0.0573094
0.0573456
0.0573481
0.057453
0.0575394
0.0577881
0.0576198
0.057433
0.0573599
0.0572849
0.0572638
0.0572483
0.0572469
0.0572405
0.0572429
0.0572373
0.0572343
0.0572444
0.0572345
0.0572509
0.0572398
0.0572717
0.0572743
0.0573656
0.0574398
0.0576534
0.0575044
0.0573437
0.0572794
0.0572143
0.0571953
0.0571812
0.0571796
0.0571735
0.0571757
0.0571694
0.0571667
0.0571764
0.0571675
0.0571824
0.0571728
0.0572011
0.0572036
0.0572829
0.0573462
0.0575258
0.0573955
0.0572582
0.0572019
0.0571457
0.0571285
0.0571157
0.0571139
0.057108
0.05711
0.0571031
0.0571006
0.05711
0.0571021
0.0571156
0.0571075
0.0571325
0.0571349
0.0572035
0.0572572
0.0574094
0.0572927
0.0571763
0.0571269
0.0570786
0.057063
0.0570514
0.0570495
0.0570437
0.0570456
0.057038
0.0570357
0.0570449
0.0570379
0.0570501
0.0570433
0.0570654
0.0570679
0.057127
0.0571724
0.0573001
0.0571964
0.0570984
0.057055
0.0570138
0.0569994
0.056989
0.0569869
0.0569813
0.056983
0.0569748
0.0569728
0.0569816
0.0569757
0.0569864
0.0569812
0.0570004
0.0570031
0.0570536
0.057092
0.0571984
0.0571089
0.0570269
0.056988
0.0569533
0.0569399
0.0569306
0.0569282
0.0569229
0.0569244
0.0569157
0.0569139
0.0569222
0.0569174
0.0569267
0.0569231
0.0569394
0.0569428
0.0569855
0.0570184
0.0571064
0.0570349
0.0569661
0.0569305
0.0569013
0.0568885
0.0568803
0.0568776
0.0568726
0.0568738
0.0568646
0.0568631
0.056871
0.0568674
0.0568751
0.0568731
0.0568866
0.056891
0.056927
0.0569558
0.0570292
0.0569845
0.0569247
0.0568908
0.0568656
0.056853
0.0568457
0.0568427
0.056838
0.0568391
0.0568295
0.0568282
0.0568356
0.056833
0.0568394
0.0568388
0.0568501
0.0568555
0.0568867
0.0569129
0.0569767
)
;

boundaryField
{
    fuel
    {
        type            fixedValue;
        value           nonuniform 0();
    }
    wall
    {
        type            zeroGradient;
    }
    outlet
    {
        type            zeroGradient;
    }
    frontAndBack
    {
        type            empty;
    }
    procBoundary1to0
    {
        type            processor;
        value           nonuniform List<scalar> 
21
(
0.0585018
0.0581161
0.0579843
0.0578225
0.0577893
0.0577608
0.0577613
0.0577522
0.0577566
0.057753
0.0576427
0.0576427
0.0576581
0.0576396
0.0576691
0.0576447
0.0577048
0.0577043
0.057878
0.0580238
0.0584358
)
;
    }
}


// ************************************************************************* //
