/*--------------------------------*- C++ -*----------------------------------*\
| =========                 |                                                 |
| \\      /  F ield         | OpenFOAM: The Open Source CFD Toolbox           |
|  \\    /   O peration     | Version:  dev                                   |
|   \\  /    A nd           | Web:      www.OpenFOAM.org                      |
|    \\/     M anipulation  |                                                 |
\*---------------------------------------------------------------------------*/
FoamFile
{
    version     2.0;
    format      ascii;
    class       volScalarField;
    location    "0.05";
    object      H2O2;
}
// * * * * * * * * * * * * * * * * * * * * * * * * * * * * * * * * * * * * * //

dimensions      [0 0 0 0 0 0 0];

internalField   nonuniform List<scalar> 
25
(
1.01988e-09
9.58545e-10
8.99779e-10
8.43634e-10
7.90071e-10
7.3911e-10
6.89314e-10
6.41984e-10
5.96876e-10
5.5384e-10
5.12896e-10
4.74119e-10
4.37503e-10
4.02967e-10
3.70441e-10
3.39975e-10
3.11698e-10
2.85314e-10
2.61537e-10
2.39036e-10
2.1728e-10
1.97089e-10
1.79246e-10
1.62683e-10
1.47332e-10
)
;

boundaryField
{
    wall
    {
        type            zeroGradient;
    }
    fuel
    {
        type            fixedValue;
        value           nonuniform 0();
    }
    outlet
    {
        type            inletOutlet;
        inletValue      nonuniform 0();
        value           nonuniform 0();
    }
    procBoundary1to0
    {
        type            processor;
        value           uniform 1.08367e-09;
    }
    procBoundary1to2
    {
        type            processor;
        value           uniform 1.32956e-10;
    }
}


// ************************************************************************* //
