/*--------------------------------*- C++ -*----------------------------------*\
| =========                 |                                                 |
| \\      /  F ield         | OpenFOAM: The Open Source CFD Toolbox           |
|  \\    /   O peration     | Version:  dev                                   |
|   \\  /    A nd           | Web:      www.OpenFOAM.org                      |
|    \\/     M anipulation  |                                                 |
\*---------------------------------------------------------------------------*/
FoamFile
{
    version     2.0;
    format      ascii;
    class       volScalarField;
    location    "0.05";
    object      i-A1C2H2;
}
// * * * * * * * * * * * * * * * * * * * * * * * * * * * * * * * * * * * * * //

dimensions      [0 0 0 0 0 0 0];

internalField   nonuniform List<scalar> 
250
(
2.9381e-11
1.98379e-11
1.67948e-11
1.60449e-11
1.57095e-11
1.57118e-11
1.56512e-11
1.56973e-11
1.56616e-11
1.5693e-11
2.80238e-11
2.06282e-11
1.79458e-11
1.73912e-11
1.70609e-11
1.7095e-11
1.70198e-11
1.70838e-11
1.70334e-11
1.70756e-11
1.71207e-11
1.6977e-11
1.7153e-11
1.69173e-11
1.71809e-11
1.69154e-11
1.74184e-11
1.79634e-11
2.13145e-11
3.79466e-11
2.78618e-11
2.22193e-11
1.97636e-11
1.94547e-11
1.91099e-11
1.91965e-11
1.90967e-11
1.91879e-11
1.91161e-11
1.91727e-11
1.92431e-11
1.90337e-11
1.92942e-11
1.89514e-11
1.93268e-11
1.89102e-11
1.95039e-11
1.97632e-11
2.262e-11
3.60841e-11
2.92412e-11
2.51093e-11
2.27385e-11
2.27541e-11
2.2369e-11
2.25369e-11
2.23995e-11
2.25266e-11
2.24255e-11
2.24956e-11
2.26122e-11
2.23023e-11
2.26942e-11
2.21828e-11
2.27359e-11
2.20811e-11
2.284e-11
2.27196e-11
2.52038e-11
3.61316e-11
3.28301e-11
3.01293e-11
2.76717e-11
2.81241e-11
2.77103e-11
2.80036e-11
2.77897e-11
2.79936e-11
2.78423e-11
2.79372e-11
2.8062e-11
2.76522e-11
2.81912e-11
2.74713e-11
2.82486e-11
2.72712e-11
2.82647e-11
2.76423e-11
2.98538e-11
3.87496e-11
3.98885e-11
3.86632e-11
3.59484e-11
3.70146e-11
3.64597e-11
3.69401e-11
3.6618e-11
3.69299e-11
3.66953e-11
3.68394e-11
3.70447e-11
3.64056e-11
3.72471e-11
3.61443e-11
3.73311e-11
3.58359e-11
3.72364e-11
3.59311e-11
3.79527e-11
4.52218e-11
5.30116e-11
5.36071e-11
5.03215e-11
5.23434e-11
5.15435e-11
5.23359e-11
5.18206e-11
5.232e-11
5.19472e-11
5.21712e-11
5.24934e-11
5.14873e-11
5.28191e-11
5.10934e-11
5.29502e-11
5.06217e-11
5.2696e-11
5.03544e-11
5.22712e-11
5.82739e-11
7.82686e-11
8.15837e-11
7.71629e-11
8.08528e-11
7.95969e-11
8.09527e-11
8.00789e-11
8.09142e-11
8.02986e-11
8.06565e-11
8.11836e-11
7.9526e-11
8.1736e-11
7.88922e-11
8.19575e-11
7.81401e-11
8.14444e-11
7.73025e-11
7.92289e-11
8.37347e-11
1.31524e-10
1.39453e-10
1.32935e-10
1.39632e-10
1.37504e-10
1.39883e-10
1.38332e-10
1.39769e-10
1.38718e-10
1.39302e-10
1.4019e-10
1.37368e-10
1.41166e-10
1.36309e-10
1.41574e-10
1.35095e-10
1.40666e-10
1.33323e-10
1.35387e-10
1.37807e-10
2.56477e-10
2.70145e-10
2.60831e-10
2.70858e-10
2.6734e-10
2.70801e-10
2.68341e-10
2.70367e-10
2.6885e-10
2.69586e-10
2.70782e-10
2.66829e-10
2.72256e-10
2.65459e-10
2.73015e-10
2.64216e-10
2.72198e-10
2.62327e-10
2.64223e-10
2.64936e-10
5.14053e-10
5.06296e-10
5.01955e-10
4.96409e-10
4.9352e-10
4.9186e-10
4.91424e-10
4.90088e-10
4.90704e-10
4.89675e-10
4.88619e-10
4.91171e-10
4.88393e-10
4.93148e-10
4.89273e-10
4.98329e-10
4.93534e-10
5.10656e-10
5.07334e-10
5.31798e-10
6.92602e-10
6.37759e-10
6.42523e-10
6.09651e-10
6.08549e-10
5.98819e-10
6.02317e-10
5.95456e-10
5.99964e-10
5.95761e-10
5.91464e-10
6.04514e-10
5.88577e-10
6.11554e-10
5.89279e-10
6.26519e-10
5.99265e-10
6.64211e-10
6.48566e-10
7.28136e-10
7.09498e-10
6.56377e-10
6.5262e-10
6.22289e-10
6.17668e-10
6.09077e-10
6.1188e-10
6.04741e-10
6.10147e-10
6.04389e-10
6.00491e-10
6.13625e-10
5.98316e-10
6.20167e-10
5.99657e-10
6.35837e-10
6.09251e-10
6.80028e-10
6.59038e-10
7.52928e-10
)
;

boundaryField
{
    fuel
    {
        type            fixedValue;
        value           nonuniform 0();
    }
    wall
    {
        type            zeroGradient;
    }
    outlet
    {
        type            zeroGradient;
    }
    frontAndBack
    {
        type            empty;
    }
    procBoundary1to0
    {
        type            processor;
        value           nonuniform List<scalar> 
21
(
3.18241e-11
1.95461e-11
1.60161e-11
1.50956e-11
1.47418e-11
1.47257e-11
1.46731e-11
1.47094e-11
1.46825e-11
1.47079e-11
1.57248e-11
1.57248e-11
1.56195e-11
1.57464e-11
1.55716e-11
1.57724e-11
1.55929e-11
1.60606e-11
1.68258e-11
2.08054e-11
4.13646e-11
)
;
    }
}


// ************************************************************************* //
