/*--------------------------------*- C++ -*----------------------------------*\
| =========                 |                                                 |
| \\      /  F ield         | OpenFOAM: The Open Source CFD Toolbox           |
|  \\    /   O peration     | Version:  dev                                   |
|   \\  /    A nd           | Web:      www.OpenFOAM.org                      |
|    \\/     M anipulation  |                                                 |
\*---------------------------------------------------------------------------*/
FoamFile
{
    version     2.0;
    format      ascii;
    class       volScalarField;
    location    "0.05";
    object      n-C6H7;
}
// * * * * * * * * * * * * * * * * * * * * * * * * * * * * * * * * * * * * * //

dimensions      [0 0 0 0 0 0 0];

internalField   nonuniform List<scalar> 
25
(
2.62267e-21
3.67027e-21
5.52437e-21
9.06303e-21
1.61841e-20
3.08155e-20
6.19342e-20
1.25882e-19
2.54199e-19
5.04192e-19
9.75383e-19
1.83203e-18
3.33124e-18
5.85139e-18
9.90999e-18
1.61694e-17
2.54714e-17
3.89981e-17
5.71879e-17
8.1485e-17
1.13502e-16
1.53006e-16
1.9801e-16
2.50237e-16
3.09258e-16
)
;

boundaryField
{
    wall
    {
        type            zeroGradient;
    }
    fuel
    {
        type            fixedValue;
        value           nonuniform 0();
    }
    outlet
    {
        type            inletOutlet;
        inletValue      nonuniform 0();
        value           nonuniform 0();
    }
    procBoundary1to0
    {
        type            processor;
        value           uniform 1.96954e-21;
    }
    procBoundary1to2
    {
        type            processor;
        value           uniform 3.73276e-16;
    }
}


// ************************************************************************* //
