/*--------------------------------*- C++ -*----------------------------------*\
| =========                 |                                                 |
| \\      /  F ield         | OpenFOAM: The Open Source CFD Toolbox           |
|  \\    /   O peration     | Version:  dev                                   |
|   \\  /    A nd           | Web:      www.OpenFOAM.org                      |
|    \\/     M anipulation  |                                                 |
\*---------------------------------------------------------------------------*/
FoamFile
{
    version     2.0;
    format      ascii;
    class       volScalarField;
    location    "0.05";
    object      O2;
}
// * * * * * * * * * * * * * * * * * * * * * * * * * * * * * * * * * * * * * //

dimensions      [0 0 0 0 0 0 0];

internalField   nonuniform List<scalar> 
250
(
2.12508e-06
1.03076e-07
6.88598e-09
2.78257e-09
2.72863e-09
2.63831e-09
2.66549e-09
2.62243e-09
2.64503e-09
2.63012e-09
1.43097e-06
7.64703e-08
5.54651e-09
2.23501e-09
2.17556e-09
2.10792e-09
2.12847e-09
2.0953e-09
2.11327e-09
2.10107e-09
2.07696e-09
2.14568e-09
2.06022e-09
2.19558e-09
2.06226e-09
2.29782e-09
2.28747e-09
7.32083e-09
1.23449e-07
1.59646e-06
9.61364e-07
5.63408e-08
4.45888e-09
1.81592e-09
1.75698e-09
1.7062e-09
1.72171e-09
1.69589e-09
1.71042e-09
1.70003e-09
1.68139e-09
1.73474e-09
1.66865e-09
1.77218e-09
1.67054e-09
1.85108e-09
1.87209e-09
6.34329e-09
1.05943e-07
1.33164e-06
6.41992e-07
4.10385e-08
3.56332e-09
1.48786e-09
1.43407e-09
1.3956e-09
1.40716e-09
1.38716e-09
1.39896e-09
1.39006e-09
1.3746e-09
1.41723e-09
1.36483e-09
1.44543e-09
1.36664e-09
1.50655e-09
1.54217e-09
5.36636e-09
8.7445e-08
1.07705e-06
4.24061e-07
2.92951e-08
2.81777e-09
1.22308e-09
1.17262e-09
1.14301e-09
1.15227e-09
1.13633e-09
1.14563e-09
1.13891e-09
1.12924e-09
1.15958e-09
1.12163e-09
1.18137e-09
1.12333e-09
1.23022e-09
1.2714e-09
4.41165e-09
6.915e-08
8.41955e-07
2.75448e-07
2.05074e-08
2.19533e-09
1.00289e-09
9.61322e-10
9.38394e-10
9.45368e-10
9.32961e-10
9.40539e-10
9.34809e-10
9.26566e-10
9.5107e-10
9.20603e-10
9.6766e-10
9.22194e-10
1.00578e-09
1.04262e-09
3.51196e-09
5.22135e-08
6.31262e-07
1.74732e-07
1.39613e-08
1.67797e-09
8.15161e-10
7.82496e-10
7.64593e-10
7.70018e-10
7.59922e-10
7.66416e-10
7.61082e-10
7.54438e-10
7.74368e-10
7.49775e-10
7.86938e-10
7.51233e-10
8.16408e-10
8.45261e-10
2.69956e-09
3.74917e-08
4.49625e-07
1.07358e-07
9.18566e-09
1.25301e-09
6.52602e-10
6.28052e-10
6.14069e-10
6.1835e-10
6.10025e-10
6.1566e-10
6.10681e-10
6.05496e-10
6.21631e-10
6.01895e-10
6.31051e-10
6.03201e-10
6.53444e-10
6.73349e-10
1.99821e-09
2.54784e-08
3.06977e-07
6.32286e-08
5.79843e-09
9.10272e-10
5.11268e-10
4.93551e-10
4.8278e-10
4.86122e-10
4.79362e-10
4.84155e-10
4.79652e-10
4.75721e-10
4.88548e-10
4.73016e-10
4.9547e-10
4.74163e-10
5.12063e-10
5.23877e-10
1.41965e-09
1.6267e-08
1.97516e-07
3.52121e-08
3.48273e-09
6.40707e-10
3.89519e-10
3.77146e-10
3.69106e-10
3.71604e-10
3.66306e-10
3.70244e-10
3.6632e-10
3.63462e-10
3.73331e-10
3.6153e-10
3.78248e-10
3.62523e-10
3.90134e-10
3.95743e-10
9.64313e-10
9.65754e-09
1.18285e-07
1.82204e-08
1.97538e-09
4.36089e-10
2.87451e-10
2.78936e-10
2.73235e-10
2.74955e-10
2.71006e-10
2.74111e-10
2.70813e-10
2.68864e-10
2.76106e-10
2.67599e-10
2.79417e-10
2.68451e-10
2.87573e-10
2.8921e-10
6.24419e-10
5.25969e-09
6.47909e-08
8.63926e-09
1.06406e-09
2.89895e-10
2.06949e-10
2.00952e-10
1.97178e-10
1.98213e-10
1.95433e-10
1.97791e-10
1.95093e-10
1.93878e-10
1.98906e-10
1.93163e-10
2.00975e-10
1.93897e-10
2.06331e-10
2.06039e-10
3.88825e-10
2.60634e-09
3.19336e-08
4.07624e-09
5.99505e-10
2.01433e-10
1.53858e-10
1.49207e-10
1.468e-10
1.47323e-10
1.45393e-10
1.47193e-10
1.44969e-10
1.44254e-10
1.47705e-10
1.43927e-10
1.48949e-10
1.44577e-10
1.52508e-10
1.51771e-10
2.51805e-10
1.28366e-09
1.52721e-08
)
;

boundaryField
{
    fuel
    {
        type            fixedValue;
        value           nonuniform 0();
    }
    wall
    {
        type            zeroGradient;
    }
    outlet
    {
        type            inletOutlet;
        inletValue      uniform 0;
        value           nonuniform List<scalar> 
25
(
2.12508e-06
1.43097e-06
9.61364e-07
6.41992e-07
4.24061e-07
2.75448e-07
1.74732e-07
1.07358e-07
6.32286e-08
3.52121e-08
1.82204e-08
8.63926e-09
4.07624e-09
1.59646e-06
1.33164e-06
1.07705e-06
8.41955e-07
6.31262e-07
4.49625e-07
3.06977e-07
1.97516e-07
1.18285e-07
6.47909e-08
3.19336e-08
1.52721e-08
)
;
    }
    frontAndBack
    {
        type            empty;
    }
    procBoundary1to0
    {
        type            processor;
        value           nonuniform List<scalar> 
21
(
3.18204e-06
1.39062e-07
8.57788e-09
3.50398e-09
3.46467e-09
3.3437e-09
3.37972e-09
3.32353e-09
3.35209e-09
3.33338e-09
2.5984e-09
2.5984e-09
2.68822e-09
2.57657e-09
2.75465e-09
2.57932e-09
2.88677e-09
2.82608e-09
8.27474e-09
1.37785e-07
1.83834e-06
)
;
    }
}


// ************************************************************************* //
