/*--------------------------------*- C++ -*----------------------------------*\
| =========                 |                                                 |
| \\      /  F ield         | OpenFOAM: The Open Source CFD Toolbox           |
|  \\    /   O peration     | Version:  dev                                   |
|   \\  /    A nd           | Web:      www.OpenFOAM.org                      |
|    \\/     M anipulation  |                                                 |
\*---------------------------------------------------------------------------*/
FoamFile
{
    version     2.0;
    format      ascii;
    class       volScalarField;
    location    "0.05";
    object      P2-;
}
// * * * * * * * * * * * * * * * * * * * * * * * * * * * * * * * * * * * * * //

dimensions      [0 0 0 0 0 0 0];

internalField   nonuniform List<scalar> 
25
(
1.09674e-17
1.40806e-17
1.80228e-17
2.29542e-17
2.90902e-17
3.66899e-17
4.63868e-17
5.84833e-17
7.36301e-17
9.26277e-17
1.16435e-16
1.46173e-16
1.83106e-16
2.28479e-16
2.83196e-16
3.47487e-16
4.21054e-16
5.04361e-16
5.93044e-16
6.88274e-16
7.88784e-16
8.87259e-16
9.76202e-16
1.05844e-15
1.13287e-15
)
;

boundaryField
{
    wall
    {
        type            zeroGradient;
    }
    fuel
    {
        type            fixedValue;
        value           nonuniform 0();
    }
    outlet
    {
        type            inletOutlet;
        inletValue      nonuniform 0();
        value           nonuniform 0();
    }
    procBoundary1to0
    {
        type            processor;
        value           uniform 8.51618e-18;
    }
    procBoundary1to2
    {
        type            processor;
        value           uniform 1.19883e-15;
    }
}


// ************************************************************************* //
