/*--------------------------------*- C++ -*----------------------------------*\
| =========                 |                                                 |
| \\      /  F ield         | OpenFOAM: The Open Source CFD Toolbox           |
|  \\    /   O peration     | Version:  dev                                   |
|   \\  /    A nd           | Web:      www.OpenFOAM.org                      |
|    \\/     M anipulation  |                                                 |
\*---------------------------------------------------------------------------*/
FoamFile
{
    version     2.0;
    format      ascii;
    class       surfaceScalarField;
    location    "0.05";
    object      phi;
}
// * * * * * * * * * * * * * * * * * * * * * * * * * * * * * * * * * * * * * //

dimensions      [1 0 -1 0 0 0 0];

internalField   nonuniform List<scalar> 
3910
(
-2.80216e-08
2.86718e-06
-1.88868e-08
2.88071e-06
-1.54263e-08
2.88641e-06
-1.56872e-08
2.89015e-06
-1.38855e-08
2.8881e-06
-1.40543e-08
2.89008e-06
-1.26231e-08
2.88848e-06
-1.25193e-08
2.88981e-06
-1.13011e-08
2.8887e-06
-1.09947e-08
2.88961e-06
-9.93312e-09
2.88885e-06
-9.4998e-09
2.88948e-06
-8.55568e-09
2.88897e-06
-8.01337e-09
2.88938e-06
-7.1446e-09
2.88905e-06
-6.55194e-09
2.88933e-06
-5.70996e-09
2.88908e-06
-5.07984e-09
2.88929e-06
-4.29694e-09
2.88913e-06
-3.63041e-09
2.88925e-06
-2.87341e-09
2.88916e-06
-2.18346e-09
2.88923e-06
-1.43614e-09
2.88917e-06
-7.25139e-10
2.88921e-06
7.48963e-14
2.88919e-06
7.25208e-10
2.88919e-06
1.4362e-09
2.88921e-06
2.18323e-09
2.88917e-06
2.8728e-09
2.88923e-06
3.63001e-09
2.88916e-06
4.29684e-09
2.88925e-06
5.07983e-09
2.88913e-06
5.71146e-09
2.88929e-06
6.55222e-09
2.88908e-06
7.14201e-09
2.88933e-06
8.01469e-09
2.88905e-06
8.55604e-09
2.88938e-06
9.49655e-09
2.88898e-06
9.93524e-09
2.88948e-06
1.0994e-08
2.88886e-06
1.12976e-08
2.88961e-06
1.25181e-08
2.8887e-06
1.2623e-08
2.88981e-06
1.40532e-08
2.88848e-06
1.38874e-08
2.89008e-06
1.56875e-08
2.8881e-06
1.54283e-08
2.89015e-06
1.88892e-08
2.88641e-06
2.80219e-08
2.88071e-06
2.86718e-06
-3.52838e-08
2.84777e-06
-2.36117e-08
2.86862e-06
-2.04684e-08
2.88285e-06
-1.978e-08
2.88905e-06
-1.82751e-08
2.88619e-06
-1.78199e-08
2.88922e-06
-1.65305e-08
2.8868e-06
-1.59391e-08
2.88882e-06
-1.47506e-08
2.88711e-06
-1.40441e-08
2.88851e-06
-1.29378e-08
2.88735e-06
-1.21624e-08
2.88831e-06
-1.11165e-08
2.88753e-06
-1.02792e-08
2.88815e-06
-9.27067e-09
2.88765e-06
-8.40657e-09
2.88807e-06
-7.41167e-09
2.88769e-06
-6.52955e-09
2.88801e-06
-5.5679e-09
2.88777e-06
-4.66678e-09
2.88795e-06
-3.71806e-09
2.88781e-06
-2.80382e-09
2.88791e-06
-1.85886e-09
2.88783e-06
-9.3297e-10
2.88788e-06
2.11221e-14
2.88786e-06
9.32938e-10
2.88786e-06
1.8588e-09
2.88788e-06
2.80361e-09
2.88783e-06
3.71761e-09
2.88791e-06
4.66639e-09
2.88781e-06
5.56771e-09
2.88795e-06
6.52961e-09
2.88777e-06
7.41263e-09
2.88801e-06
8.4067e-09
2.88769e-06
9.26922e-09
2.88807e-06
1.02798e-08
2.88764e-06
1.11165e-08
2.88815e-06
1.21604e-08
2.88754e-06
1.2939e-08
2.8883e-06
1.40438e-08
2.88736e-06
1.47484e-08
2.88851e-06
1.59382e-08
2.88711e-06
1.65305e-08
2.88882e-06
1.7819e-08
2.8868e-06
1.82761e-08
2.88922e-06
1.97806e-08
2.88619e-06
2.047e-08
2.88905e-06
2.36133e-08
2.88285e-06
3.52841e-08
2.86863e-06
2.84777e-06
-3.94293e-08
2.8305e-06
-2.73926e-08
2.85549e-06
-2.42612e-08
2.87861e-06
-2.3068e-08
2.88674e-06
-2.16088e-08
2.88362e-06
-2.08194e-08
2.88733e-06
-1.95142e-08
2.88439e-06
-1.86482e-08
2.88685e-06
-1.73955e-08
2.88476e-06
-1.64504e-08
2.88646e-06
-1.52477e-08
2.88505e-06
-1.42565e-08
2.88622e-06
-1.3091e-08
2.88526e-06
-1.20573e-08
2.88601e-06
-1.09138e-08
2.8854e-06
-9.86247e-09
2.88592e-06
-8.72737e-09
2.88545e-06
-7.66517e-09
2.88584e-06
-6.55226e-09
2.88556e-06
-5.47808e-09
2.88577e-06
-4.37305e-09
2.8856e-06
-3.28981e-09
2.88573e-06
-2.18652e-09
2.88562e-06
-1.09549e-09
2.88569e-06
-8.50729e-15
2.88566e-06
1.09541e-09
2.88566e-06
2.18642e-09
2.88569e-06
3.28961e-09
2.88562e-06
4.37269e-09
2.88573e-06
5.4777e-09
2.8856e-06
6.55205e-09
2.88577e-06
7.66525e-09
2.88555e-06
8.72803e-09
2.88584e-06
9.86254e-09
2.88545e-06
1.09129e-08
2.88592e-06
1.20576e-08
2.8854e-06
1.30909e-08
2.88601e-06
1.4255e-08
2.88527e-06
1.52485e-08
2.88621e-06
1.64501e-08
2.88505e-06
1.73939e-08
2.88646e-06
1.86475e-08
2.88475e-06
1.95142e-08
2.88685e-06
2.08187e-08
2.88439e-06
2.16095e-08
2.88732e-06
2.30687e-08
2.88363e-06
2.42625e-08
2.88674e-06
2.73939e-08
2.8786e-06
3.94298e-08
2.8555e-06
2.8305e-06
-4.31578e-08
2.81566e-06
-3.1481e-08
2.84333e-06
-2.81866e-08
2.87481e-06
-2.66383e-08
2.8847e-06
-2.50934e-08
2.88158e-06
-2.4058e-08
2.8858e-06
-2.26462e-08
2.88249e-06
-2.15615e-08
2.88528e-06
-2.01798e-08
2.88289e-06
-1.90304e-08
2.88482e-06
-1.76836e-08
2.88321e-06
-1.64968e-08
2.88454e-06
-1.51772e-08
2.88346e-06
-1.39565e-08
2.8843e-06
-1.26522e-08
2.88361e-06
-1.14174e-08
2.88419e-06
-1.01191e-08
2.88367e-06
-8.87623e-09
2.88411e-06
-7.59484e-09
2.88378e-06
-6.34301e-09
2.88403e-06
-5.06743e-09
2.88383e-06
-3.80829e-09
2.88397e-06
-2.5338e-09
2.88385e-06
-1.26862e-09
2.88393e-06
-2.45674e-14
2.8839e-06
1.26852e-09
2.8839e-06
2.53368e-09
2.88393e-06
3.8081e-09
2.88385e-06
5.0671e-09
2.88397e-06
6.34264e-09
2.88383e-06
7.59463e-09
2.88403e-06
8.8763e-09
2.88378e-06
1.01196e-08
2.88411e-06
1.14174e-08
2.88367e-06
1.26515e-08
2.8842e-06
1.39567e-08
2.88361e-06
1.5177e-08
2.8843e-06
1.64957e-08
2.88346e-06
1.76842e-08
2.88453e-06
1.903e-08
2.88321e-06
2.01785e-08
2.88482e-06
2.15609e-08
2.88288e-06
2.26462e-08
2.88528e-06
2.40573e-08
2.88249e-06
2.5094e-08
2.8858e-06
2.66391e-08
2.88159e-06
2.81876e-08
2.8847e-06
3.14822e-08
2.87481e-06
4.31585e-08
2.84334e-06
2.81565e-06
-4.69465e-08
2.80233e-06
-3.58531e-08
2.832e-06
-3.23434e-08
2.87106e-06
-3.0487e-08
2.8826e-06
-2.8804e-08
2.87966e-06
-2.75432e-08
2.8843e-06
-2.5986e-08
2.88069e-06
-2.46923e-08
2.88375e-06
-2.31514e-08
2.88111e-06
-2.18001e-08
2.88323e-06
-2.0285e-08
2.88146e-06
-1.89004e-08
2.88292e-06
-1.74065e-08
2.88172e-06
-1.59928e-08
2.88265e-06
-1.45101e-08
2.88189e-06
-1.30842e-08
2.88253e-06
-1.16063e-08
2.88195e-06
-1.01737e-08
2.88244e-06
-8.70952e-09
2.88208e-06
-7.26974e-09
2.88235e-06
-5.81016e-09
2.88213e-06
-4.36403e-09
2.88229e-06
-2.90523e-09
2.88216e-06
-1.45406e-09
2.88224e-06
-3.44975e-14
2.88221e-06
1.45396e-09
2.88221e-06
2.9051e-09
2.88224e-06
4.36384e-09
2.88216e-06
5.80985e-09
2.88229e-06
7.26937e-09
2.88213e-06
8.70931e-09
2.88235e-06
1.01738e-08
2.88208e-06
1.16066e-08
2.88243e-06
1.30843e-08
2.88195e-06
1.45096e-08
2.88254e-06
1.59929e-08
2.88189e-06
1.74063e-08
2.88265e-06
1.88995e-08
2.88173e-06
2.02855e-08
2.88291e-06
2.17996e-08
2.88146e-06
2.31503e-08
2.88324e-06
2.46917e-08
2.8811e-06
2.5986e-08
2.88374e-06
2.75425e-08
2.88069e-06
2.88046e-08
2.88429e-06
3.04879e-08
2.87966e-06
3.23443e-08
2.8826e-06
3.58542e-08
2.87105e-06
4.69473e-08
2.832e-06
2.80233e-06
-5.08971e-08
2.79011e-06
-4.04423e-08
2.82142e-06
-3.67021e-08
2.8672e-06
-3.45594e-08
2.88034e-06
-3.27101e-08
2.87769e-06
-3.12286e-08
2.88271e-06
-2.95038e-08
2.87885e-06
-2.80006e-08
2.88213e-06
-2.62825e-08
2.87928e-06
-2.47255e-08
2.88156e-06
-2.30267e-08
2.87965e-06
-2.14386e-08
2.88122e-06
-1.97567e-08
2.87993e-06
-1.81425e-08
2.88093e-06
-1.64689e-08
2.88011e-06
-1.48437e-08
2.88079e-06
-1.3174e-08
2.88017e-06
-1.1543e-08
2.8807e-06
-9.88489e-09
2.88031e-06
-8.24778e-09
2.8806e-06
-6.59348e-09
2.88037e-06
-4.95066e-09
2.88053e-06
-3.29694e-09
2.88039e-06
-1.64975e-09
2.88048e-06
-4.28444e-14
2.88045e-06
1.64963e-09
2.88045e-06
3.29681e-09
2.88048e-06
4.95046e-09
2.88039e-06
6.59319e-09
2.88053e-06
8.24742e-09
2.88037e-06
9.88469e-09
2.8806e-06
1.15431e-08
2.88031e-06
1.31743e-08
2.88069e-06
1.48437e-08
2.88017e-06
1.64685e-08
2.8808e-06
1.81425e-08
2.8801e-06
1.97564e-08
2.88093e-06
2.14378e-08
2.87994e-06
2.30271e-08
2.88121e-06
2.4725e-08
2.87965e-06
2.62815e-08
2.88157e-06
2.80001e-08
2.87927e-06
2.95038e-08
2.88213e-06
3.12279e-08
2.87886e-06
3.27107e-08
2.8827e-06
3.45604e-08
2.8777e-06
3.67029e-08
2.88034e-06
4.04433e-08
2.86719e-06
5.0898e-08
2.82143e-06
2.7901e-06
-5.49858e-08
2.77878e-06
-4.5169e-08
2.81155e-06
-4.12013e-08
2.86318e-06
-3.87874e-08
2.87788e-06
-3.67554e-08
2.87562e-06
-3.50539e-08
2.88097e-06
-3.3148e-08
2.87691e-06
-3.14333e-08
2.88038e-06
-2.95266e-08
2.87733e-06
-2.776e-08
2.87975e-06
-2.58677e-08
2.87771e-06
-2.40711e-08
2.87938e-06
-2.21922e-08
2.87801e-06
-2.03718e-08
2.87907e-06
-1.84991e-08
2.8782e-06
-1.66683e-08
2.87892e-06
-1.47987e-08
2.87826e-06
-1.29629e-08
2.87882e-06
-1.11031e-08
2.87841e-06
-9.26191e-09
2.87871e-06
-7.40543e-09
2.87847e-06
-5.55898e-09
2.87864e-06
-3.70297e-09
2.87849e-06
-1.85264e-09
2.87859e-06
-5.06394e-14
2.87855e-06
1.85251e-09
2.87855e-06
3.70282e-09
2.87859e-06
5.55878e-09
2.87849e-06
7.40514e-09
2.87865e-06
9.26156e-09
2.87847e-06
1.11029e-08
2.87871e-06
1.29629e-08
2.8784e-06
1.47989e-08
2.87882e-06
1.66683e-08
2.87826e-06
1.84987e-08
2.87893e-06
2.03718e-08
2.87819e-06
2.2192e-08
2.87907e-06
2.40705e-08
2.87802e-06
2.5868e-08
2.87937e-06
2.77594e-08
2.87772e-06
2.95257e-08
2.87976e-06
3.14328e-08
2.87733e-06
3.3148e-08
2.88038e-06
3.50532e-08
2.87691e-06
3.6756e-08
2.88095e-06
3.87885e-08
2.87562e-06
4.1202e-08
2.87788e-06
4.51699e-08
2.86317e-06
5.49868e-08
2.81156e-06
2.77877e-06
-5.91739e-08
2.76821e-06
-4.99723e-08
2.80234e-06
-4.5789e-08
2.85898e-06
-4.31176e-08
2.8752e-06
-4.08928e-08
2.87339e-06
-3.89716e-08
2.87904e-06
-3.6876e-08
2.87481e-06
-3.4948e-08
2.87845e-06
-3.28455e-08
2.87523e-06
-3.08664e-08
2.87777e-06
-2.87743e-08
2.87562e-06
-2.67659e-08
2.87737e-06
-2.46843e-08
2.87593e-06
-2.26538e-08
2.87704e-06
-2.05763e-08
2.87612e-06
-1.8536e-08
2.87688e-06
-1.64611e-08
2.87619e-06
-1.44161e-08
2.87677e-06
-1.23497e-08
2.87634e-06
-1.02999e-08
2.87666e-06
-8.2363e-09
2.8764e-06
-6.18164e-09
2.87659e-06
-4.11845e-09
2.87643e-06
-2.06029e-09
2.87653e-06
-5.74914e-14
2.87649e-06
2.06015e-09
2.87649e-06
4.1183e-09
2.87653e-06
6.18143e-09
2.87643e-06
8.23602e-09
2.87659e-06
1.02995e-08
2.8764e-06
1.23495e-08
2.87666e-06
1.44161e-08
2.87634e-06
1.64613e-08
2.87677e-06
1.8536e-08
2.87619e-06
2.05761e-08
2.87689e-06
2.26536e-08
2.87611e-06
2.4684e-08
2.87704e-06
2.67654e-08
2.87594e-06
2.87745e-08
2.87736e-06
3.08658e-08
2.87563e-06
3.28447e-08
2.87778e-06
3.49476e-08
2.87522e-06
3.6876e-08
2.87845e-06
3.89709e-08
2.87482e-06
4.08933e-08
2.87903e-06
4.31186e-08
2.87339e-06
4.57897e-08
2.8752e-06
4.99731e-08
2.85898e-06
5.9175e-08
2.80234e-06
2.76821e-06
-6.34333e-08
2.75831e-06
-5.48124e-08
2.79372e-06
-5.04298e-08
2.85461e-06
-4.75135e-08
2.8723e-06
-4.50898e-08
2.87098e-06
-4.29494e-08
2.87692e-06
-4.06583e-08
2.87254e-06
-3.85159e-08
2.87633e-06
-3.62128e-08
2.87295e-06
-3.40194e-08
2.8756e-06
-3.17235e-08
2.87335e-06
-2.95011e-08
2.87517e-06
-2.72129e-08
2.87366e-06
-2.49697e-08
2.87482e-06
-2.26841e-08
2.87386e-06
-2.04315e-08
2.87465e-06
-1.81479e-08
2.87392e-06
-1.58909e-08
2.87454e-06
-1.36146e-08
2.87408e-06
-1.13533e-08
2.87442e-06
-9.07942e-09
2.87415e-06
-6.81357e-09
2.87434e-06
-4.54006e-09
2.87417e-06
-2.27102e-09
2.87428e-06
-6.4047e-14
2.87424e-06
2.27087e-09
2.87424e-06
4.5399e-09
2.87428e-06
6.81336e-09
2.87417e-06
9.07915e-09
2.87434e-06
1.13529e-08
2.87415e-06
1.36144e-08
2.87442e-06
1.58909e-08
2.87408e-06
1.81481e-08
2.87453e-06
2.04314e-08
2.87393e-06
2.26839e-08
2.87466e-06
2.49695e-08
2.87385e-06
2.72126e-08
2.87482e-06
2.95006e-08
2.87367e-06
3.17236e-08
2.87516e-06
3.40188e-08
2.87336e-06
3.62121e-08
2.87561e-06
3.85155e-08
2.87294e-06
4.06583e-08
2.87633e-06
4.29487e-08
2.87255e-06
4.50903e-08
2.87691e-06
4.75145e-08
2.87099e-06
5.04304e-08
2.8723e-06
5.48132e-08
2.8546e-06
6.34345e-08
2.79372e-06
2.7583e-06
-6.77461e-08
2.749e-06
-5.96651e-08
2.78565e-06
-5.51002e-08
2.85007e-06
-5.19512e-08
2.86917e-06
-4.93249e-08
2.86839e-06
-4.69661e-08
2.8746e-06
-4.44754e-08
2.87009e-06
-4.2118e-08
2.87401e-06
-3.96112e-08
2.87048e-06
-3.72023e-08
2.87323e-06
-3.46998e-08
2.87088e-06
-3.22622e-08
2.87277e-06
-2.9765e-08
2.8712e-06
-2.73076e-08
2.8724e-06
-2.48115e-08
2.87139e-06
-2.23449e-08
2.87222e-06
-1.98504e-08
2.87146e-06
-1.73796e-08
2.8721e-06
-1.48913e-08
2.87163e-06
-1.24166e-08
2.87198e-06
-9.9304e-09
2.87169e-06
-7.45147e-09
2.8719e-06
-4.9656e-09
2.87172e-06
-2.48373e-09
2.87183e-06
-7.0086e-14
2.87179e-06
2.48358e-09
2.87179e-06
4.96544e-09
2.87183e-06
7.45125e-09
2.87172e-06
9.93014e-09
2.8719e-06
1.24162e-08
2.8717e-06
1.48911e-08
2.87198e-06
1.73796e-08
2.87163e-06
1.98505e-08
2.8721e-06
2.23448e-08
2.87147e-06
2.48114e-08
2.87223e-06
2.73073e-08
2.87139e-06
2.97647e-08
2.8724e-06
3.22618e-08
2.87121e-06
3.46999e-08
2.87276e-06
3.72017e-08
2.87089e-06
3.96106e-08
2.87324e-06
4.21177e-08
2.87047e-06
4.44754e-08
2.874e-06
4.69654e-08
2.87009e-06
4.93254e-08
2.87458e-06
5.19522e-08
2.86839e-06
5.51008e-08
2.86917e-06
5.96659e-08
2.85006e-06
6.77474e-08
2.78566e-06
2.749e-06
-7.2101e-08
2.74021e-06
-6.45161e-08
2.77808e-06
-5.97856e-08
2.84536e-06
-5.64152e-08
2.86584e-06
-5.35841e-08
2.86559e-06
-5.10079e-08
2.87206e-06
-4.83147e-08
2.86743e-06
-4.57421e-08
2.87148e-06
-4.30293e-08
2.86781e-06
-4.04044e-08
2.87064e-06
-3.76936e-08
2.86821e-06
-3.50399e-08
2.87016e-06
-3.23321e-08
2.86853e-06
-2.96594e-08
2.86976e-06
-2.69514e-08
2.86873e-06
-2.42697e-08
2.86958e-06
-2.15629e-08
2.8688e-06
-1.88771e-08
2.86945e-06
-1.61755e-08
2.86896e-06
-1.34862e-08
2.86933e-06
-1.07864e-08
2.86903e-06
-8.09318e-09
2.86924e-06
-5.39365e-09
2.86906e-06
-2.69771e-09
2.86918e-06
-7.5542e-14
2.86913e-06
2.69754e-09
2.86913e-06
5.39348e-09
2.86918e-06
8.09295e-09
2.86906e-06
1.07861e-08
2.86924e-06
1.34859e-08
2.86903e-06
1.61753e-08
2.86933e-06
1.88771e-08
2.86896e-06
2.15629e-08
2.86945e-06
2.42697e-08
2.8688e-06
2.69513e-08
2.86959e-06
2.96591e-08
2.86872e-06
3.23317e-08
2.86976e-06
3.50396e-08
2.86854e-06
3.76936e-08
2.87014e-06
4.04038e-08
2.86822e-06
4.30288e-08
2.87065e-06
4.57418e-08
2.8678e-06
4.83147e-08
2.87147e-06
5.10073e-08
2.86744e-06
5.35846e-08
2.87204e-06
5.64162e-08
2.86559e-06
5.97862e-08
2.86584e-06
6.45169e-08
2.84536e-06
7.21023e-08
2.77809e-06
2.74021e-06
-7.64838e-08
2.7319e-06
-6.93512e-08
2.77097e-06
-6.44708e-08
2.84052e-06
-6.08898e-08
2.8623e-06
-5.7853e-08
2.8626e-06
-5.50608e-08
2.86932e-06
-5.21634e-08
2.86458e-06
-4.93756e-08
2.86874e-06
-4.64558e-08
2.86494e-06
-4.36146e-08
2.86785e-06
-4.06946e-08
2.86534e-06
-3.78247e-08
2.86734e-06
-3.49054e-08
2.86566e-06
-3.20172e-08
2.86692e-06
-2.90965e-08
2.86586e-06
-2.61994e-08
2.86673e-06
-2.32795e-08
2.86592e-06
-2.03784e-08
2.8666e-06
-1.74628e-08
2.8661e-06
-1.45585e-08
2.86647e-06
-1.16445e-08
2.86617e-06
-8.7365e-09
2.86638e-06
-5.82275e-09
2.86619e-06
-2.91222e-09
2.86631e-06
-8.06379e-14
2.86627e-06
2.91204e-09
2.86627e-06
5.82257e-09
2.86631e-06
8.73627e-09
2.86619e-06
1.16442e-08
2.86638e-06
1.45582e-08
2.86617e-06
1.74626e-08
2.86647e-06
2.03784e-08
2.86609e-06
2.32795e-08
2.8666e-06
2.61994e-08
2.86593e-06
2.90965e-08
2.86674e-06
3.20169e-08
2.86585e-06
3.4905e-08
2.86693e-06
3.78244e-08
2.86567e-06
4.06946e-08
2.86732e-06
4.3614e-08
2.86535e-06
4.64553e-08
2.86786e-06
4.93754e-08
2.86493e-06
5.21633e-08
2.86873e-06
5.50602e-08
2.86459e-06
5.78535e-08
2.8693e-06
6.08907e-08
2.8626e-06
6.44714e-08
2.8623e-06
6.93521e-08
2.84051e-06
7.64852e-08
2.77098e-06
2.7319e-06
-8.09009e-08
2.72401e-06
-7.41762e-08
2.76427e-06
-6.91593e-08
2.83553e-06
-6.53771e-08
2.85856e-06
-6.2134e-08
2.8594e-06
-5.91269e-08
2.86636e-06
-5.60235e-08
2.86153e-06
-5.30205e-08
2.86578e-06
-4.98924e-08
2.86186e-06
-4.68348e-08
2.86484e-06
-4.37045e-08
2.86225e-06
-4.0618e-08
2.8643e-06
-3.74864e-08
2.86258e-06
-3.43822e-08
2.86387e-06
-3.12481e-08
2.86277e-06
-2.81351e-08
2.86367e-06
-2.50012e-08
2.86284e-06
-2.18843e-08
2.86353e-06
-1.8754e-08
2.86301e-06
-1.56341e-08
2.8634e-06
-1.25052e-08
2.86308e-06
-9.38179e-09
2.8633e-06
-6.25313e-09
2.86311e-06
-3.12737e-09
2.86323e-06
-8.54898e-14
2.86319e-06
3.12719e-09
2.86319e-06
6.25295e-09
2.86323e-06
9.38155e-09
2.86311e-06
1.25049e-08
2.8633e-06
1.56338e-08
2.86309e-06
1.87538e-08
2.8634e-06
2.18843e-08
2.86301e-06
2.50012e-08
2.86353e-06
2.8135e-08
2.86284e-06
3.12481e-08
2.86367e-06
3.43818e-08
2.86276e-06
3.7486e-08
2.86387e-06
4.06178e-08
2.86259e-06
4.37044e-08
2.86428e-06
4.68341e-08
2.86227e-06
4.9892e-08
2.86485e-06
5.30203e-08
2.86185e-06
5.60233e-08
2.86578e-06
5.91264e-08
2.86154e-06
6.21345e-08
2.86634e-06
6.53779e-08
2.8594e-06
6.91599e-08
2.85856e-06
7.41771e-08
2.83553e-06
8.09023e-08
2.76428e-06
2.72401e-06
-8.53419e-08
2.71649e-06
-7.89825e-08
2.75794e-06
-7.38409e-08
2.83043e-06
-6.9866e-08
2.85462e-06
-6.64171e-08
2.856e-06
-6.31965e-08
2.86319e-06
-5.9886e-08
2.85827e-06
-5.6668e-08
2.86261e-06
-5.33311e-08
2.85857e-06
-5.00573e-08
2.86162e-06
-4.67162e-08
2.85896e-06
-4.34134e-08
2.86104e-06
-4.0069e-08
2.85928e-06
-3.67488e-08
2.8606e-06
-3.3401e-08
2.85947e-06
-3.0072e-08
2.86039e-06
-2.6724e-08
2.85954e-06
-2.33912e-08
2.86025e-06
-2.0046e-08
2.85972e-06
-1.67104e-08
2.86011e-06
-1.33664e-08
2.85979e-06
-1.00275e-08
2.86001e-06
-6.68379e-09
2.85982e-06
-3.34267e-09
2.85994e-06
-9.01763e-14
2.85989e-06
3.34248e-09
2.85989e-06
6.68361e-09
2.85994e-06
1.00273e-08
2.85982e-06
1.33662e-08
2.86001e-06
1.67101e-08
2.85979e-06
2.00458e-08
2.86011e-06
2.33912e-08
2.85971e-06
2.6724e-08
2.86024e-06
3.00719e-08
2.85954e-06
3.3401e-08
2.86039e-06
3.67484e-08
2.85947e-06
4.00686e-08
2.8606e-06
4.34132e-08
2.85929e-06
4.67162e-08
2.86103e-06
5.00566e-08
2.85897e-06
5.33308e-08
2.86162e-06
5.66678e-08
2.85856e-06
5.98858e-08
2.86261e-06
6.31961e-08
2.85827e-06
6.64175e-08
2.86316e-06
6.98667e-08
2.856e-06
7.38415e-08
2.85462e-06
7.89834e-08
2.83042e-06
8.53433e-08
2.75794e-06
2.7165e-06
-8.98021e-08
2.7093e-06
-8.37681e-08
2.75193e-06
-7.85121e-08
2.82521e-06
-7.43523e-08
2.85051e-06
-7.06984e-08
2.85239e-06
-6.72659e-08
2.8598e-06
-6.37474e-08
2.8548e-06
-6.03148e-08
2.85923e-06
-5.67689e-08
2.85507e-06
-5.32792e-08
2.85818e-06
-4.97272e-08
2.85546e-06
-4.62082e-08
2.85758e-06
-4.26509e-08
2.85578e-06
-3.91149e-08
2.85711e-06
-3.55532e-08
2.85596e-06
-3.20085e-08
2.85689e-06
-2.84463e-08
2.85603e-06
-2.48977e-08
2.85675e-06
-2.13377e-08
2.85621e-06
-1.77864e-08
2.85661e-06
-1.42274e-08
2.85628e-06
-1.06731e-08
2.85651e-06
-7.11433e-09
2.85631e-06
-3.55791e-09
2.85643e-06
-9.47623e-14
2.85638e-06
3.55771e-09
2.85638e-06
7.11414e-09
2.85643e-06
1.06728e-08
2.85631e-06
1.42272e-08
2.85651e-06
1.77861e-08
2.85628e-06
2.13375e-08
2.85661e-06
2.48977e-08
2.8562e-06
2.84462e-08
2.85674e-06
3.20084e-08
2.85603e-06
3.55533e-08
2.8569e-06
3.91145e-08
2.85596e-06
4.26505e-08
2.85711e-06
4.6208e-08
2.85579e-06
4.9727e-08
2.85756e-06
5.32785e-08
2.85547e-06
5.67686e-08
2.85818e-06
6.03146e-08
2.85507e-06
6.37472e-08
2.85923e-06
6.72655e-08
2.85481e-06
7.06988e-08
2.85978e-06
7.43529e-08
2.85239e-06
7.85128e-08
2.85051e-06
8.3769e-08
2.8252e-06
8.98035e-08
2.75194e-06
2.70931e-06
-9.42848e-08
2.7024e-06
-8.85375e-08
2.74621e-06
-8.31755e-08
2.81988e-06
-7.88376e-08
2.84621e-06
-7.49795e-08
2.84858e-06
-7.13362e-08
2.85621e-06
-6.76093e-08
2.85112e-06
-6.39621e-08
2.85564e-06
-6.02069e-08
2.85137e-06
-5.65016e-08
2.85453e-06
-5.27383e-08
2.85175e-06
-4.90033e-08
2.85389e-06
-4.5233e-08
2.85206e-06
-4.14813e-08
2.85341e-06
-3.77057e-08
2.85224e-06
-3.39452e-08
2.85318e-06
-3.01688e-08
2.8523e-06
-2.64044e-08
2.85303e-06
-2.26294e-08
2.85248e-06
-1.88626e-08
2.85289e-06
-1.50885e-08
2.85255e-06
-1.13188e-08
2.85279e-06
-7.5449e-09
2.85258e-06
-3.77318e-09
2.85271e-06
-9.93021e-14
2.85266e-06
3.77297e-09
2.85266e-06
7.54471e-09
2.85271e-06
1.13185e-08
2.85258e-06
1.50883e-08
2.85279e-06
1.88623e-08
2.85255e-06
2.26292e-08
2.85289e-06
2.64044e-08
2.85248e-06
3.01687e-08
2.85303e-06
3.39451e-08
2.8523e-06
3.77058e-08
2.85319e-06
4.14809e-08
2.85223e-06
4.52326e-08
2.85341e-06
4.90033e-08
2.85206e-06
5.27381e-08
2.85387e-06
5.65008e-08
2.85176e-06
6.02067e-08
2.85453e-06
6.39619e-08
2.85136e-06
6.7609e-08
2.85563e-06
7.1336e-08
2.85113e-06
7.49799e-08
2.85619e-06
7.88381e-08
2.84858e-06
8.31762e-08
2.84621e-06
8.85384e-08
2.81987e-06
9.42862e-08
2.74621e-06
2.70241e-06
-9.87828e-08
2.69575e-06
-9.32864e-08
2.74074e-06
-8.78255e-08
2.81446e-06
-8.33157e-08
2.84174e-06
-7.92547e-08
2.84457e-06
-7.54021e-08
2.8524e-06
-7.14662e-08
2.84724e-06
-6.76049e-08
2.85183e-06
-6.36405e-08
2.84746e-06
-5.97201e-08
2.85065e-06
-5.57456e-08
2.84782e-06
-5.17951e-08
2.84999e-06
-4.78119e-08
2.84812e-06
-4.38448e-08
2.84949e-06
-3.98554e-08
2.8483e-06
-3.58796e-08
2.84926e-06
-3.1889e-08
2.84836e-06
-2.79092e-08
2.8491e-06
-2.39196e-08
2.84854e-06
-1.99374e-08
2.84896e-06
-1.59485e-08
2.84861e-06
-1.19636e-08
2.84885e-06
-7.97493e-09
2.84864e-06
-3.98817e-09
2.84877e-06
-1.03826e-13
2.84872e-06
3.98795e-09
2.84872e-06
7.97474e-09
2.84877e-06
1.19633e-08
2.84864e-06
1.59483e-08
2.84885e-06
1.99371e-08
2.84861e-06
2.39194e-08
2.84895e-06
2.79092e-08
2.84853e-06
3.18889e-08
2.8491e-06
3.58795e-08
2.84836e-06
3.98555e-08
2.84926e-06
4.38444e-08
2.84829e-06
4.78115e-08
2.84949e-06
5.17951e-08
2.84813e-06
5.57454e-08
2.84997e-06
5.97194e-08
2.84784e-06
6.36404e-08
2.85066e-06
6.76048e-08
2.84745e-06
7.1466e-08
2.85182e-06
7.5402e-08
2.84724e-06
7.9255e-08
2.85238e-06
8.33161e-08
2.84457e-06
8.78262e-08
2.84174e-06
9.32873e-08
2.81445e-06
9.87842e-08
2.74074e-06
2.69576e-06
-1.03298e-07
2.68932e-06
-9.80189e-08
2.73548e-06
-9.24643e-08
2.80894e-06
-8.77879e-08
2.83711e-06
-8.35251e-08
2.84035e-06
-7.94645e-08
2.84839e-06
-7.53195e-08
2.84314e-06
-7.12444e-08
2.8478e-06
-6.70709e-08
2.84333e-06
-6.29357e-08
2.84657e-06
-5.875e-08
2.84369e-06
-5.45844e-08
2.84587e-06
-5.03882e-08
2.84398e-06
-4.62061e-08
2.84536e-06
-4.20031e-08
2.84414e-06
-3.78121e-08
2.84511e-06
-3.36076e-08
2.8442e-06
-2.94126e-08
2.84495e-06
-2.52085e-08
2.84438e-06
-2.10112e-08
2.84481e-06
-1.68077e-08
2.84445e-06
-1.26079e-08
2.8447e-06
-8.40454e-09
2.84448e-06
-4.20295e-09
2.84462e-06
-1.08361e-13
2.84456e-06
4.20273e-09
2.84456e-06
8.40434e-09
2.84462e-06
1.26076e-08
2.84448e-06
1.68074e-08
2.8447e-06
2.10109e-08
2.84446e-06
2.52082e-08
2.8448e-06
2.94126e-08
2.84438e-06
3.36074e-08
2.84495e-06
3.7812e-08
2.8442e-06
4.20032e-08
2.84512e-06
4.62057e-08
2.84414e-06
5.03878e-08
2.84536e-06
5.45843e-08
2.84398e-06
5.87498e-08
2.84586e-06
6.2935e-08
2.8437e-06
6.70708e-08
2.84657e-06
7.12442e-08
2.84332e-06
7.53192e-08
2.84779e-06
7.94645e-08
2.84315e-06
8.35254e-08
2.84837e-06
8.77882e-08
2.84035e-06
9.24651e-08
2.83711e-06
9.80198e-08
2.80893e-06
1.033e-07
2.73549e-06
2.68932e-06
-1.07826e-07
2.68307e-06
-1.02732e-07
2.73041e-06
-9.70886e-08
2.80333e-06
-9.22503e-08
2.83231e-06
-8.77872e-08
2.83593e-06
-8.35199e-08
2.84417e-06
-7.91658e-08
2.83883e-06
-7.48772e-08
2.84356e-06
-7.04949e-08
2.839e-06
-6.61456e-08
2.84227e-06
-6.17488e-08
2.83934e-06
-5.73686e-08
2.84154e-06
-5.29598e-08
2.83961e-06
-4.85632e-08
2.84101e-06
-4.41467e-08
2.83977e-06
-3.97412e-08
2.84075e-06
-3.53229e-08
2.83983e-06
-3.09133e-08
2.84059e-06
-2.6495e-08
2.84001e-06
-2.20831e-08
2.84044e-06
-1.76652e-08
2.84008e-06
-1.32509e-08
2.84033e-06
-8.83335e-09
2.84011e-06
-4.41734e-09
2.84025e-06
-1.12921e-13
2.84019e-06
4.41711e-09
2.84019e-06
8.83315e-09
2.84025e-06
1.32507e-08
2.84011e-06
1.7665e-08
2.84033e-06
2.20828e-08
2.84008e-06
2.64947e-08
2.84044e-06
3.09132e-08
2.84e-06
3.53228e-08
2.84059e-06
3.9741e-08
2.83983e-06
4.41469e-08
2.84076e-06
4.85627e-08
2.83977e-06
5.29594e-08
2.84101e-06
5.73686e-08
2.83962e-06
6.17486e-08
2.84152e-06
6.61449e-08
2.83935e-06
7.04948e-08
2.84227e-06
7.4877e-08
2.83899e-06
7.91655e-08
2.84355e-06
8.352e-08
2.83884e-06
8.77875e-08
2.84415e-06
9.22506e-08
2.83593e-06
9.70894e-08
2.83231e-06
1.02733e-07
2.80332e-06
1.07828e-07
2.73042e-06
2.68308e-06
-1.12367e-07
2.67699e-06
-1.07429e-07
2.7255e-06
-1.01699e-07
2.79763e-06
-9.67028e-08
2.82735e-06
-9.20409e-08
2.83131e-06
-8.75681e-08
2.83974e-06
-8.30049e-08
2.83432e-06
-7.85032e-08
2.8391e-06
-7.39125e-08
2.83445e-06
-6.93496e-08
2.83775e-06
-6.4742e-08
2.83478e-06
-6.01476e-08
2.83699e-06
-5.55266e-08
2.83504e-06
-5.09158e-08
2.83645e-06
-4.62864e-08
2.83519e-06
-4.16666e-08
2.83618e-06
-3.70351e-08
2.83525e-06
-3.24111e-08
2.83601e-06
-2.77791e-08
2.83542e-06
-2.31529e-08
2.83586e-06
-1.85212e-08
2.8355e-06
-1.38928e-08
2.83574e-06
-9.26136e-09
2.83553e-06
-4.63133e-09
2.83566e-06
-1.17515e-13
2.83561e-06
4.63109e-09
2.83561e-06
9.26115e-09
2.83566e-06
1.38925e-08
2.83553e-06
1.8521e-08
2.83575e-06
2.31527e-08
2.8355e-06
2.77788e-08
2.83586e-06
3.2411e-08
2.83542e-06
3.70349e-08
2.83601e-06
4.16664e-08
2.83525e-06
4.62865e-08
2.83619e-06
5.09154e-08
2.83519e-06
5.55262e-08
2.83645e-06
6.01477e-08
2.83505e-06
6.47418e-08
2.83698e-06
6.93489e-08
2.83479e-06
7.39125e-08
2.83775e-06
7.85031e-08
2.83444e-06
8.30046e-08
2.8391e-06
8.75682e-08
2.83432e-06
9.20412e-08
2.83972e-06
9.6703e-08
2.83131e-06
1.017e-07
2.82735e-06
1.0743e-07
2.79762e-06
1.12368e-07
2.7255e-06
2.67699e-06
-1.1692e-07
2.67103e-06
-1.12112e-07
2.72071e-06
-1.06297e-07
2.79185e-06
-1.01146e-07
2.82224e-06
-9.62869e-08
2.8265e-06
-9.16096e-08
2.83511e-06
-8.68376e-08
2.82959e-06
-8.21232e-08
2.83444e-06
-7.73244e-08
2.8297e-06
-7.25483e-08
2.83302e-06
-6.77302e-08
2.83e-06
-6.29221e-08
2.83223e-06
-5.8089e-08
2.83025e-06
-5.32645e-08
2.83167e-06
-4.84224e-08
2.83039e-06
-4.35888e-08
2.83139e-06
-3.87443e-08
2.83045e-06
-3.39064e-08
2.83122e-06
-2.90609e-08
2.83062e-06
-2.4221e-08
2.83106e-06
-1.93757e-08
2.8307e-06
-1.45336e-08
2.83095e-06
-9.68863e-09
2.83073e-06
-4.84495e-09
2.83086e-06
-1.22154e-13
2.83081e-06
4.8447e-09
2.83081e-06
9.68842e-09
2.83086e-06
1.45333e-08
2.83073e-06
1.93755e-08
2.83095e-06
2.42207e-08
2.8307e-06
2.90607e-08
2.83106e-06
3.39063e-08
2.83062e-06
3.8744e-08
2.83121e-06
4.35886e-08
2.83045e-06
4.84225e-08
2.8314e-06
5.32641e-08
2.83039e-06
5.80886e-08
2.83167e-06
6.29221e-08
2.83026e-06
6.77299e-08
2.83221e-06
7.25476e-08
2.83002e-06
7.73244e-08
2.83302e-06
8.21231e-08
2.82969e-06
8.68372e-08
2.83443e-06
9.16099e-08
2.8296e-06
9.62871e-08
2.83509e-06
1.01146e-07
2.82649e-06
1.06298e-07
2.82224e-06
1.12113e-07
2.79184e-06
1.16921e-07
2.72072e-06
2.67104e-06
-1.21483e-07
2.66519e-06
-1.16779e-07
2.71603e-06
-1.10881e-07
2.78598e-06
-1.05579e-07
2.81698e-06
-1.00523e-07
2.82148e-06
-9.56427e-08
2.83027e-06
-9.0662e-08
2.82466e-06
-8.57354e-08
2.82955e-06
-8.07288e-08
2.82474e-06
-7.57402e-08
2.82808e-06
-7.07118e-08
2.82502e-06
-6.56906e-08
2.82725e-06
-6.06458e-08
2.82525e-06
-5.56082e-08
2.82668e-06
-5.05537e-08
2.82538e-06
-4.55068e-08
2.82639e-06
-4.04497e-08
2.82543e-06
-3.53985e-08
2.82621e-06
-3.034e-08
2.8256e-06
-2.52867e-08
2.82605e-06
-2.02284e-08
2.82568e-06
-1.5173e-08
2.82593e-06
-1.0115e-08
2.82571e-06
-5.0581e-09
2.82585e-06
-1.26838e-13
2.82579e-06
5.05785e-09
2.82579e-06
1.01148e-08
2.82585e-06
1.51727e-08
2.82571e-06
2.02282e-08
2.82594e-06
2.52865e-08
2.82568e-06
3.03398e-08
2.82605e-06
3.53984e-08
2.8256e-06
4.04495e-08
2.82621e-06
4.55066e-08
2.82544e-06
5.05539e-08
2.82639e-06
5.56077e-08
2.82538e-06
6.06454e-08
2.82667e-06
6.56906e-08
2.82526e-06
7.07115e-08
2.82724e-06
7.57395e-08
2.82503e-06
8.07289e-08
2.82808e-06
8.57353e-08
2.82473e-06
9.06616e-08
2.82955e-06
9.5643e-08
2.82466e-06
1.00524e-07
2.83025e-06
1.05579e-07
2.82148e-06
1.10882e-07
2.81697e-06
1.1678e-07
2.78597e-06
1.21484e-07
2.71603e-06
2.66519e-06
-1.26055e-07
2.65943e-06
-1.21431e-07
2.71143e-06
-1.1545e-07
2.78003e-06
-1.09999e-07
2.81156e-06
-1.04749e-07
2.81627e-06
-9.96657e-08
2.82523e-06
-9.44769e-08
2.81951e-06
-8.93385e-08
2.82446e-06
-8.41248e-08
2.81957e-06
-7.89242e-08
2.82292e-06
-7.36859e-08
2.81982e-06
-6.84522e-08
2.82206e-06
-6.31962e-08
2.82004e-06
-5.79459e-08
2.82147e-06
-5.26796e-08
2.82016e-06
-4.742e-08
2.82117e-06
-4.21508e-08
2.82021e-06
-3.68868e-08
2.82099e-06
-3.16159e-08
2.82038e-06
-2.63498e-08
2.82083e-06
-2.10789e-08
2.82045e-06
-1.58108e-08
2.82071e-06
-1.05402e-08
2.82048e-06
-5.27072e-09
2.82062e-06
-1.31575e-13
2.82056e-06
5.27046e-09
2.82056e-06
1.054e-08
2.82062e-06
1.58105e-08
2.82048e-06
2.10787e-08
2.82071e-06
2.63495e-08
2.82045e-06
3.16157e-08
2.82083e-06
3.68866e-08
2.82037e-06
4.21506e-08
2.82099e-06
4.74198e-08
2.82021e-06
5.26798e-08
2.82118e-06
5.79455e-08
2.82016e-06
6.31958e-08
2.82147e-06
6.84523e-08
2.82004e-06
7.36856e-08
2.82205e-06
7.89235e-08
2.81984e-06
8.41248e-08
2.82292e-06
8.93384e-08
2.81956e-06
9.44765e-08
2.82446e-06
9.96661e-08
2.81951e-06
1.04749e-07
2.82521e-06
1.09999e-07
2.81627e-06
1.15451e-07
2.81156e-06
1.21432e-07
2.78002e-06
1.26056e-07
2.71143e-06
2.65943e-06
-1.30635e-07
2.65374e-06
-1.26071e-07
2.70689e-06
-1.20006e-07
2.774e-06
-1.14408e-07
2.806e-06
-1.08964e-07
2.81087e-06
-1.0368e-07
2.81999e-06
-9.82832e-08
2.81416e-06
-9.29337e-08
2.81915e-06
-8.7513e-08
2.81419e-06
-8.21011e-08
2.81755e-06
-7.66533e-08
2.81442e-06
-7.12076e-08
2.81666e-06
-6.57408e-08
2.81461e-06
-6.02784e-08
2.81605e-06
-5.48007e-08
2.81472e-06
-4.93289e-08
2.81574e-06
-4.38481e-08
2.81477e-06
-3.83717e-08
2.81555e-06
-3.28889e-08
2.81493e-06
-2.74104e-08
2.81539e-06
-2.19275e-08
2.81501e-06
-1.64472e-08
2.81527e-06
-1.09645e-08
2.81504e-06
-5.48285e-09
2.81518e-06
-1.36363e-13
2.81512e-06
5.48258e-09
2.81512e-06
1.09643e-08
2.81518e-06
1.64469e-08
2.81504e-06
2.19273e-08
2.81527e-06
2.74102e-08
2.81501e-06
3.28886e-08
2.81539e-06
3.83716e-08
2.81493e-06
4.38478e-08
2.81555e-06
4.93287e-08
2.81477e-06
5.48009e-08
2.81575e-06
6.0278e-08
2.81472e-06
6.57404e-08
2.81605e-06
7.12077e-08
2.81462e-06
7.6653e-08
2.81664e-06
8.21005e-08
2.81443e-06
8.75131e-08
2.81755e-06
9.29335e-08
2.81418e-06
9.82828e-08
2.81915e-06
1.0368e-07
2.81416e-06
1.08964e-07
2.81997e-06
1.14408e-07
2.81087e-06
1.20007e-07
2.80599e-06
1.26072e-07
2.77399e-06
1.30636e-07
2.70689e-06
2.65374e-06
-1.35221e-07
2.6481e-06
-1.30697e-07
2.70238e-06
-1.24548e-07
2.76788e-06
-1.18803e-07
2.80029e-06
-1.13168e-07
2.80527e-06
-1.07683e-07
2.81454e-06
-1.02079e-07
2.8086e-06
-9.6519e-08
2.81364e-06
-9.0892e-08
2.80861e-06
-8.52693e-08
2.81197e-06
-7.96125e-08
2.8088e-06
-7.39555e-08
2.81104e-06
-6.82783e-08