/*--------------------------------*- C++ -*----------------------------------*\
| =========                 |                                                 |
| \\      /  F ield         | OpenFOAM: The Open Source CFD Toolbox           |
|  \\    /   O peration     | Version:  dev                                   |
|   \\  /    A nd           | Web:      www.OpenFOAM.org                      |
|    \\/     M anipulation  |                                                 |
\*---------------------------------------------------------------------------*/
FoamFile
{
    version     2.0;
    format      ascii;
    class       volScalarField;
    location    "0.17";
    object      A1C2H*;
}
// * * * * * * * * * * * * * * * * * * * * * * * * * * * * * * * * * * * * * //

dimensions      [0 0 0 0 0 0 0];

internalField   nonuniform List<scalar> 
250
(
3.23429e-09
3.26503e-09
3.24204e-09
3.29543e-09
3.24537e-09
3.39452e-09
3.56553e-09
4.436e-09
7.74749e-09
1.62799e-08
3.02666e-09
3.05572e-09
3.0321e-09
3.08113e-09
3.03685e-09
3.17067e-09
3.32065e-09
4.11591e-09
7.18737e-09
1.62833e-08
7.68347e-09
6.40847e-09
3.71228e-09
3.08548e-09
2.9028e-09
2.86554e-09
2.86187e-09
2.85946e-09
2.85541e-09
2.85601e-09
2.84347e-09
2.8706e-09
2.84723e-09
2.89218e-09
2.85292e-09
2.97293e-09
3.10735e-09
3.82441e-09
6.67658e-09
1.58947e-08
6.90447e-09
5.59715e-09
3.43082e-09
2.8971e-09
2.73365e-09
2.69994e-09
2.69594e-09
2.69318e-09
2.69027e-09
2.6905e-09
2.6787e-09
2.70396e-09
2.68122e-09
2.72277e-09
2.68758e-09
2.79564e-09
2.91465e-09
3.5558e-09
6.16276e-09
1.51423e-08
6.16008e-09
4.87833e-09
3.1732e-09
2.72324e-09
2.57698e-09
2.5467e-09
2.54248e-09
2.53921e-09
2.53724e-09
2.53706e-09
2.52578e-09
2.54961e-09
2.52734e-09
2.56653e-09
2.53425e-09
2.63263e-09
2.73641e-09
3.30407e-09
5.64055e-09
1.40805e-08
5.45073e-09
4.30521e-09
2.93228e-09
2.55664e-09
2.42596e-09
2.39876e-09
2.3944e-09
2.39047e-09
2.3893e-09
2.38866e-09
2.37754e-09
2.40068e-09
2.37828e-09
2.41648e-09
2.38577e-09
2.47709e-09
2.56567e-09
3.06269e-09
5.11487e-09
1.27806e-08
4.7777e-09
3.7736e-09
2.69998e-09
2.38972e-09
2.27331e-09
2.24871e-09
2.24426e-09
2.23952e-09
2.23909e-09
2.23795e-09
2.22649e-09
2.24987e-09
2.22645e-09
2.26517e-09
2.23458e-09
2.32186e-09
2.395e-09
2.82488e-09
4.59903e-09
1.13265e-08
4.14519e-09
3.308e-09
2.46857e-09
2.21504e-09
2.11216e-09
2.08948e-09
2.08504e-09
2.07942e-09
2.07964e-09
2.07803e-09
2.06551e-09
2.09003e-09
2.06471e-09
2.10534e-09
2.07351e-09
2.1519e-09
2.21555e-09
2.5839e-09
4.09757e-09
9.67708e-09
3.55567e-09
2.87879e-09
2.23163e-09
2.02629e-09
1.93028e-09
1.91152e-09
1.90682e-09
1.89934e-09
1.90073e-09
1.89812e-09
1.88905e-09
1.91543e-09
1.88754e-09
1.93103e-09
1.89699e-09
1.97429e-09
2.02388e-09
2.33425e-09
3.57478e-09
8.14803e-09
3.01015e-09
2.47719e-09
1.98346e-09
1.82075e-09
1.73555e-09
1.71851e-09
1.71398e-09
1.70559e-09
1.7076e-09
1.70452e-09
1.69462e-09
1.72306e-09
1.69246e-09
1.73897e-09
1.70241e-09
1.77907e-09
1.8155e-09
2.07314e-09
3.04675e-09
6.67915e-09
2.50866e-09
2.09806e-09
1.72689e-09
1.59898e-09
1.52368e-09
1.50853e-09
1.50429e-09
1.49526e-09
1.49779e-09
1.49436e-09
1.48388e-09
1.51396e-09
1.48117e-09
1.52991e-09
1.49129e-09
1.56675e-09
1.59128e-09
1.80179e-09
2.57475e-09
5.2566e-09
2.0515e-09
1.74058e-09
1.4648e-09
1.36613e-09
1.30051e-09
1.28734e-09
1.28355e-09
1.27431e-09
1.27718e-09
1.27358e-09
1.2629e-09
1.2936e-09
1.25981e-09
1.30906e-09
1.26968e-09
1.34227e-09
1.35667e-09
1.52568e-09
2.11745e-09
4.06103e-09
1.64015e-09
1.40809e-09
1.20578e-09
1.1313e-09
1.07545e-09
1.06433e-09
1.06108e-09
1.05216e-09
1.05514e-09
1.05161e-09
1.04125e-09
1.07113e-09
1.03796e-09
1.08549e-09
1.04712e-09
1.11454e-09
1.12097e-09
1.25395e-09
1.69167e-09
3.04404e-09
8.29781e-10
8.57419e-10
8.26533e-10
8.70091e-10
8.34576e-10
8.94572e-10
8.95308e-10
9.97534e-10
1.31049e-09
2.21043e-09
)
;

boundaryField
{
    fuel
    {
        type            fixedValue;
        value           nonuniform 0();
    }
    wall
    {
        type            zeroGradient;
    }
    outlet
    {
        type            zeroGradient;
    }
    frontAndBack
    {
        type            empty;
    }
    procBoundary0to1
    {
        type            processor;
        value           nonuniform List<scalar> 
21
(
1.27736e-09
1.10654e-09
9.60404e-10
9.05622e-10
8.59572e-10
8.50451e-10
8.47829e-10
8.39696e-10
8.42571e-10
8.39313e-10
8.39313e-10
6.38197e-10
6.62483e-10
6.35186e-10
6.73095e-10
6.41889e-10
6.9285e-10
6.90064e-10
7.6655e-10
9.82832e-10
1.55424e-09
)
;
    }
    procBoundary0to2
    {
        type            processor;
        value           nonuniform List<scalar> 
12
(
3.24857e-09
8.56809e-09
7.28335e-09
4.02404e-09
3.29473e-09
3.0909e-09
3.04997e-09
3.04674e-09
3.04459e-09
3.03911e-09
3.04006e-09
3.04006e-09
)
;
    }
    procBoundary0to3
    {
        type            processor;
        value           nonuniform List<scalar> 10(3.47207e-09 3.50417e-09 3.48287e-09 3.5406e-09 3.48416e-09 3.64987e-09 3.83903e-09 4.82355e-09 8.26595e-09 1.58904e-08);
    }
}


// ************************************************************************* //
