/*--------------------------------*- C++ -*----------------------------------*\
| =========                 |                                                 |
| \\      /  F ield         | OpenFOAM: The Open Source CFD Toolbox           |
|  \\    /   O peration     | Version:  dev                                   |
|   \\  /    A nd           | Web:      www.OpenFOAM.org                      |
|    \\/     M anipulation  |                                                 |
\*---------------------------------------------------------------------------*/
FoamFile
{
    version     2.0;
    format      ascii;
    class       volScalarField;
    location    "0.17";
    object      C;
}
// * * * * * * * * * * * * * * * * * * * * * * * * * * * * * * * * * * * * * //

dimensions      [0 0 0 0 0 0 0];

internalField   nonuniform List<scalar> 
50
(
3.93917e-05
5.34309e-05
4.99556e-05
4.10124e-05
3.13994e-05
2.31059e-05
1.66883e-05
1.19762e-05
8.64893e-06
6.32783e-06
4.72321e-06
3.58544e-06
2.76864e-06
2.16936e-06
1.71901e-06
1.37517e-06
1.10516e-06
8.90681e-07
7.18192e-07
5.77541e-07
4.64023e-07
3.71042e-07
2.95909e-07
2.35e-07
1.85889e-07
1.46336e-07
1.14809e-07
8.96146e-08
6.96612e-08
5.40614e-08
4.17653e-08
3.2174e-08
2.4772e-08
1.90149e-08
1.45702e-08
1.11528e-08
8.53115e-09
6.52353e-09
4.98832e-09
3.81557e-09
2.92028e-09
2.23703e-09
1.71557e-09
1.3175e-09
1.01345e-09
7.81096e-10
6.03423e-10
4.67521e-10
3.63578e-10
2.84127e-10
)
;

boundaryField
{
    wall
    {
        type            zeroGradient;
    }
    fuel
    {
        type            fixedValue;
        value           uniform 0;
    }
    outlet
    {
        type            inletOutlet;
        inletValue      nonuniform 0();
        value           nonuniform 0();
    }
    procBoundary0to1
    {
        type            processor;
        value           uniform 2.22011e-10;
    }
}


// ************************************************************************* //
