/*--------------------------------*- C++ -*----------------------------------*\
| =========                 |                                                 |
| \\      /  F ield         | OpenFOAM: The Open Source CFD Toolbox           |
|  \\    /   O peration     | Version:  dev                                   |
|   \\  /    A nd           | Web:      www.OpenFOAM.org                      |
|    \\/     M anipulation  |                                                 |
\*---------------------------------------------------------------------------*/
FoamFile
{
    version     2.0;
    format      ascii;
    class       volScalarField;
    location    "0.17";
    object      C2H3O;
}
// * * * * * * * * * * * * * * * * * * * * * * * * * * * * * * * * * * * * * //

dimensions      [0 0 0 0 0 0 0];

internalField   nonuniform List<scalar> 
250
(
3.50682e-10
3.52746e-10
3.51025e-10
3.54566e-10
3.51152e-10
3.58558e-10
3.59862e-10
3.71054e-10
3.83989e-10
3.77346e-10
3.35891e-10
3.3808e-10
3.36077e-10
3.39785e-10
3.36372e-10
3.43714e-10
3.44552e-10
3.55519e-10
3.66956e-10
3.62278e-10
4.40799e-10
3.24524e-10
3.30835e-10
3.28658e-10
3.23906e-10
3.22777e-10
3.22581e-10
3.22174e-10
3.22119e-10
3.21966e-10
3.21026e-10
3.23301e-10
3.21087e-10
3.24937e-10
3.21511e-10
3.28815e-10
3.29453e-10
3.39901e-10
3.50929e-10
3.45802e-10
3.70773e-10
3.0951e-10
3.15969e-10
3.13649e-10
3.08921e-10
3.07832e-10
3.07609e-10
3.07143e-10
3.07157e-10
3.0698e-10
3.06008e-10
3.0834e-10
3.05974e-10
3.09942e-10
3.06492e-10
3.13784e-10
3.14161e-10
3.24104e-10
3.34345e-10
3.28424e-10
3.23091e-10
2.94295e-10
3.0082e-10
2.98423e-10
2.93732e-10
2.92684e-10
2.92441e-10
2.9192e-10
2.91993e-10
2.91793e-10
2.90781e-10
2.93154e-10
2.90671e-10
2.94741e-10
2.91261e-10
2.98569e-10
2.98648e-10
3.08082e-10
3.17221e-10
3.10622e-10
2.8935e-10
2.8049e-10
2.85369e-10
2.82936e-10
2.78324e-10
2.7731e-10
2.77055e-10
2.76488e-10
2.76609e-10
2.76389e-10
2.75317e-10
2.77726e-10
2.75147e-10
2.79304e-10
2.75792e-10
2.83151e-10
2.82902e-10
2.91814e-10
2.99597e-10
2.92741e-10
2.6423e-10
2.65718e-10
2.6963e-10
2.67194e-10
2.62735e-10
2.61736e-10
2.61478e-10
2.60876e-10
2.61032e-10
2.608e-10
2.59637e-10
2.62082e-10
2.5942e-10
2.63646e-10
2.60106e-10
2.67536e-10
2.66943e-10
2.75324e-10
2.82265e-10
2.75079e-10
2.44403e-10
2.51156e-10
2.53683e-10
2.51259e-10
2.47051e-10
2.4604e-10
2.45788e-10
2.45167e-10
2.45346e-10
2.45109e-10
2.43823e-10
2.46303e-10
2.43575e-10
2.47844e-10
2.44287e-10
2.50748e-10
2.50669e-10
2.58673e-10
2.65455e-10
2.56143e-10
2.27734e-10
2.36342e-10
2.37692e-10
2.3526e-10
2.3061e-10
2.29897e-10
2.29613e-10
2.28863e-10
2.29123e-10
2.2882e-10
2.28038e-10
2.30545e-10
2.27778e-10
2.3205e-10
2.28505e-10
2.34792e-10
2.34548e-10
2.41998e-10
2.47785e-10
2.39299e-10
2.12937e-10
2.21476e-10
2.21761e-10
2.19488e-10
2.15084e-10
2.14402e-10
2.1413e-10
2.1337e-10
2.13643e-10
2.13338e-10
2.12542e-10
2.1505e-10
2.12282e-10
2.16502e-10
2.1301e-10
2.19093e-10
2.18678e-10
2.25529e-10
2.29965e-10
2.23059e-10
1.99347e-10
2.06879e-10
2.0644e-10
2.04271e-10
2.00161e-10
1.99518e-10
1.99264e-10
1.98512e-10
1.98789e-10
1.9849e-10
1.9768e-10
2.00145e-10
1.97425e-10
2.01527e-10
1.98139e-10
2.03956e-10
2.03391e-10
2.09628e-10
2.14339e-10
2.06543e-10
1.8677e-10
1.92973e-10
1.92024e-10
1.90021e-10
1.86238e-10
1.85648e-10
1.85414e-10
1.84687e-10
1.8496e-10
1.84673e-10
1.8387e-10
1.86238e-10
1.83625e-10
1.87532e-10
1.84308e-10
1.89785e-10
1.891e-10
1.94733e-10
1.99281e-10
1.92144e-10
1.75363e-10
1.80282e-10
1.7902e-10
1.77232e-10
1.73799e-10
1.73273e-10
1.73058e-10
1.72371e-10
1.72632e-10
1.72364e-10
1.71594e-10
1.73806e-10
1.71362e-10
1.75001e-10
1.71998e-10
1.77067e-10
1.76291e-10
1.81348e-10
1.85459e-10
1.79246e-10
1.61405e-10
1.63403e-10
1.61191e-10
1.64491e-10
1.61763e-10
1.66368e-10
1.65519e-10
1.70051e-10
1.73508e-10
1.68278e-10
)
;

boundaryField
{
    fuel
    {
        type            fixedValue;
        value           nonuniform 0();
    }
    wall
    {
        type            zeroGradient;
    }
    outlet
    {
        type            zeroGradient;
    }
    frontAndBack
    {
        type            empty;
    }
    procBoundary0to1
    {
        type            processor;
        value           nonuniform List<scalar> 
21
(
1.65515e-10
1.69375e-10
1.68012e-10
1.66457e-10
1.63402e-10
1.62949e-10
1.62749e-10
1.62118e-10
1.62359e-10
1.62115e-10
1.62115e-10
1.53987e-10
1.55718e-10
1.53807e-10
1.56685e-10
1.54309e-10
1.58355e-10
1.57519e-10
1.61474e-10
1.64201e-10
1.59856e-10
)
;
    }
    procBoundary0to2
    {
        type            processor;
        value           nonuniform List<scalar> 
12
(
3.51559e-10
5.58244e-10
3.39086e-10
3.45456e-10
3.43493e-10
3.38739e-10
3.3757e-10
3.3741e-10
3.37066e-10
3.36927e-10
3.368e-10
3.368e-10
)
;
    }
    procBoundary0to3
    {
        type            processor;
        value           nonuniform List<scalar> 10(3.65502e-10 3.67405e-10 3.66016e-10 3.69368e-10 3.65968e-10 3.7341e-10 3.74943e-10 3.8814e-10 3.98675e-10 3.89575e-10);
    }
}


// ************************************************************************* //
