/*--------------------------------*- C++ -*----------------------------------*\
| =========                 |                                                 |
| \\      /  F ield         | OpenFOAM: The Open Source CFD Toolbox           |
|  \\    /   O peration     | Version:  dev                                   |
|   \\  /    A nd           | Web:      www.OpenFOAM.org                      |
|    \\/     M anipulation  |                                                 |
\*---------------------------------------------------------------------------*/
FoamFile
{
    version     2.0;
    format      ascii;
    class       volScalarField;
    location    "0.17";
    object      H2O2;
}
// * * * * * * * * * * * * * * * * * * * * * * * * * * * * * * * * * * * * * //

dimensions      [0 0 0 0 0 0 0];

internalField   nonuniform List<scalar> 
250
(
4.74943e-11
4.75454e-11
4.75447e-11
4.7672e-11
4.77206e-11
4.77049e-11
4.76013e-11
4.30196e-11
3.60623e-11
3.81165e-10
4.39848e-11
4.40445e-11
4.40319e-11
4.4168e-11
4.42275e-11
4.42249e-11
4.42683e-11
4.03244e-11
3.27821e-11
2.37801e-10
2.58501e-11
3.55539e-11
3.94313e-11
4.13716e-11
4.12935e-11
4.04816e-11
4.09028e-11
4.01797e-11
4.06318e-11
4.01603e-11
4.03171e-11
4.03826e-11
4.03604e-11
4.05027e-11
4.05728e-11
4.05845e-11
4.07669e-11
3.74391e-11
3.00585e-11
1.50657e-10
2.47526e-11
3.31208e-11
3.59825e-11
3.76541e-11
3.75106e-11
3.66821e-11
3.71055e-11
3.63571e-11
3.68407e-11
3.63497e-11
3.65154e-11
3.6583e-11
3.65545e-11
3.66995e-11
3.67797e-11
3.68057e-11
3.71118e-11
3.4365e-11
2.7503e-11
9.72248e-11
2.31995e-11
3.04149e-11
3.23969e-11
3.38118e-11
3.36124e-11
3.27836e-11
3.32055e-11
3.24441e-11
3.29503e-11
3.24466e-11
3.26188e-11
3.26839e-11
3.26531e-11
3.27966e-11
3.2886e-11
3.29254e-11
3.33337e-11
3.11217e-11
2.50255e-11
6.42788e-11
2.12732e-11
2.74811e-11
2.87247e-11
2.98941e-11
2.96474e-11
2.88411e-11
2.92573e-11
2.8498e-11
2.90137e-11
2.85066e-11
2.86816e-11
2.87391e-11
2.87115e-11
2.88479e-11
2.89456e-11
2.8997e-11
2.94797e-11
2.77476e-11
2.27747e-11
4.38633e-11
1.90857e-11
2.43872e-11
2.50354e-11
2.59657e-11
2.56826e-11
2.49249e-11
2.53329e-11
2.45912e-11
2.50996e-11
2.45999e-11
2.47738e-11
2.48174e-11
2.48e-11
2.49251e-11
2.5028e-11
2.509e-11
2.56129e-11
2.42985e-11
2.03501e-11
3.108e-11
1.67499e-11
2.12136e-11
2.13144e-11
2.21057e-11
2.18015e-11
2.11179e-11
2.15169e-11
2.08069e-11
2.12897e-11
2.08097e-11
2.0978e-11
2.09995e-11
2.10016e-11
2.11225e-11
2.12156e-11
2.12879e-11
2.18104e-11
2.08487e-11
1.79205e-11
2.28945e-11
1.43709e-11
1.80536e-11
1.78013e-11
1.84034e-11
1.80747e-11
1.73751e-11
1.77453e-11
1.70851e-11
1.75497e-11
1.70934e-11
1.72528e-11
1.73721e-11
1.72683e-11
1.74282e-11
1.7485e-11
1.75127e-11
1.81577e-11
1.74856e-11
1.54378e-11
1.74319e-11
1.20305e-11
1.50002e-11
1.45018e-11
1.49505e-11
1.46369e-11
1.40274e-11
1.43724e-11
1.37757e-11
1.419e-11
1.37763e-11
1.39214e-11
1.40234e-11
1.3935e-11
1.4089e-11
1.41274e-11
1.41569e-11
1.47521e-11
1.43022e-11
1.29684e-11
1.35624e-11
9.82997e-12
1.21445e-11
1.15034e-11
1.18299e-11
1.15476e-11
1.10318e-11
1.13389e-11
1.08195e-11
1.11783e-11
1.08158e-11
1.09434e-11
1.10278e-11
1.0955e-11
1.10868e-11
1.11193e-11
1.11482e-11
1.16745e-11
1.13873e-11
1.0595e-11
1.06342e-11
7.85986e-12
9.56694e-12
8.87441e-12
9.10572e-12
8.86536e-12
8.44188e-12
8.7027e-12
8.26759e-12
8.56957e-12
8.26316e-12
8.3713e-12
8.43908e-12
8.38073e-12
8.48767e-12
8.51576e-12
8.54214e-12
8.98818e-12
8.8138e-12
8.40242e-12
8.29585e-12
6.17029e-12
7.3275e-12
6.65616e-12
6.81464e-12
6.62133e-12
6.28423e-12
6.49683e-12
6.14555e-12
6.39185e-12
6.14241e-12
6.23065e-12
6.28343e-12
6.23801e-12
6.32142e-12
6.34472e-12
6.36735e-12
6.7294e-12
6.62865e-12
6.46223e-12
6.37412e-12
4.51647e-12
4.55624e-12
4.52195e-12
4.58475e-12
4.60313e-12
4.62166e-12
4.90339e-12
4.84747e-12
4.82144e-12
4.79064e-12
)
;

boundaryField
{
    fuel
    {
        type            fixedValue;
        value           nonuniform 0();
    }
    wall
    {
        type            zeroGradient;
    }
    outlet
    {
        type            zeroGradient;
    }
    frontAndBack
    {
        type            empty;
    }
    procBoundary0to1
    {
        type            processor;
        value           nonuniform List<scalar> 
21
(
4.7665e-12
5.45964e-12
4.85713e-12
4.96275e-12
4.81451e-12
4.55544e-12
4.72196e-12
4.44868e-12
4.64261e-12
4.44717e-12
4.44717e-12
3.19564e-12
3.22465e-12
3.19954e-12
3.24523e-12
3.2591e-12
3.27395e-12
3.48422e-12
3.45398e-12
3.49529e-12
3.51483e-12
)
;
    }
    procBoundary0to2
    {
        type            processor;
        value           nonuniform List<scalar> 
12
(
4.73612e-11
2.64171e-11
3.78238e-11
4.27078e-11
4.4937e-11
4.49247e-11
4.41455e-11
4.45577e-11
4.38723e-11
4.42854e-11
4.38392e-11
4.38392e-11
)
;
    }
    procBoundary0to3
    {
        type            processor;
        value           nonuniform List<scalar> 10(5.08343e-11 5.08755e-11 5.08882e-11 5.10037e-11 5.1041e-11 5.10143e-11 5.0758e-11 4.58252e-11 4.04495e-11 6.25644e-10);
    }
}


// ************************************************************************* //
