/*--------------------------------*- C++ -*----------------------------------*\
| =========                 |                                                 |
| \\      /  F ield         | OpenFOAM: The Open Source CFD Toolbox           |
|  \\    /   O peration     | Version:  dev                                   |
|   \\  /    A nd           | Web:      www.OpenFOAM.org                      |
|    \\/     M anipulation  |                                                 |
\*---------------------------------------------------------------------------*/
FoamFile
{
    version     2.0;
    format      ascii;
    class       volScalarField;
    location    "0.17";
    object      i-A1C2H2;
}
// * * * * * * * * * * * * * * * * * * * * * * * * * * * * * * * * * * * * * //

dimensions      [0 0 0 0 0 0 0];

internalField   nonuniform List<scalar> 
250
(
1.0996e-11
1.10385e-11
1.10189e-11
1.10911e-11
1.10203e-11
1.1358e-11
1.20862e-11
1.54943e-11
2.97675e-11
7.25513e-11
1.07914e-11
1.08227e-11
1.08111e-11
1.08594e-11
1.08123e-11
1.10973e-11
1.17841e-11
1.49956e-11
2.86942e-11
7.51203e-11
8.71319e-11
3.25349e-11
1.47237e-11
1.15593e-11
1.0861e-11
1.07252e-11
1.07176e-11
1.07303e-11
1.07103e-11
1.07236e-11
1.07092e-11
1.07271e-11
1.07271e-11
1.07497e-11
1.0727e-11
1.09588e-11
1.16152e-11
1.46276e-11
2.78014e-11
7.67513e-11
7.13055e-11
2.91371e-11
1.43458e-11
1.15166e-11
1.08799e-11
1.07538e-11
1.07457e-11
1.07611e-11
1.07421e-11
1.07559e-11
1.07476e-11
1.07506e-11
1.07649e-11
1.07606e-11
1.07627e-11
1.09415e-11
1.15705e-11
1.43868e-11
2.69659e-11
7.72287e-11
5.93927e-11
2.63505e-11
1.41224e-11
1.15968e-11
1.10166e-11
1.09003e-11
1.08919e-11
1.09099e-11
1.08913e-11
1.09056e-11
1.09041e-11
1.08911e-11
1.09215e-11
1.08901e-11
1.09168e-11
1.1044e-11
1.16481e-11
1.42702e-11
2.61767e-11
7.64668e-11
5.03055e-11
2.43539e-11
1.40473e-11
1.17949e-11
1.12674e-11
1.11606e-11
1.11517e-11
1.11722e-11
1.11535e-11
1.11683e-11
1.1174e-11
1.11448e-11
1.11918e-11
1.11342e-11
1.11847e-11
1.12633e-11
1.18438e-11
1.42731e-11
2.54259e-11
7.45031e-11
4.33059e-11
2.27307e-11
1.41088e-11
1.21029e-11
1.1625e-11
1.15267e-11
1.15174e-11
1.15398e-11
1.15207e-11
1.1536e-11
1.15487e-11
1.1504e-11
1.15668e-11
1.14854e-11
1.15578e-11
1.15926e-11
1.21495e-11
1.4388e-11
2.47435e-11
7.14872e-11
3.78968e-11
2.15429e-11
1.42923e-11
1.25085e-11
1.20775e-11
1.19863e-11
1.19765e-11
1.20003e-11
1.19806e-11
1.19962e-11
1.20153e-11
1.19566e-11
1.20334e-11
1.19321e-11
1.20232e-11
1.20356e-11
1.25554e-11
1.46031e-11
2.4133e-11
6.72509e-11
3.37234e-11
2.06744e-11
1.45798e-11
1.29956e-11
1.26243e-11
1.25323e-11
1.25226e-11
1.25491e-11
1.25278e-11
1.25447e-11
1.25579e-11
1.24877e-11
1.25758e-11
1.24594e-11
1.2565e-11
1.25471e-11
1.30411e-11
1.49035e-11
2.35362e-11
6.28188e-11
3.0527e-11
2.00758e-11
1.49561e-11
1.35508e-11
1.32193e-11
1.31327e-11
1.31222e-11
1.31484e-11
1.31269e-11
1.31438e-11
1.31615e-11
1.30827e-11
1.31791e-11
1.30525e-11
1.31685e-11
1.31275e-11
1.3594e-11
1.52744e-11
2.29805e-11
5.80813e-11
2.81184e-11
1.9711e-11
1.54089e-11
1.41661e-11
1.38706e-11
1.37895e-11
1.37783e-11
1.38039e-11
1.37823e-11
1.37992e-11
1.38203e-11
1.37348e-11
1.38378e-11
1.37044e-11
1.38278e-11
1.37685e-11
1.42065e-11
1.57086e-11
2.2553e-11
5.2978e-11
2.63675e-11
1.95665e-11
1.59491e-11
1.48519e-11
1.45906e-11
1.45159e-11
1.45042e-11
1.45294e-11
1.45074e-11
1.45248e-11
1.4549e-11
1.44562e-11
1.4567e-11
1.44261e-11
1.45575e-11
1.44802e-11
1.48902e-11
1.62175e-11
2.22114e-11
4.84156e-11
2.52052e-11
1.96651e-11
1.66196e-11
1.56526e-11
1.54271e-11
1.53604e-11
1.53483e-11
1.53746e-11
1.53516e-11
1.53705e-11
1.53991e-11
1.52937e-11
1.54187e-11
1.52629e-11
1.54085e-11
1.53059e-11
1.56913e-11
1.68461e-11
2.20257e-11
4.43307e-11
1.64807e-11
1.63505e-11
1.6504e-11
1.63163e-11
1.64909e-11
1.63444e-11
1.67136e-11
1.76942e-11
2.21118e-11
4.09394e-11
)
;

boundaryField
{
    fuel
    {
        type            fixedValue;
        value           nonuniform 0();
    }
    wall
    {
        type            zeroGradient;
    }
    outlet
    {
        type            zeroGradient;
    }
    frontAndBack
    {
        type            empty;
    }
    procBoundary0to1
    {
        type            processor;
        value           nonuniform List<scalar> 
21
(
2.46388e-11
2.00861e-11
1.75194e-11
1.66688e-11
1.64856e-11
1.64298e-11
1.64173e-11
1.64475e-11
1.64221e-11
1.64443e-11
1.64443e-11
1.79963e-11
1.78198e-11
1.80272e-11
1.77769e-11
1.80078e-11
1.77829e-11
1.81519e-11
1.89476e-11
2.26609e-11
3.8496e-11
)
;
    }
    procBoundary0to2
    {
        type            processor;
        value           nonuniform List<scalar> 
12
(
1.10202e-11
1.10245e-10
3.64376e-11
1.52605e-11
1.17271e-11
1.09623e-11
1.0817e-11
1.08102e-11
1.08202e-11
1.07983e-11
1.08111e-11
1.08111e-11
)
;
    }
    procBoundary0to3
    {
        type            processor;
        value           nonuniform List<scalar> 10(1.13257e-11 1.13774e-11 1.1353e-11 1.14472e-11 1.13535e-11 1.17431e-11 1.25122e-11 1.61922e-11 3.08516e-11 6.93517e-11);
    }
}


// ************************************************************************* //
