/*--------------------------------*- C++ -*----------------------------------*\
| =========                 |                                                 |
| \\      /  F ield         | OpenFOAM: The Open Source CFD Toolbox           |
|  \\    /   O peration     | Version:  dev                                   |
|   \\  /    A nd           | Web:      www.OpenFOAM.org                      |
|    \\/     M anipulation  |                                                 |
\*---------------------------------------------------------------------------*/
FoamFile
{
    version     2.0;
    format      ascii;
    class       volScalarField;
    location    "0.17";
    object      n-A1C2H2;
}
// * * * * * * * * * * * * * * * * * * * * * * * * * * * * * * * * * * * * * //

dimensions      [0 0 0 0 0 0 0];

internalField   nonuniform List<scalar> 
250
(
1.29727e-11
1.30315e-11
1.3e-11
1.31005e-11
1.3003e-11
1.34236e-11
1.42544e-11
1.81631e-11
3.42015e-11
8.09616e-11
1.26592e-11
1.27062e-11
1.26821e-11
1.27568e-11
1.26856e-11
1.3046e-11
1.38233e-11
1.74922e-11
3.28153e-11
8.34209e-11
8.78801e-11
3.60644e-11
1.69904e-11
1.34714e-11
1.26653e-11
1.25073e-11
1.24976e-11
1.25092e-11
1.24867e-11
1.25005e-11
1.2479e-11
1.25121e-11
1.24992e-11
1.25467e-11
1.25021e-11
1.28027e-11
1.35399e-11
1.69646e-11
3.16315e-11
8.47221e-11
7.25821e-11
3.22305e-11
1.6453e-11
1.33243e-11
1.25907e-11
1.24444e-11
1.24339e-11
1.24478e-11
1.24271e-11
1.2441e-11
1.24259e-11
1.24435e-11
1.24446e-11
1.24645e-11
1.2446e-11
1.26885e-11
1.33885e-11
1.65726e-11
3.0497e-11
8.46595e-11
6.08687e-11
2.90468e-11
1.6077e-11
1.33028e-11
1.26352e-11
1.25007e-11
1.24896e-11
1.25056e-11
1.24859e-11
1.25e-11
1.24915e-11
1.24934e-11
1.25097e-11
1.25029e-11
1.25093e-11
1.2697e-11
1.33618e-11
1.63078e-11
2.93954e-11
8.31718e-11
5.1775e-11
2.67174e-11
1.5849e-11
1.33947e-11
1.27883e-11
1.26649e-11
1.26533e-11
1.26708e-11
1.26516e-11
1.26658e-11
1.26639e-11
1.26507e-11
1.26818e-11
1.26509e-11
1.26798e-11
1.28185e-11
1.34486e-11
1.61589e-11
2.83182e-11
8.03305e-11
4.46386e-11
2.4765e-11
1.57485e-11
1.35833e-11
1.30339e-11
1.29203e-11
1.29081e-11
1.29264e-11
1.29075e-11
1.29216e-11
1.29255e-11
1.28992e-11
1.2943e-11
1.28924e-11
1.29401e-11
1.30376e-11
1.36321e-11
1.61099e-11
2.72973e-11
7.63271e-11
3.90071e-11
2.32604e-11
1.57501e-11
1.38456e-11
1.33495e-11
1.32439e-11
1.32309e-11
1.32491e-11
1.32305e-11
1.32441e-11
1.32523e-11
1.32161e-11
1.3269e-11
1.32051e-11
1.32662e-11
1.33423e-11
1.38907e-11
1.6139e-11
2.63331e-11
7.09639e-11
3.45483e-11
2.20628e-11
1.58234e-11
1.41529e-11
1.37164e-11
1.36126e-11
1.35992e-11
1.36173e-11
1.35986e-11
1.36121e-11
1.36157e-11
1.3574e-11
1.36312e-11
1.35616e-11
1.36297e-11
1.36838e-11
1.41932e-11
1.62191e-11
2.5335e-11
6.54347e-11
3.10116e-11
2.11075e-11
1.59378e-11
1.44781e-11
1.40837e-11
1.39859e-11
1.39714e-11
1.39868e-11
1.39691e-11
1.39814e-11
1.3987e-11
1.39444e-11
1.40009e-11
1.39334e-11
1.40017e-11
1.40444e-11
1.45122e-11
1.63222e-11
2.43253e-11
5.95839e-11
2.82052e-11
2.03419e-11
1.60682e-11
1.47984e-11
1.44403e-11
1.43486e-11
1.43333e-11
1.43451e-11
1.43287e-11
1.43397e-11
1.43454e-11
1.43059e-11
1.43579e-11
1.42983e-11
1.43617e-11
1.44011e-11
1.48251e-11
1.64268e-11
2.34259e-11
5.33349e-11
2.59883e-11
1.97337e-11
1.62076e-11
1.51077e-11
1.47827e-11
1.46978e-11
1.46819e-11
1.46901e-11
1.46751e-11
1.46849e-11
1.469e-11
1.46547e-11
1.47013e-11
1.46513e-11
1.4708e-11
1.47474e-11
1.51273e-11
1.65289e-11
2.25441e-11
4.76813e-11
2.42732e-11
1.92837e-11
1.63797e-11
1.54316e-11
1.51401e-11
1.50633e-11
1.50471e-11
1.50529e-11
1.50388e-11
1.50483e-11
1.50535e-11
1.50187e-11
1.50643e-11
1.50188e-11
1.50731e-11
1.51076e-11
1.54463e-11
1.66551e-11
2.17385e-11
4.25084e-11
1.55211e-11
1.54768e-11
1.55332e-11
1.54777e-11
1.55421e-11
1.55558e-11
1.58614e-11
1.68802e-11
2.11038e-11
3.80053e-11
)
;

boundaryField
{
    fuel
    {
        type            fixedValue;
        value           nonuniform 0();
    }
    wall
    {
        type            zeroGradient;
    }
    outlet
    {
        type            zeroGradient;
    }
    frontAndBack
    {
        type            empty;
    }
    procBoundary0to1
    {
        type            processor;
        value           nonuniform List<scalar> 
21
(
2.30397e-11
1.90439e-11
1.66585e-11
1.58461e-11
1.55934e-11
1.5527e-11
1.55106e-11
1.55167e-11
1.55022e-11
1.5513e-11
1.5513e-11
1.62541e-11
1.61828e-11
1.62708e-11
1.618e-11
1.62766e-11
1.62415e-11
1.65275e-11
1.73532e-11
2.07929e-11
3.43724e-11
)
;
    }
    procBoundary0to2
    {
        type            processor;
        value           nonuniform List<scalar> 
12
(
1.30047e-11
1.09876e-10
4.04287e-11
1.76989e-11
1.37515e-11
1.28669e-11
1.26973e-11
1.26887e-11
1.26979e-11
1.26727e-11
1.26863e-11
1.26863e-11
)
;
    }
    procBoundary0to3
    {
        type            processor;
        value           nonuniform List<scalar> 10(1.34261e-11 1.34947e-11 1.34594e-11 1.3584e-11 1.34604e-11 1.39413e-11 1.48234e-11 1.90668e-11 3.55722e-11 7.76631e-11);
    }
}


// ************************************************************************* //
