/*--------------------------------*- C++ -*----------------------------------*\
| =========                 |                                                 |
| \\      /  F ield         | OpenFOAM: The Open Source CFD Toolbox           |
|  \\    /   O peration     | Version:  dev                                   |
|   \\  /    A nd           | Web:      www.OpenFOAM.org                      |
|    \\/     M anipulation  |                                                 |
\*---------------------------------------------------------------------------*/
FoamFile
{
    version     2.0;
    format      ascii;
    class       volScalarField;
    location    "0.17";
    object      OH;
}
// * * * * * * * * * * * * * * * * * * * * * * * * * * * * * * * * * * * * * //

dimensions      [0 0 0 0 0 0 0];

internalField   nonuniform List<scalar> 
250
(
2.63147e-05
2.63388e-05
2.63359e-05
2.63931e-05
2.64148e-05
2.63937e-05
2.62714e-05
2.39196e-05
1.63351e-05
6.83023e-06
2.47319e-05
2.47599e-05
2.47522e-05
2.48145e-05
2.48417e-05
2.48286e-05
2.4784e-05
2.27421e-05
1.60872e-05
7.13174e-06
1.5272e-05
2.02715e-05
2.24137e-05
2.34545e-05
2.34655e-05
2.31103e-05
2.33007e-05
2.29693e-05
2.31795e-05
2.29618e-05
2.30338e-05
2.30648e-05
2.3053e-05
2.31194e-05
2.31522e-05
2.31477e-05
2.31785e-05
2.14371e-05
1.57121e-05
7.43247e-06
1.48664e-05
1.91775e-05
2.0802e-05
2.17089e-05
2.16807e-05
2.13058e-05
2.1503e-05
2.11508e-05
2.1381e-05
2.11484e-05
2.12265e-05
2.12589e-05
2.12443e-05
2.13134e-05
2.13518e-05
2.13561e-05
2.14571e-05
2.00017e-05
1.51497e-05
7.69601e-06
1.41635e-05
1.79095e-05
1.90779e-05
1.98554e-05
1.97902e-05
1.94033e-05
1.96056e-05
1.92375e-05
1.94843e-05
1.92393e-05
1.93226e-05
1.93546e-05
1.93388e-05
1.94088e-05
1.94526e-05
1.94654e-05
1.96283e-05
1.84397e-05
1.43931e-05
7.88063e-06
1.32216e-05
1.6486e-05
1.7259e-05
1.79105e-05
1.78117e-05
1.74229e-05
1.76289e-05
1.72512e-05
1.7509e-05
1.72552e-05
1.73425e-05
1.73718e-05
1.73571e-05
1.74258e-05
1.74745e-05
1.74952e-05
1.77085e-05
1.67629e-05
1.35378e-05
7.94581e-06
1.20975e-05
1.49329e-05
1.53728e-05
1.58997e-05
1.57721e-05
1.53937e-05
1.56024e-05
1.5222e-05
1.54834e-05
1.52257e-05
1.5315e-05
1.5339e-05
1.53284e-05
1.53942e-05
1.54461e-05
1.5474e-05
1.57225e-05
1.49927e-05
1.24745e-05
7.85398e-06
1.08444e-05
1.32831e-05
1.3407e-05
1.38574e-05
1.37089e-05
1.33538e-05
1.35647e-05
1.31886e-05
1.3445e-05
1.31892e-05
1.32785e-05
1.32928e-05
1.32912e-05
1.3358e-05
1.34052e-05
1.34403e-05
1.37041e-05
1.31608e-05
1.12945e-05
7.5821e-06
9.51148e-06
1.15775e-05
1.14791e-05
1.18266e-05
1.16558e-05
1.12792e-05
1.14818e-05
1.11196e-05
1.1375e-05
1.11232e-05
1.1211e-05
1.12766e-05
1.12198e-05
1.13073e-05
1.13386e-05
1.13529e-05
1.16946e-05
1.13081e-05
9.9942e-06
7.12315e-06
8.13874e-06
9.86123e-06
9.59456e-06
9.85646e-06
9.68457e-06
9.34353e-06
9.53881e-06
9.19929e-06
9.43618e-06
9.19921e-06
9.28221e-06
9.33972e-06
9.29042e-06
9.37684e-06
9.39944e-06
9.41655e-06
9.74586e-06
9.48351e-06
8.618e-06
6.49058e-06
6.78155e-06
8.18379e-06
7.80595e-06
7.99774e-06
7.83491e-06
7.53407e-06
7.71444e-06
7.40721e-06
7.62113e-06
7.40515e-06
7.48107e-06
7.53043e-06
7.48838e-06
7.56501e-06
7.58499e-06
7.60312e-06
7.90781e-06
7.73944e-06
7.21953e-06
5.71788e-06
5.49334e-06
6.59576e-06
6.16263e-06
6.29857e-06
6.15288e-06
5.89537e-06
6.05467e-06
5.78684e-06
5.97457e-06
5.78461e-06
5.85154e-06
5.89278e-06
5.85778e-06
5.92228e-06
5.94022e-06
5.95792e-06
6.22785e-06
6.12694e-06
5.85678e-06
4.85476e-06
4.31383e-06
5.14433e-06
4.70578e-06
4.7987e-06
4.67537e-06
4.4625e-06
4.59723e-06
4.37267e-06
4.53192e-06
4.37126e-06
4.42798e-06
4.46133e-06
4.43306e-06
4.48519e-06
4.50059e-06
4.5168e-06
4.74521e-06
4.68972e-06
4.58573e-06
3.96021e-06
3.23087e-06
3.25683e-06
3.2348e-06
3.27523e-06
3.28776e-06
3.30185e-06
3.48592e-06
3.45881e-06
3.45321e-06
3.09371e-06
)
;

boundaryField
{
    fuel
    {
        type            fixedValue;
        value           nonuniform 0();
    }
    wall
    {
        type            zeroGradient;
    }
    outlet
    {
        type            zeroGradient;
    }
    frontAndBack
    {
        type            empty;
    }
    procBoundary0to1
    {
        type            processor;
        value           nonuniform List<scalar> 
21
(
3.27184e-06
3.86841e-06
3.46355e-06
3.52472e-06
3.42577e-06
3.25669e-06
3.36583e-06
3.18521e-06
3.31503e-06
3.18483e-06
3.18483e-06
2.26454e-06
2.28392e-06
2.26743e-06
2.2974e-06
2.30706e-06
2.31882e-06
2.45964e-06
2.44863e-06
2.49115e-06
2.30607e-06
)
;
    }
    procBoundary0to2
    {
        type            processor;
        value           nonuniform List<scalar> 
12
(
2.62564e-05
1.53348e-05
2.12486e-05
2.39036e-05
2.50833e-05
2.51346e-05
2.48045e-05
2.49865e-05
2.46797e-05
2.48678e-05
2.46666e-05
2.46666e-05
)
;
    }
    procBoundary0to3
    {
        type            processor;
        value           nonuniform List<scalar> 10(2.77813e-05 2.78009e-05 2.78034e-05 2.78545e-05 2.78709e-05 2.78436e-05 2.76438e-05 2.50936e-05 1.64958e-05 6.55124e-06);
    }
}


// ************************************************************************* //
