/*--------------------------------*- C++ -*----------------------------------*\
| =========                 |                                                 |
| \\      /  F ield         | OpenFOAM: The Open Source CFD Toolbox           |
|  \\    /   O peration     | Version:  dev                                   |
|   \\  /    A nd           | Web:      www.OpenFOAM.org                      |
|    \\/     M anipulation  |                                                 |
\*---------------------------------------------------------------------------*/
FoamFile
{
    version     2.0;
    format      ascii;
    class       volScalarField;
    location    "0.17";
    object      P2;
}
// * * * * * * * * * * * * * * * * * * * * * * * * * * * * * * * * * * * * * //

dimensions      [0 0 0 0 0 0 0];

internalField   nonuniform List<scalar> 
250
(
1.83877e-10
1.84271e-10
1.84375e-10
1.8503e-10
1.84399e-10
1.90859e-10
2.11323e-10
3.15809e-10
9.72331e-10
5.04204e-09
1.83597e-10
1.83624e-10
1.8407e-10
1.83993e-10
1.84031e-10
1.89118e-10
2.08866e-10
3.08405e-10
9.52533e-10
5.61353e-09
5.74356e-09
1.29905e-09
3.1693e-10
2.08898e-10
1.90111e-10
1.86661e-10
1.86509e-10
1.87014e-10
1.86476e-10
1.86902e-10
1.86881e-10
1.8647e-10
1.87362e-10
1.86457e-10
1.87232e-10
1.90868e-10
2.10209e-10
3.05279e-10
9.38627e-10
6.11508e-09
4.61001e-09
1.10186e-09
3.11699e-10
2.14045e-10
1.96684e-10
1.93409e-10
1.93252e-10
1.93887e-10
1.93332e-10
1.93801e-10
1.93989e-10
1.93061e-10
1.94508e-10
1.92668e-10
1.94266e-10
1.96344e-10
2.15523e-10
3.06547e-10
9.27242e-10
6.48885e-09
3.69292e-09
9.50562e-10
3.12263e-10
2.23463e-10
2.07358e-10
2.04263e-10
2.04103e-10
2.04881e-10
2.04285e-10
2.04806e-10
2.05253e-10
2.03727e-10
2.05835e-10
2.0295e-10
2.05463e-10
2.05862e-10
2.25105e-10
3.1239e-10
9.17269e-10
6.69039e-09
2.96913e-09
8.48544e-10
3.18688e-10
2.37434e-10
2.22471e-10
2.19547e-10
2.19381e-10
2.20312e-10
2.19655e-10
2.20236e-10
2.20998e-10
2.18798e-10
2.21659e-10
2.17635e-10
2.21149e-10
2.19754e-10
2.3925e-10
3.22977e-10
9.0808e-10
6.69685e-09
2.4099e-09
7.71627e-10
3.30866e-10
2.56151e-10
2.42233e-10
2.39471e-10
2.39291e-10
2.40373e-10
2.39643e-10
2.40284e-10
2.41424e-10
2.38492e-10
2.42165e-10
2.36954e-10
2.4152e-10
2.38277e-10
2.58147e-10
3.38367e-10
8.99265e-10
6.5098e-09
1.98556e-09
7.19659e-10
3.48474e-10
2.79553e-10
2.66597e-10
2.6398e-10
2.63773e-10
2.64991e-10
2.64183e-10
2.6488e-10
2.6644e-10
2.62762e-10
2.67251e-10
2.60886e-10
2.66491e-10
2.62723e-10
2.81947e-10
3.58358e-10
8.90344e-10
6.12141e-09
1.66792e-09
6.85269e-10
3.70774e-10
3.07156e-10
2.96311e-10
2.93286e-10
2.93108e-10
2.94615e-10
2.9363e-10
2.94475e-10
2.95498e-10
2.91132e-10
2.96352e-10
2.8899e-10
2.95509e-10
2.90368e-10
3.09741e-10
3.82321e-10
8.80154e-10
5.63363e-09
1.43214e-09
6.64164e-10
3.96738e-10
3.37944e-10
3.28027e-10
3.25023e-10
3.248e-10
3.26379e-10
3.25327e-10
3.26214e-10
3.27459e-10
3.2257e-10
3.28332e-10
3.20268e-10
3.27459e-10
3.21286e-10
3.40644e-10
4.09086e-10
8.67682e-10
5.06106e-09
1.25735e-09
6.52322e-10
4.24299e-10
3.70303e-10
3.6111e-10
3.58132e-10
3.57852e-10
3.59424e-10
3.58337e-10
3.59237e-10
3.60631e-10
3.55476e-10
3.61494e-10
3.53152e-10
3.60658e-10
3.53946e-10
3.73007e-10
4.36912e-10
8.53205e-10
4.4161e-09
1.12671e-09
6.46003e-10
4.51512e-10
4.02189e-10
3.93524e-10
3.90579e-10
3.90237e-10
3.91719e-10
3.90636e-10
3.9152e-10
3.92949e-10
3.87844e-10
3.93771e-10
3.85642e-10
3.93044e-10
3.86362e-10
4.04766e-10
4.63706e-10
8.3479e-10
3.80835e-09
1.02703e-09
6.4189e-10
4.7617e-10
4.31445e-10
4.23153e-10
4.20262e-10
4.19861e-10
4.2118e-10
4.2014e-10
4.20981e-10
4.22327e-10
4.17579e-10
4.23075e-10
4.15624e-10
4.22514e-10
4.16404e-10
4.33768e-10
4.87373e-10
8.11887e-10
3.23576e-09
4.47051e-10
4.42898e-10
4.47693e-10
4.41275e-10
4.47332e-10
4.42202e-10
4.58185e-10
5.06207e-10
7.84475e-10
2.71691e-09
)
;

boundaryField
{
    fuel
    {
        type            fixedValue;
        value           nonuniform 0();
    }
    wall
    {
        type            zeroGradient;
    }
    outlet
    {
        type            zeroGradient;
    }
    frontAndBack
    {
        type            empty;
    }
    procBoundary0to1
    {
        type            processor;
        value           nonuniform List<scalar> 
21
(
9.48577e-10
6.37362e-10
4.96413e-10
4.56215e-10
4.48214e-10
4.45408e-10
4.44963e-10
4.46067e-10
4.45104e-10
4.45884e-10
4.45884e-10
4.66109e-10
4.62677e-10
4.66624e-10
4.61421e-10
4.66461e-10
4.62521e-10
4.76868e-10
5.19216e-10
7.53125e-10
2.26181e-09
)
;
    }
    procBoundary0to2
    {
        type            processor;
        value           nonuniform List<scalar> 
12
(
1.84202e-10
7.21622e-09
1.54052e-09
3.27895e-10
2.07723e-10
1.87327e-10
1.83693e-10
1.83552e-10
1.83943e-10
1.83396e-10
1.83787e-10
1.83787e-10
)
;
    }
    procBoundary0to3
    {
        type            processor;
        value           nonuniform List<scalar> 10(1.8757e-10 1.88274e-10 1.88129e-10 1.89437e-10 1.88187e-10 1.95971e-10 2.1739e-10 3.28604e-10 9.97028e-10 4.45619e-09);
    }
}


// ************************************************************************* //
