/*--------------------------------*- C++ -*----------------------------------*\
| =========                 |                                                 |
| \\      /  F ield         | OpenFOAM: The Open Source CFD Toolbox           |
|  \\    /   O peration     | Version:  dev                                   |
|   \\  /    A nd           | Web:      www.OpenFOAM.org                      |
|    \\/     M anipulation  |                                                 |
\*---------------------------------------------------------------------------*/
FoamFile
{
    version     2.0;
    format      ascii;
    class       surfaceScalarField;
    location    "0.17";
    object      phi;
}
// * * * * * * * * * * * * * * * * * * * * * * * * * * * * * * * * * * * * * //

dimensions      [1 0 -1 0 0 0 0];

internalField   nonuniform List<scalar> 
466
(
1.76984e-07
6.13246e-06
3.25658e-07
6.15615e-06
4.75378e-07
6.10381e-06
6.22727e-07
6.16073e-06
7.70843e-07
6.1323e-06
9.19703e-07
6.12357e-06
1.0603e-06
6.36394e-06
1.21047e-06
6.65898e-06
1.3346e-06
7.01555e-06
8.31571e-06
1.81396e-07
5.97919e-06
3.35092e-07
6.00232e-06
4.89816e-07
5.94896e-06
6.42187e-07
6.00815e-06
7.95401e-07
5.97879e-06
9.49278e-07
5.9694e-06
1.09608e-06
6.21573e-06
1.25449e-06
6.49892e-06
1.38918e-06
6.87649e-06
8.0873e-06
-1.51691e-06
6.26395e-06
-1.28345e-06
8.81479e-06
-1.1068e-06
5.89579e-06
-9.28286e-07
6.71201e-06
-7.69756e-07
5.90804e-06
-6.08108e-07
5.8935e-06
-4.52169e-07
5.94535e-06
-2.90866e-07
5.76703e-06
-1.34363e-07
5.91125e-06
2.74339e-08
5.79749e-06
1.85807e-07
5.82073e-06
3.44501e-07
5.8435e-06
5.04177e-07
5.78918e-06
6.61552e-07
5.85059e-06
8.19854e-07
5.82019e-06
9.78712e-07
5.81026e-06
1.13154e-06
6.06135e-06
1.29784e-06
6.33087e-06
1.443e-06
6.72588e-06
7.85345e-06
-1.57306e-06
6.12647e-06
-1.33218e-06
8.57525e-06
-1.14764e-06
5.71201e-06
-9.60629e-07
6.527e-06
-7.96594e-07
5.7425e-06
-6.29468e-07
5.72732e-06
-4.67922e-07
5.78331e-06
-3.01799e-07
5.60147e-06
-1.39934e-07
5.74921e-06
2.67129e-08
5.63101e-06
1.90246e-07
5.65713e-06
3.53924e-07
5.6797e-06
5.18511e-07
5.6245e-06
6.80885e-07
5.68805e-06
8.44271e-07
5.65649e-06
1.00808e-06
5.64617e-06
1.16686e-06
5.9009e-06
1.34044e-06
6.15549e-06
1.4964e-06
6.56347e-06
7.61455e-06
-1.62786e-06
5.99186e-06
-1.37977e-06
8.33087e-06
-1.18766e-06
5.52074e-06
-9.92612e-07
6.33424e-06
-8.23194e-07
5.57133e-06
-6.50662e-07
5.55591e-06
-4.83537e-07
5.61574e-06
-3.12597e-07
5.43129e-06
-1.45405e-07
5.58183e-06
2.60726e-08
5.45974e-06
1.94738e-07
5.48841e-06
3.63402e-07
5.51092e-06
5.32867e-07
5.45497e-06
7.00252e-07
5.52058e-06
8.68723e-07
5.48768e-06
1.03747e-06
5.47716e-06
1.20213e-06
5.7344e-06
1.38267e-06
5.97314e-06
1.5493e-06
6.38962e-06
7.37075e-06
-1.68151e-06
5.8576e-06
-1.42613e-06
8.08112e-06
-1.22697e-06
5.32249e-06
-1.02436e-06
6.13421e-06
-8.49626e-07
5.39466e-06
-6.71734e-07
5.37935e-06
-4.9905e-07
5.44269e-06
-3.23282e-07
5.25647e-06
-1.50782e-07
5.40912e-06
2.55233e-08
5.28369e-06
1.99306e-07
5.31458e-06
3.72973e-07
5.33715e-06
5.47298e-07
5.28059e-06
7.19727e-07
5.34832e-06
8.9329e-07
5.31376e-06
1.06697e-06
5.30323e-06
1.23749e-06
5.56187e-06
1.4246e-06
5.78429e-06
1.60165e-06
6.20474e-06
7.12199e-06
-1.73426e-06
5.72067e-06
-1.47112e-06
7.82506e-06
-1.26576e-06
5.1181e-06
-1.05603e-06
5.92737e-06
-8.75979e-07
5.21262e-06
-6.92747e-07
5.19767e-06
-5.14511e-07
5.26403e-06
-3.33889e-07
5.07691e-06
-1.56081e-07
5.23108e-06
2.50693e-08
5.10284e-06
2.03969e-07
5.13563e-06
3.82677e-07
5.15835e-06
5.61858e-07
5.10136e-06
7.39388e-07
5.17185e-06
9.18058e-07
5.13471e-06
1.09667e-06
5.12436e-06
1.27309e-06
5.38325e-06
1.46658e-06
5.58918e-06
1.65376e-06
6.00913e-06
6.86836e-06
-1.78642e-06
5.57766e-06
-1.51475e-06
7.56144e-06
-1.30433e-06
4.9066e-06
-1.08774e-06
5.71403e-06
-9.0237e-07
5.0253e-06
-7.13788e-07
5.01087e-06
-5.29988e-07
5.07937e-06
-3.44465e-07
4.8924e-06
-1.61325e-07
5.04767e-06
2.47104e-08
4.91716e-06
2.08749e-07
4.95154e-06
3.92557e-07
4.97446e-06
5.7661e-07
4.91725e-06
7.59312e-07
4.99204e-06
9.43129e-07
4.95049e-06
1.12668e-06
4.94055e-06
1.3091e-06
5.19843e-06
1.5087e-06
5.38816e-06
1.70567e-06
5.80331e-06
6.60977e-06
-1.83832e-06
5.42472e-06
-1.55722e-06
7.28893e-06
-1.34275e-06
4.69074e-06
-1.1197e-06
5.4946e-06
-9.29079e-07
4.83234e-06
-7.35172e-07
4.81894e-06
-5.45728e-07
4.88865e-06
-3.55164e-07
4.70281e-06
-1.66585e-07
4.85871e-06
2.44482e-08
4.72645e-06
2.13681e-07
4.76222e-06
4.02718e-07
4.78533e-06
5.91787e-07
4.7281e-06
7.79766e-07
4.80099e-06
9.68897e-07
4.76077e-06
1.15734e-06
4.75177e-06
1.34569e-06
5.00745e-06
1.55126e-06
5.18144e-06
1.7577e-06
5.5877e-06
6.34613e-06
-1.8904e-06
5.26299e-06
-1.59906e-06
7.00636e-06
-1.3814e-06
4.47128e-06
-1.15206e-06
5.26929e-06
-9.56049e-07
4.63379e-06
-7.56678e-07
4.62181e-06
-5.61555e-07
4.69162e-06
-3.65891e-07
4.50801e-06
-1.71829e-07
4.6642e-06
2.4264e-08
4.53072e-06
2.1877e-07
4.5676e-06
4.13103e-07
4.59091e-06
6.07192e-07
4.5339e-06
8.00626e-07
4.60593e-06
9.95021e-07
4.56575e-06
1.1885e-06
4.55795e-06
1.38309e-06
4.80998e-06
1.59455e-06
4.96916e-06
1.81016e-06
5.36265e-06
6.07732e-06
-1.94311e-06
5.09008e-06
-1.64083e-06
6.71276e-06
-1.42065e-06
4.2487e-06
-1.18512e-06
5.03823e-06
-9.83606e-07
4.42939e-06
-7.78653e-07
4.41941e-06
-5.77736e-07
4.4885e-06
-3.7682e-07
4.308e-06
-1.77137e-07
4.464e-06
2.41529e-08
4.32985e-06
2.24051e-07
4.36759e-06
4.23835e-07
4.39103e-06
6.23073e-07
4.33451e-06
8.22178e-07
4.40612e-06
1.02192e-06
4.36531e-06
1.22053e-06
4.35899e-06
1.42156e-06
4.6058e-06
1.63892e-06
4.75138e-06
1.86342e-06
5.12848e-06
5.80311e-06
-1.99694e-06
4.90351e-06
-1.68319e-06
6.40737e-06
-1.46094e-06
4.02331e-06
-1.21918e-06
4.80141e-06
-1.01202e-06
4.21886e-06
-8.01308e-07
4.2116e-06
-5.94439e-07
4.27932e-06
-3.88065e-07
4.10275e-06
-1.82569e-07
4.2579e-06
2.41026e-08
4.12364e-06
2.29565e-07
4.16198e-06
4.35e-07
4.18549e-06
6.39571e-07
4.12976e-06
8.44587e-07
4.2007e-06
1.04983e-06
4.15931e-06
1.25373e-06
4.15473e-06
1.46144e-06
4.39465e-06
1.68479e-06
4.52802e-06
1.91796e-06
4.88543e-06
5.52322e-06
-2.05254e-06
-1.72692e-06
-1.50284e-06
-1.25462e-06
-1.04163e-06
-8.24905e-07
-6.11862e-07
-3.99769e-07
-1.88197e-07
2.41002e-08
2.35362e-07
3.95056e-06
4.46711e-07
3.97402e-06
6.56861e-07
3.91939e-06
8.68088e-07
3.98915e-06
1.07904e-06
3.94752e-06
1.28845e-06
3.94494e-06
1.50314e-06
4.17622e-06
1.73268e-06
4.29898e-06
1.97437e-06
4.63358e-06
5.23722e-06
2.4151e-07
4.59113e-07
6.75169e-07
8.92985e-07
1.10992e-06
1.32518e-06
1.54721e-06
1.78324e-06
2.0334e-06
)
;

boundaryField
{
    fuel
    {
        type            calculated;
        value           nonuniform 0();
    }
    wall
    {
        type            calculated;
        value           nonuniform 0();
    }
    outlet
    {
        type            calculated;
        value           nonuniform List<scalar> 
25
(
1.63601e-06
1.70011e-06
1.76244e-06
1.82366e-06
1.88464e-06
1.94632e-06
2.00893e-06
2.07292e-06
2.13835e-06
2.2055e-06
2.27477e-06
1.53481e-06
1.59296e-06
1.65132e-06
1.70973e-06
1.76804e-06
1.82621e-06
1.88431e-06
1.9425e-06
2.00101e-06
2.06015e-06
2.12032e-06
2.18204e-06
2.24596e-06
2.31293e-06
)
;
    }
    frontAndBack
    {
        type            empty;
        value           nonuniform 0();
    }
    procBoundary0to1
    {
        type            processor;
        value           nonuniform List<scalar> 
21
(
4.70111e-06
6.08966e-06
3.79521e-06
4.55865e-06
4.00192e-06
3.99819e-06
4.06386e-06
3.89211e-06
4.04563e-06
3.91185e-06
-2.41326e-08
3.73299e-06
3.75628e-06
3.70309e-06
3.77101e-06
3.72964e-06
3.7293e-06
3.9501e-06
4.06395e-06
4.37297e-06
4.94458e-06
)
;
    }
    procBoundary0to2
    {
        type            processor;
        value           nonuniform List<scalar> 
12
(
-2.90451e-08
-6.40657e-06
-9.04974e-06
-6.07185e-06
-6.88877e-06
-6.06783e-06
-6.05437e-06
-6.10181e-06
-5.92795e-06
-6.06793e-06
-2.82192e-08
-5.95918e-06
)
;
    }
    procBoundary0to3
    {
        type            processor;
        value           nonuniform List<scalar> 10(-6.28053e-06 -6.30496e-06 -6.25367e-06 -6.3083e-06 -6.28071e-06 -6.27274e-06 -6.50584e-06 -6.81065e-06 -7.14279e-06 -8.5384e-06);
    }
}


// ************************************************************************* //
