/*--------------------------------*- C++ -*----------------------------------*\
| =========                 |                                                 |
| \\      /  F ield         | OpenFOAM: The Open Source CFD Toolbox           |
|  \\    /   O peration     | Version:  dev                                   |
|   \\  /    A nd           | Web:      www.OpenFOAM.org                      |
|    \\/     M anipulation  |                                                 |
\*---------------------------------------------------------------------------*/
FoamFile
{
    version     2.0;
    format      ascii;
    class       volScalarField;
    location    "0.08";
    object      A2C2H22;
}
// * * * * * * * * * * * * * * * * * * * * * * * * * * * * * * * * * * * * * //

dimensions      [0 0 0 0 0 0 0];

internalField   nonuniform List<scalar> 
25
(
1.77072e-21
1.26413e-21
9.11258e-22
6.68652e-22
5.04572e-22
3.95938e-22
3.28323e-22
2.87628e-22
2.66444e-22
2.5968e-22
2.63931e-22
2.76999e-22
2.97516e-22
3.24589e-22
3.57373e-22
3.95786e-22
4.38655e-22
4.84521e-22
5.29994e-22
5.74972e-22
6.17006e-22
6.53268e-22
6.78527e-22
6.93154e-22
6.962e-22
)
;

boundaryField
{
    wall
    {
        type            zeroGradient;
    }
    fuel
    {
        type            fixedValue;
        value           nonuniform 0();
    }
    outlet
    {
        type            inletOutlet;
        inletValue      nonuniform 0();
        value           nonuniform 0();
    }
    procBoundary1to0
    {
        type            processor;
        value           uniform 2.49618e-21;
    }
    procBoundary1to2
    {
        type            processor;
        value           uniform 6.85163e-22;
    }
}


// ************************************************************************* //
