/*--------------------------------*- C++ -*----------------------------------*\
| =========                 |                                                 |
| \\      /  F ield         | OpenFOAM: The Open Source CFD Toolbox           |
|  \\    /   O peration     | Version:  dev                                   |
|   \\  /    A nd           | Web:      www.OpenFOAM.org                      |
|    \\/     M anipulation  |                                                 |
\*---------------------------------------------------------------------------*/
FoamFile
{
    version     2.0;
    format      ascii;
    class       volScalarField;
    location    "0.08";
    object      A2R5;
}
// * * * * * * * * * * * * * * * * * * * * * * * * * * * * * * * * * * * * * //

dimensions      [0 0 0 0 0 0 0];

internalField   nonuniform List<scalar> 
25
(
3.64935e-14
2.94009e-14
2.39024e-14
1.96474e-14
1.63717e-14
1.38713e-14
1.2051e-14
1.07257e-14
9.81959e-15
9.27924e-15
9.07083e-15
9.17757e-15
9.59761e-15
1.03412e-14
1.14251e-14
1.29026e-14
1.48105e-14
1.71854e-14
1.99803e-14
2.33352e-14
2.73447e-14
3.21204e-14
3.74103e-14
4.34579e-14
5.04296e-14
)
;

boundaryField
{
    wall
    {
        type            zeroGradient;
    }
    fuel
    {
        type            fixedValue;
        value           nonuniform 0();
    }
    outlet
    {
        type            inletOutlet;
        inletValue      nonuniform 0();
        value           nonuniform 0();
    }
    procBoundary1to0
    {
        type            processor;
        value           uniform 4.56749e-14;
    }
    procBoundary1to2
    {
        type            processor;
        value           uniform 5.81847e-14;
    }
}


// ************************************************************************* //
