/*--------------------------------*- C++ -*----------------------------------*\
| =========                 |                                                 |
| \\      /  F ield         | OpenFOAM: The Open Source CFD Toolbox           |
|  \\    /   O peration     | Version:  dev                                   |
|   \\  /    A nd           | Web:      www.OpenFOAM.org                      |
|    \\/     M anipulation  |                                                 |
\*---------------------------------------------------------------------------*/
FoamFile
{
    version     2.0;
    format      ascii;
    class       volScalarField;
    location    "0.08";
    object      C2H3O;
}
// * * * * * * * * * * * * * * * * * * * * * * * * * * * * * * * * * * * * * //

dimensions      [0 0 0 0 0 0 0];

internalField   nonuniform List<scalar> 
25
(
2.79624e-13
2.17699e-13
1.73696e-13
1.41836e-13
1.1817e-13
1.00021e-13
8.60823e-14
7.47047e-14
6.52138e-14
5.71724e-14
5.02958e-14
4.43949e-14
3.93349e-14
3.50096e-14
3.1336e-14
2.81812e-14
2.55256e-14
2.33343e-14
2.16053e-14
2.0197e-14
1.9059e-14
1.81623e-14
1.75353e-14
1.71159e-14
1.68896e-14
)
;

boundaryField
{
    wall
    {
        type            zeroGradient;
    }
    fuel
    {
        type            fixedValue;
        value           nonuniform 0();
    }
    outlet
    {
        type            inletOutlet;
        inletValue      nonuniform 0();
        value           nonuniform 0();
    }
    procBoundary1to0
    {
        type            processor;
        value           uniform 3.68047e-13;
    }
    procBoundary1to2
    {
        type            processor;
        value           uniform 1.68502e-14;
    }
}


// ************************************************************************* //
