/*--------------------------------*- C++ -*----------------------------------*\
| =========                 |                                                 |
| \\      /  F ield         | OpenFOAM: The Open Source CFD Toolbox           |
|  \\    /   O peration     | Version:  dev                                   |
|   \\  /    A nd           | Web:      www.OpenFOAM.org                      |
|    \\/     M anipulation  |                                                 |
\*---------------------------------------------------------------------------*/
FoamFile
{
    version     2.0;
    format      ascii;
    class       volScalarField;
    location    "0.16";
    object      A4-;
}
// * * * * * * * * * * * * * * * * * * * * * * * * * * * * * * * * * * * * * //

dimensions      [0 0 0 0 0 0 0];

internalField   nonuniform List<scalar> 
50
(
3.3894e-16
2.8874e-16
2.45986e-16
2.09572e-16
1.78556e-16
1.52141e-16
1.29646e-16
1.10493e-16
9.41878e-17
8.03098e-17
6.84987e-17
5.84473e-17
4.98932e-17
4.26128e-17
3.64151e-17
3.1138e-17
2.6643e-17
2.28128e-17
1.95476e-17
1.67625e-17
1.43857e-17
1.23561e-17
1.06219e-17
9.13909e-18
7.87043e-18
6.7842e-18
5.85348e-18
5.05542e-18
4.37057e-18
3.7824e-18
3.27686e-18
2.84197e-18
2.46754e-18
2.14487e-18
1.86655e-18
1.62627e-18
1.41864e-18
1.23903e-18
1.08353e-18
9.48757e-19
8.31833e-19
7.30286e-19
6.41994e-19
5.65132e-19
4.98754e-19
4.4032e-19
3.8923e-19
3.44518e-19
3.0532e-19
2.7089e-19
)
;

boundaryField
{
    wall
    {
        type            zeroGradient;
    }
    fuel
    {
        type            fixedValue;
        value           nonuniform 0();
    }
    outlet
    {
        type            inletOutlet;
        inletValue      nonuniform 0();
        value           nonuniform 0();
    }
    procBoundary1to0
    {
        type            processor;
        value           uniform 3.91093e-16;
    }
    procBoundary1to2
    {
        type            processor;
        value           uniform 2.40805e-19;
    }
}


// ************************************************************************* //
