/*--------------------------------*- C++ -*----------------------------------*\
| =========                 |                                                 |
| \\      /  F ield         | OpenFOAM: The Open Source CFD Toolbox           |
|  \\    /   O peration     | Version:  dev                                   |
|   \\  /    A nd           | Web:      www.OpenFOAM.org                      |
|    \\/     M anipulation  |                                                 |
\*---------------------------------------------------------------------------*/
FoamFile
{
    version     2.0;
    format      ascii;
    class       volScalarField;
    location    "0.16";
    object      C4H;
}
// * * * * * * * * * * * * * * * * * * * * * * * * * * * * * * * * * * * * * //

dimensions      [0 0 0 0 0 0 0];

internalField   nonuniform List<scalar> 
250
(
7.03279e-10
7.25358e-10
5.96203e-10
6.09882e-10
5.47533e-10
5.40754e-10
5.37319e-10
5.22025e-10
5.33819e-10
5.1792e-10
4.58913e-10
4.63163e-10
3.72581e-10
3.8248e-10
3.41142e-10
3.36883e-10
3.34452e-10
3.24165e-10
3.32372e-10
3.21427e-10
3.22643e-10
3.29617e-10
3.23205e-10
3.32698e-10
3.277e-10
3.49199e-10
3.40069e-10
4.18759e-10
3.44448e-10
4.27279e-10
2.79224e-10
2.76591e-10
2.17905e-10
2.24682e-10
1.99092e-10
1.96632e-10
1.94933e-10
1.88482e-10
1.93808e-10
1.86772e-10
1.87555e-10
1.92036e-10
1.87859e-10
1.93931e-10
1.90634e-10
2.04322e-10
1.98338e-10
2.48355e-10
2.04379e-10
2.68231e-10
1.56776e-10
1.52769e-10
1.17906e-10
1.22243e-10
1.07632e-10
1.06353e-10
1.05151e-10
1.01419e-10
1.0461e-10
1.0043e-10
1.00895e-10
1.03559e-10
1.01043e-10
1.04626e-10
1.02623e-10
1.10767e-10
1.07123e-10
1.36293e-10
1.12214e-10
1.55044e-10
8.00019e-11
7.68113e-11
5.80527e-11
6.01901e-11
5.23511e-11
5.17591e-11
5.16232e-11
4.96625e-11
5.14029e-11
4.91415e-11
4.93924e-11
5.08355e-11
4.94563e-11
5.1378e-11
5.02702e-11
5.40088e-11
5.21368e-11
6.80767e-11
5.57186e-11
8.12342e-11
3.6264e-11
3.4339e-11
2.53936e-11
2.64733e-11
2.28312e-11
2.25988e-11
2.25101e-11
2.15951e-11
2.24388e-11
2.13506e-11
2.14712e-11
2.21671e-11
2.14942e-11
2.24102e-11
2.18663e-11
2.36268e-11
2.27149e-11
3.02303e-11
2.46858e-11
3.7719e-11
1.41066e-11
1.31757e-11
9.52069e-12
9.98603e-12
8.5315e-12
8.45606e-12
8.40965e-12
8.04376e-12
8.39452e-12
7.94517e-12
7.99485e-12
8.2831e-12
8.00119e-12
8.37592e-12
8.14674e-12
8.8597e-12
8.47751e-12
1.1519e-11
9.36714e-12
1.4995e-11
4.46654e-12
4.11385e-12
2.90122e-12
3.06346e-12
2.59028e-12
2.57134e-12
2.55289e-12
2.43418e-12
2.55259e-12
2.40186e-12
2.41844e-12
2.51559e-12
2.41951e-12
2.54421e-12
2.46557e-12
2.70088e-12
2.56972e-12
3.57215e-12
2.88497e-12
4.84152e-12
1.06248e-12
9.65701e-13
6.65247e-13
7.07497e-13
5.91971e-13
5.88685e-13
5.83451e-13
5.54664e-13
5.84546e-13
5.46725e-13
5.50855e-13
5.75393e-13
5.50856e-13
5.8197e-13
5.61715e-13
6.20073e-13
5.86037e-13
8.33967e-13
6.67049e-13
1.17173e-12
1.70237e-13
1.53161e-13
1.03704e-13
1.11019e-13
9.21131e-14
9.17844e-14
9.082e-14
8.61483e-14
9.11894e-14
8.48387e-14
8.55271e-14
8.96796e-14
8.54831e-14
9.06911e-14
8.71927e-14
9.69144e-14
9.09669e-14
1.31999e-13
1.04539e-13
1.90254e-13
1.54506e-14
1.37563e-14
9.15881e-15
9.86201e-15
8.10914e-15
8.09662e-15
7.99756e-15
7.56914e-15
8.04933e-15
7.44624e-15
7.51148e-15
7.9087e-15
7.50345e-15
7.99679e-15
7.65532e-15
8.57402e-15
7.98706e-15
1.18329e-14
9.26922e-15
1.7429e-14
5.44718e-16
4.80192e-16
3.15717e-16
3.41201e-16
2.78762e-16
2.78849e-16
2.75055e-16
2.60036e-16
2.77377e-16
2.55639e-16
2.57943e-16
2.7247e-16
2.57495e-16
2.75536e-16
2.62554e-16
2.96477e-16
2.7343e-16
4.14211e-16
3.18867e-16
6.22379e-16
6.44434e-18
5.65596e-18
3.68275e-18
3.9925e-18
3.24467e-18
3.25013e-18
3.20341e-18
3.02748e-18
3.23299e-18
2.97591e-18
3.00129e-18
3.17827e-18
2.99326e-18
3.21687e-18
3.04776e-18
3.47889e-18
3.16042e-18
4.93575e-18
3.67372e-18
7.55903e-18
)
;

boundaryField
{
    fuel
    {
        type            fixedValue;
        value           nonuniform 0();
    }
    wall
    {
        type            zeroGradient;
    }
    outlet
    {
        type            zeroGradient;
    }
    frontAndBack
    {
        type            empty;
    }
    procBoundary1to0
    {
        type            processor;
        value           nonuniform List<scalar> 
21
(
1.01197e-09
1.07075e-09
9.00429e-10
9.1854e-10
8.3001e-10
8.19989e-10
8.15221e-10
7.93906e-10
8.09791e-10
7.88104e-10
5.19657e-10
5.19657e-10
5.2983e-10
5.20604e-10
5.34515e-10
5.27348e-10
5.59349e-10
5.45837e-10
6.61856e-10
5.42738e-10
6.35099e-10
)
;
    }
}


// ************************************************************************* //
