/*--------------------------------*- C++ -*----------------------------------*\
| =========                 |                                                 |
| \\      /  F ield         | OpenFOAM: The Open Source CFD Toolbox           |
|  \\    /   O peration     | Version:  dev                                   |
|   \\  /    A nd           | Web:      www.OpenFOAM.org                      |
|    \\/     M anipulation  |                                                 |
\*---------------------------------------------------------------------------*/
FoamFile
{
    version     2.0;
    format      ascii;
    class       volScalarField;
    location    "0.16";
    object      dQ;
}
// * * * * * * * * * * * * * * * * * * * * * * * * * * * * * * * * * * * * * //

dimensions      [1 2 -3 0 0 0 0];

internalField   nonuniform List<scalar> 
250
(
0.00325068
0.00354951
0.00346227
0.00356223
0.00342336
0.00341321
0.0034101
0.00336825
0.00340011
0.00335952
0.00308775
0.00330391
0.0031391
0.00322609
0.00307964
0.0030676
0.00306338
0.00302036
0.00305421
0.003011
0.00301694
0.00304392
0.00301861
0.00305438
0.00303533
0.00310869
0.00306099
0.00327378
0.00289595
0.00293027
0.00285193
0.00298878
0.00279796
0.00286704
0.00273592
0.00272439
0.00271914
0.00268119
0.00271162
0.0026728
0.00267821
0.00270203
0.00267966
0.00271119
0.00269461
0.00276051
0.00272341
0.00292591
0.00262868
0.00271996
0.00263436
0.00271398
0.00254094
0.00259247
0.00249036
0.00248066
0.00247292
0.00244317
0.00246697
0.00243659
0.00244095
0.0024593
0.00244213
0.00246634
0.002454
0.00250824
0.00248236
0.00264244
0.00243016
0.0025299
0.00251026
0.00256069
0.0024249
0.00245646
0.00237773
0.00236975
0.00237184
0.00234963
0.00236685
0.00234475
0.00234802
0.00236115
0.00234901
0.00236632
0.00235811
0.00238852
0.00237409
0.00249559
0.00234344
0.00242226
0.00250703
0.00255075
0.00244613
0.00247105
0.00240905
0.00240214
0.00240368
0.00238554
0.00239896
0.00238152
0.00238412
0.00239436
0.00238504
0.00239858
0.00239278
0.00241562
0.00240653
0.00249648
0.00238002
0.00242843
0.00260038
0.00264765
0.00255125
0.0025774
0.00251694
0.00251044
0.00251129
0.00249277
0.00250656
0.00248848
0.00249109
0.00250174
0.002492
0.00250606
0.0025001
0.00252278
0.00251413
0.0025994
0.00249026
0.00253261
0.00272198
0.00276965
0.00264951
0.00268402
0.00260942
0.00260312
0.00260261
0.00257928
0.00259823
0.00257351
0.00257687
0.00259173
0.00257775
0.00259705
0.00258778
0.00261874
0.00260507
0.00271695
0.00259233
0.00267448
0.00273213
0.00276571
0.00258974
0.00263784
0.00253676
0.00253111
0.00252831
0.00249716
0.00252542
0.00248899
0.0024937
0.00251612
0.00249439
0.00252288
0.0025072
0.00255388
0.00252977
0.00269691
0.00254135
0.00272045
0.00240156
0.00240856
0.00218722
0.00224398
0.0021266
0.00212266
0.00211776
0.00208263
0.00211744
0.002073
0.00207866
0.00210635
0.00207894
0.00211343
0.00209277
0.0021502
0.00211772
0.00232586
0.00215435
0.00242967
0.0016831
0.00166885
0.00147171
0.0015193
0.00142001
0.00141809
0.00141299
0.0013838
0.00141479
0.00137543
0.00138061
0.001405
0.0013806
0.00141031
0.00139178
0.00144132
0.00141274
0.00159381
0.00145764
0.00172157
0.000802368
0.000782906
0.000673289
0.000697153
0.000644645
0.00064401
0.000640952
0.000625644
0.000642821
0.000620998
0.00062407
0.000637318
0.000624055
0.000639779
0.000629848
0.000655962
0.000641406
0.000737887
0.000672198
0.000822804
0.000240558
0.000231326
0.000200593
0.000206218
0.000192012
0.000191703
0.000190831
0.000186463
0.000191526
0.000185021
0.000186104
0.000189745
0.000186205
0.000190293
0.000187949
0.000194377
0.000191814
0.000215928
0.000202593
0.000240982
)
;

boundaryField
{
    fuel
    {
        type            calculated;
        value           nonuniform 0();
    }
    wall
    {
        type            calculated;
        value           uniform 0;
    }
    outlet
    {
        type            calculated;
        value           uniform 0;
    }
    frontAndBack
    {
        type            empty;
    }
    procBoundary1to0
    {
        type            processor;
        value           uniform 0;
    }
}


// ************************************************************************* //
