/*--------------------------------*- C++ -*----------------------------------*\
| =========                 |                                                 |
| \\      /  F ield         | OpenFOAM: The Open Source CFD Toolbox           |
|  \\    /   O peration     | Version:  dev                                   |
|   \\  /    A nd           | Web:      www.OpenFOAM.org                      |
|    \\/     M anipulation  |                                                 |
\*---------------------------------------------------------------------------*/
FoamFile
{
    version     2.0;
    format      ascii;
    class       volScalarField;
    location    "0.16";
    object      H2;
}
// * * * * * * * * * * * * * * * * * * * * * * * * * * * * * * * * * * * * * //

dimensions      [0 0 0 0 0 0 0];

internalField   nonuniform List<scalar> 
250
(
0.00913718
0.00929282
0.00932982
0.00936351
0.00936953
0.00937405
0.00937385
0.00937479
0.00937467
0.00937501
0.00917896
0.00930816
0.00934146
0.00936993
0.00937574
0.00937943
0.00937944
0.00938018
0.00938014
0.00938041
0.00938063
0.00937986
0.00938023
0.00937923
0.00937886
0.00937587
0.00936599
0.00934531
0.00928406
0.00920818
0.00921461
0.00932069
0.00935061
0.00937428
0.00937986
0.00938279
0.00938299
0.00938354
0.00938358
0.00938378
0.00938397
0.00938338
0.00938361
0.00938282
0.00938245
0.0093798
0.00937143
0.00935305
0.00929967
0.00923124
0.00924439
0.00933057
0.00935731
0.00937669
0.00938198
0.00938425
0.0093846
0.009385
0.0093851
0.00938524
0.0093854
0.00938497
0.00938508
0.00938447
0.00938411
0.00938179
0.00937479
0.0093586
0.0093127
0.00925179
0.00926874
0.00933805
0.00936174
0.00937742
0.00938236
0.00938409
0.00938455
0.00938482
0.00938498
0.00938507
0.0093852
0.0093849
0.00938491
0.00938445
0.0093841
0.00938207
0.00937629
0.00936219
0.00932324
0.0092698
0.0092882
0.00934354
0.00936426
0.00937686
0.00938137
0.0093827
0.00938323
0.00938341
0.0093836
0.00938367
0.00938377
0.00938356
0.0093835
0.00938315
0.00938282
0.00938106
0.00937631
0.00936418
0.00933156
0.00928538
0.00930388
0.00934753
0.00936537
0.00937551
0.00937952
0.00938057
0.00938112
0.00938125
0.00938146
0.00938152
0.00938159
0.00938145
0.00938134
0.00938107
0.00938075
0.00937924
0.00937533
0.00936504
0.00933807
0.0092988
0.00931604
0.00935056
0.00936564
0.00937387
0.00937734
0.00937823
0.00937875
0.00937888
0.00937907
0.00937914
0.00937919
0.00937907
0.00937895
0.00937873
0.00937843
0.00937714
0.00937391
0.00936531
0.00934328
0.00931044
0.00932584
0.00935311
0.00936566
0.00937241
0.00937533
0.00937613
0.0093766
0.00937674
0.00937691
0.00937699
0.00937703
0.00937692
0.00937681
0.0093766
0.00937632
0.00937522
0.00937254
0.00936547
0.00934769
0.00932068
0.00933397
0.00935554
0.00936585
0.00937146
0.00937386
0.00937461
0.00937501
0.00937517
0.00937532
0.00937542
0.00937544
0.00937532
0.00937523
0.00937503
0.00937477
0.00937384
0.00937161
0.00936586
0.00935168
0.00932981
0.00934085
0.00935796
0.00936643
0.00937109
0.00937306
0.00937376
0.0093741
0.00937428
0.00937441
0.00937452
0.00937453
0.00937441
0.00937433
0.00937414
0.0093739
0.00937311
0.00937125
0.0093666
0.00935541
0.00933788
0.00934646
0.00936019
0.00936729
0.00937118
0.00937282
0.00937346
0.00937376
0.00937395
0.00937406
0.00937417
0.00937418
0.00937406
0.00937398
0.00937381
0.00937358
0.00937291
0.00937134
0.00936755
0.0093587
0.00934458
0.00935017
0.00936177
0.00936803
0.00937139
0.00937284
0.00937343
0.00937371
0.00937389
0.00937399
0.0093741
0.0093741
0.009374
0.00937392
0.00937376
0.00937354
0.00937295
0.00937158
0.0093683
0.00936097
0.00934903
)
;

boundaryField
{
    fuel
    {
        type            fixedValue;
        value           nonuniform 0();
    }
    wall
    {
        type            zeroGradient;
    }
    outlet
    {
        type            zeroGradient;
    }
    frontAndBack
    {
        type            empty;
    }
    procBoundary1to0
    {
        type            processor;
        value           nonuniform List<scalar> 
21
(
0.0090886
0.00927469
0.00931572
0.00935504
0.00936124
0.00936666
0.00936622
0.00936738
0.00936718
0.00936759
0.00937526
0.00937526
0.00937432
0.00937482
0.00937361
0.00937322
0.00936988
0.00935839
0.00933531
0.00926595
0.00918292
)
;
    }
}


// ************************************************************************* //
