/*--------------------------------*- C++ -*----------------------------------*\
| =========                 |                                                 |
| \\      /  F ield         | OpenFOAM: The Open Source CFD Toolbox           |
|  \\    /   O peration     | Version:  dev                                   |
|   \\  /    A nd           | Web:      www.OpenFOAM.org                      |
|    \\/     M anipulation  |                                                 |
\*---------------------------------------------------------------------------*/
FoamFile
{
    version     2.0;
    format      ascii;
    class       volScalarField;
    location    "0.16";
    object      H2O2;
}
// * * * * * * * * * * * * * * * * * * * * * * * * * * * * * * * * * * * * * //

dimensions      [0 0 0 0 0 0 0];

internalField   nonuniform List<scalar> 
50
(
2.09011e-09
2.05836e-09
2.02614e-09
1.9935e-09
1.96053e-09
1.92726e-09
1.89377e-09
1.86011e-09
1.82631e-09
1.79244e-09
1.75854e-09
1.72464e-09
1.69079e-09
1.65702e-09
1.62338e-09
1.58989e-09
1.55659e-09
1.5235e-09
1.49065e-09
1.45807e-09
1.42578e-09
1.39381e-09
1.36216e-09
1.33087e-09
1.29995e-09
1.26942e-09
1.23928e-09
1.20956e-09
1.18026e-09
1.15141e-09
1.123e-09
1.09505e-09
1.06756e-09
1.04055e-09
1.01401e-09
9.87966e-10
9.62409e-10
9.37347e-10
9.12784e-10
8.88721e-10
8.65161e-10
8.42105e-10
8.19552e-10
7.97501e-10
7.76151e-10
7.55101e-10
7.34529e-10
7.14443e-10
6.94841e-10
6.75718e-10
)
;

boundaryField
{
    wall
    {
        type            zeroGradient;
    }
    fuel
    {
        type            fixedValue;
        value           nonuniform 0();
    }
    outlet
    {
        type            inletOutlet;
        inletValue      nonuniform 0();
        value           nonuniform 0();
    }
    procBoundary1to0
    {
        type            processor;
        value           uniform 2.12135e-09;
    }
    procBoundary1to2
    {
        type            processor;
        value           uniform 6.57086e-10;
    }
}


// ************************************************************************* //
