/*--------------------------------*- C++ -*----------------------------------*\
| =========                 |                                                 |
| \\      /  F ield         | OpenFOAM: The Open Source CFD Toolbox           |
|  \\    /   O peration     | Version:  dev                                   |
|   \\  /    A nd           | Web:      www.OpenFOAM.org                      |
|    \\/     M anipulation  |                                                 |
\*---------------------------------------------------------------------------*/
FoamFile
{
    version     2.0;
    format      ascii;
    class       volScalarField;
    location    "0.16";
    object      HCO;
}
// * * * * * * * * * * * * * * * * * * * * * * * * * * * * * * * * * * * * * //

dimensions      [0 0 0 0 0 0 0];

internalField   nonuniform List<scalar> 
50
(
2.80791e-07
2.78759e-07
2.76692e-07
2.74594e-07
2.72467e-07
2.70313e-07
2.68134e-07
2.65933e-07
2.63709e-07
2.61467e-07
2.59206e-07
2.56929e-07
2.54636e-07
2.52331e-07
2.50014e-07
2.47687e-07
2.45351e-07
2.43008e-07
2.40658e-07
2.38305e-07
2.35948e-07
2.33589e-07
2.3123e-07
2.28872e-07
2.26516e-07
2.24162e-07
2.21814e-07
2.19471e-07
2.17134e-07
2.14806e-07
2.12487e-07
2.10178e-07
2.07881e-07
2.05596e-07
2.03324e-07
2.01068e-07
1.98827e-07
1.96603e-07
1.94398e-07
1.92211e-07
1.90044e-07
1.87898e-07
1.85775e-07
1.83674e-07
1.81616e-07
1.79564e-07
1.77535e-07
1.7553e-07
1.73551e-07
1.71598e-07
)
;

boundaryField
{
    wall
    {
        type            zeroGradient;
    }
    fuel
    {
        type            fixedValue;
        value           nonuniform 0();
    }
    outlet
    {
        type            inletOutlet;
        inletValue      nonuniform 0();
        value           nonuniform 0();
    }
    procBoundary1to0
    {
        type            processor;
        value           uniform 2.82799e-07;
    }
    procBoundary1to2
    {
        type            processor;
        value           uniform 1.69677e-07;
    }
}


// ************************************************************************* //
