/*--------------------------------*- C++ -*----------------------------------*\
| =========                 |                                                 |
| \\      /  F ield         | OpenFOAM: The Open Source CFD Toolbox           |
|  \\    /   O peration     | Version:  dev                                   |
|   \\  /    A nd           | Web:      www.OpenFOAM.org                      |
|    \\/     M anipulation  |                                                 |
\*---------------------------------------------------------------------------*/
FoamFile
{
    version     2.0;
    format      ascii;
    class       volScalarField;
    location    "0.16";
    object      i-C4H5;
}
// * * * * * * * * * * * * * * * * * * * * * * * * * * * * * * * * * * * * * //

dimensions      [0 0 0 0 0 0 0];

internalField   nonuniform List<scalar> 
250
(
9.17482e-11
8.71373e-11
9.03702e-11
8.68166e-11
9.03436e-11
9.05116e-11
9.08358e-11
9.22126e-11
9.09213e-11
9.25866e-11
1.22673e-10
1.19001e-10
1.29311e-10
1.24034e-10
1.31343e-10
1.31736e-10
1.32451e-10
1.3506e-10
1.32574e-10
1.35775e-10
1.35383e-10
1.3341e-10
1.35297e-10
1.32736e-10
1.34231e-10
1.29179e-10
1.32491e-10
1.19289e-10
1.35904e-10
1.21434e-10
1.83657e-10
1.82581e-10
2.0606e-10
1.97736e-10
2.11783e-10
2.12473e-10
2.13984e-10
2.18779e-10
2.14091e-10
2.20105e-10
2.19359e-10
2.15643e-10
2.19231e-10
2.14443e-10
2.17308e-10
2.07685e-10
2.13442e-10
1.8701e-10
2.12666e-10
1.76939e-10
3.03707e-10
3.08976e-10
3.56771e-10
3.43263e-10
3.69179e-10
3.70185e-10
3.73213e-10
3.81794e-10
3.73124e-10
3.84187e-10
3.82812e-10
3.75953e-10
3.82642e-10
3.73881e-10
3.7928e-10
3.61516e-10
3.71714e-10
3.21421e-10
3.61541e-10
2.86799e-10
5.40809e-10
5.6048e-10
6.52833e-10
6.33208e-10
6.82434e-10
6.83824e-10
6.84409e-10
6.99452e-10
6.83667e-10
7.03695e-10
7.01219e-10
6.88721e-10
7.01039e-10
6.85219e-10
6.95312e-10
6.68372e-10
6.85628e-10
5.88171e-10
6.53824e-10
5.04636e-10
1.01601e-09
1.06725e-09
1.24239e-09
1.20936e-09
1.29699e-09
1.29847e-09
1.30171e-09
1.32803e-09
1.29928e-09
1.33554e-09
1.33113e-09
1.30825e-09
1.33105e-09
1.30235e-09
1.32134e-09
1.27052e-09
1.30236e-09
1.12364e-09
1.22925e-09
9.42846e-10
2.00727e-09
2.12796e-09
2.46452e-09
2.40755e-09
2.56826e-09
2.56932e-09
2.57749e-09
2.62454e-09
2.57093e-09
2.63817e-09
2.63024e-09
2.58711e-09
2.63057e-09
2.57694e-09
2.6138e-09
2.51666e-09
2.57777e-09
2.24061e-09
2.41936e-09
1.8613e-09
4.23764e-09
4.51828e-09
5.19668e-09
5.09261e-09
5.40578e-09
5.40475e-09
5.42379e-09
5.51261e-09
5.40677e-09
5.53884e-09
5.52388e-09
5.43745e-09
5.5255e-09
5.41906e-09
5.49492e-09
5.2989e-09
5.42394e-09
4.75117e-09
5.07789e-09
3.94128e-09
9.96618e-09
1.066e-08
1.21609e-08
1.19522e-08
1.26258e-08
1.26163e-08
1.2663e-08
1.28459e-08
1.26173e-08
1.29013e-08
1.28709e-08
1.26805e-08
1.28766e-08
1.26447e-08
1.28158e-08
1.23828e-08
1.26637e-08
1.11895e-08
1.18548e-08
9.328e-09
2.73896e-08
2.91574e-08
3.24466e-08
3.20492e-08
3.3428e-08
3.33788e-08
3.34873e-08
3.38229e-08
3.33678e-08
3.39263e-08
3.38766e-08
3.34824e-08
3.38962e-08
3.34196e-08
3.37957e-08
3.28742e-08
3.35124e-08
3.03362e-08
3.16889e-08
2.5932e-08
7.39375e-08
7.66728e-08
7.9569e-08
7.94399e-08
8.02242e-08
8.00403e-08
8.01434e-08
8.01464e-08
7.99755e-08
8.01382e-08
8.0195e-08
7.99442e-08
8.02517e-08
7.99246e-08
8.03287e-08
7.94842e-08
8.03873e-08
7.73812e-08
7.85395e-08
7.13737e-08
1.28466e-07
1.29438e-07
1.27001e-07
1.2757e-07
1.25872e-07
1.25479e-07
1.25468e-07
1.24541e-07
1.25421e-07
1.2421e-07
1.24567e-07
1.24955e-07
1.24682e-07
1.25033e-07
1.25162e-07
1.25284e-07
1.26187e-07
1.26908e-07
1.26832e-07
1.25302e-07
1.5544e-07
1.54491e-07
1.4943e-07
1.4993e-07
1.47236e-07
1.46628e-07
1.4662e-07
1.45154e-07
1.46685e-07
1.4462e-07
1.45233e-07
1.45909e-07
1.45409e-07
1.46017e-07
1.46107e-07
1.46578e-07
1.47731e-07
1.49903e-07
1.50107e-07
1.51456e-07
)
;

boundaryField
{
    fuel
    {
        type            fixedValue;
        value           nonuniform 0();
    }
    wall
    {
        type            zeroGradient;
    }
    outlet
    {
        type            zeroGradient;
    }
    frontAndBack
    {
        type            empty;
    }
    procBoundary1to0
    {
        type            processor;
        value           nonuniform List<scalar> 
21
(
7.62762e-11
7.14126e-11
7.07905e-11
6.81807e-11
6.95822e-11
6.9597e-11
6.97335e-11
7.04245e-11
6.97726e-11
7.0609e-11
9.23822e-11
9.23822e-11
9.13584e-11
9.23293e-11
9.09929e-11
9.17592e-11
8.92101e-11
9.11981e-11
8.5253e-11
9.6346e-11
9.3626e-11
)
;
    }
}


// ************************************************************************* //
