/*--------------------------------*- C++ -*----------------------------------*\
| =========                 |                                                 |
| \\      /  F ield         | OpenFOAM: The Open Source CFD Toolbox           |
|  \\    /   O peration     | Version:  dev                                   |
|   \\  /    A nd           | Web:      www.OpenFOAM.org                      |
|    \\/     M anipulation  |                                                 |
\*---------------------------------------------------------------------------*/
FoamFile
{
    version     2.0;
    format      ascii;
    class       volScalarField;
    location    "0.16";
    object      n-C6H5;
}
// * * * * * * * * * * * * * * * * * * * * * * * * * * * * * * * * * * * * * //

dimensions      [0 0 0 0 0 0 0];

internalField   nonuniform List<scalar> 
50
(
8.74821e-19
7.71048e-19
6.80214e-19
6.00315e-19
5.29834e-19
4.67568e-19
4.12525e-19
3.63865e-19
3.20859e-19
2.82867e-19
2.49325e-19
2.19728e-19
1.93626e-19
1.70619e-19
1.50347e-19
1.32493e-19
1.16772e-19
1.02933e-19
9.07523e-20
8.0032e-20
7.05974e-20
6.22942e-20
5.49863e-20
4.85537e-20
4.28907e-20
3.79044e-20
3.3513e-20
2.96444e-20
2.62357e-20
2.32311e-20
2.05819e-20
1.82453e-20
1.61837e-20
1.43639e-20
1.27569e-20
1.13373e-20
1.00826e-20
8.97319e-21
7.99178e-21
7.12319e-21
6.35404e-21
5.6726e-21
5.06848e-21
4.53254e-21
4.06114e-21
3.63866e-21
3.26281e-21
2.92831e-21
2.63023e-21
2.3642e-21
)
;

boundaryField
{
    wall
    {
        type            zeroGradient;
    }
    fuel
    {
        type            fixedValue;
        value           nonuniform 0();
    }
    outlet
    {
        type            inletOutlet;
        inletValue      nonuniform 0();
        value           nonuniform 0();
    }
    procBoundary1to0
    {
        type            processor;
        value           uniform 9.84403e-19;
    }
    procBoundary1to2
    {
        type            processor;
        value           uniform 2.12806e-21;
    }
}


// ************************************************************************* //
