/*--------------------------------*- C++ -*----------------------------------*\
| =========                 |                                                 |
| \\      /  F ield         | OpenFOAM: The Open Source CFD Toolbox           |
|  \\    /   O peration     | Version:  dev                                   |
|   \\  /    A nd           | Web:      www.OpenFOAM.org                      |
|    \\/     M anipulation  |                                                 |
\*---------------------------------------------------------------------------*/
FoamFile
{
    version     2.0;
    format      ascii;
    class       volScalarField;
    location    "0.16";
    object      naphthyne;
}
// * * * * * * * * * * * * * * * * * * * * * * * * * * * * * * * * * * * * * //

dimensions      [0 0 0 0 0 0 0];

internalField   nonuniform List<scalar> 
250
(
2.43672e-09
1.82389e-09
1.47747e-09
1.36894e-09
1.33258e-09
1.32225e-09
1.31993e-09
1.31936e-09
1.31807e-09
1.31825e-09
2.28315e-09
1.74474e-09
1.43854e-09
1.34489e-09
1.31034e-09
1.30099e-09
1.29868e-09
1.29747e-09
1.29688e-09
1.29634e-09
1.29622e-09
1.29637e-09
1.29663e-09
1.29773e-09
1.29873e-09
1.30881e-09
1.33672e-09
1.44569e-09
1.71665e-09
2.78748e-09
2.13283e-09
1.66047e-09
1.39229e-09
1.31184e-09
1.28046e-09
1.27222e-09
1.27e-09
1.26862e-09
1.26836e-09
1.26759e-09
1.26749e-09
1.26785e-09
1.26782e-09
1.26922e-09
1.2699e-09
1.27977e-09
1.30315e-09
1.39872e-09
1.61653e-09
2.43697e-09
1.9941e-09
1.57988e-09
1.34746e-09
1.27835e-09
1.25114e-09
1.24404e-09
1.24195e-09
1.24077e-09
1.24051e-09
1.23992e-09
1.23978e-09
1.24008e-09
1.24003e-09
1.24133e-09
1.24193e-09
1.25085e-09
1.27065e-09
1.352e-09
1.52899e-09
2.15722e-09
1.87343e-09
1.51013e-09
1.31055e-09
1.25083e-09
1.22792e-09
1.2219e-09
1.22041e-09
1.2196e-09
1.21917e-09
1.21895e-09
1.21876e-09
1.21885e-09
1.21892e-09
1.21992e-09
1.22058e-09
1.22769e-09
1.24475e-09
1.31247e-09
1.45736e-09
1.93833e-09
1.77276e-09
1.45444e-09
1.28417e-09
1.23285e-09
1.21406e-09
1.20898e-09
1.20766e-09
1.20718e-09
1.20658e-09
1.20671e-09
1.20648e-09
1.20634e-09
1.20657e-09
1.20723e-09
1.208e-09
1.21372e-09
1.22854e-09
1.28357e-09
1.40352e-09
1.77088e-09
1.6892e-09
1.41152e-09
1.26699e-09
1.22322e-09
1.20783e-09
1.20354e-09
1.20236e-09
1.2021e-09
1.20142e-09
1.20175e-09
1.2015e-09
1.2012e-09
1.20152e-09
1.20194e-09
1.20277e-09
1.20736e-09
1.22021e-09
1.26464e-09
1.36391e-09
1.64454e-09
1.61705e-09
1.37725e-09
1.25547e-09
1.21865e-09
1.20593e-09
1.20231e-09
1.20127e-09
1.20107e-09
1.20044e-09
1.20079e-09
1.20054e-09
1.20019e-09
1.20051e-09
1.20082e-09
1.20163e-09
1.2054e-09
1.2164e-09
1.25236e-09
1.33395e-09
1.54874e-09
1.55144e-09
1.34763e-09
1.24642e-09
1.21593e-09
1.20539e-09
1.20236e-09
1.20143e-09
1.20123e-09
1.2007e-09
1.201e-09
1.20076e-09
1.20041e-09
1.20068e-09
1.20094e-09
1.20169e-09
1.20483e-09
1.21412e-09
1.24327e-09
1.30976e-09
1.47452e-09
1.49076e-09
1.32092e-09
1.23844e-09
1.21359e-09
1.20492e-09
1.20239e-09
1.20157e-09
1.20136e-09
1.20093e-09
1.20116e-09
1.20093e-09
1.20059e-09
1.2008e-09
1.20104e-09
1.20172e-09
1.20435e-09
1.21209e-09
1.23563e-09
1.28955e-09
1.41626e-09
1.43646e-09
1.29749e-09
1.23154e-09
1.21149e-09
1.20442e-09
1.2023e-09
1.20159e-09
1.20136e-09
1.20102e-09
1.2012e-09
1.20098e-09
1.20064e-09
1.20081e-09
1.20102e-09
1.20162e-09
1.20382e-09
1.21026e-09
1.2292e-09
1.27303e-09
1.37125e-09
1.39167e-09
1.27851e-09
1.22608e-09
1.20981e-09
1.20401e-09
1.20221e-09
1.20158e-09
1.20135e-09
1.20107e-09
1.20121e-09
1.201e-09
1.20066e-09
1.2008e-09
1.20098e-09
1.20152e-09
1.20338e-09
1.20878e-09
1.22421e-09
1.26045e-09
1.33843e-09
1.36187e-09
1.26606e-09
1.22257e-09
1.20874e-09
1.20375e-09
1.20214e-09
1.20158e-09
1.20134e-09
1.2011e-09
1.20121e-09
1.201e-09
1.20067e-09
1.20079e-09
1.20096e-09
1.20145e-09
1.20308e-09
1.20783e-09
1.22104e-09
1.25258e-09
1.31852e-09
)
;

boundaryField
{
    fuel
    {
        type            fixedValue;
        value           nonuniform 0();
    }
    wall
    {
        type            zeroGradient;
    }
    outlet
    {
        type            zeroGradient;
    }
    frontAndBack
    {
        type            empty;
    }
    procBoundary1to0
    {
        type            processor;
        value           nonuniform List<scalar> 
21
(
2.58744e-09
1.89096e-09
1.50087e-09
1.37625e-09
1.33937e-09
1.32826e-09
1.32603e-09
1.32651e-09
1.32422e-09
1.32554e-09
1.31804e-09
1.31804e-09
1.31766e-09
1.3185e-09
1.31886e-09
1.32041e-09
1.32978e-09
1.36314e-09
1.48434e-09
1.8231e-09
3.22096e-09
)
;
    }
}


// ************************************************************************* //
