/*--------------------------------*- C++ -*----------------------------------*\
| =========                 |                                                 |
| \\      /  F ield         | OpenFOAM: The Open Source CFD Toolbox           |
|  \\    /   O peration     | Version:  dev                                   |
|   \\  /    A nd           | Web:      www.OpenFOAM.org                      |
|    \\/     M anipulation  |                                                 |
\*---------------------------------------------------------------------------*/
FoamFile
{
    version     2.0;
    format      ascii;
    class       volScalarField;
    location    "0.125";
    object      A1C2H3*;
}
// * * * * * * * * * * * * * * * * * * * * * * * * * * * * * * * * * * * * * //

dimensions      [0 0 0 0 0 0 0];

internalField   nonuniform List<scalar> 
50
(
9.21451e-09
3.45599e-09
1.18105e-09
4.03202e-10
1.36453e-10
4.63435e-11
1.57283e-11
5.32808e-12
1.81625e-12
6.18145e-13
2.10208e-13
7.15941e-14
2.44429e-14
8.3795e-15
2.89528e-15
1.01681e-15
3.6976e-16
1.45841e-16
6.62181e-17
3.66728e-17
2.4793e-17
1.92071e-17
1.59704e-17
1.37317e-17
1.19512e-17
1.04623e-17
9.17474e-18
8.04116e-18
7.04417e-18
6.17781e-18
5.41175e-18
4.73857e-18
4.15422e-18
3.63894e-18
3.18472e-18
2.78606e-18
2.43632e-18
2.12963e-18
1.8608e-18
1.62524e-18
1.41893e-18
1.2383e-18
1.08023e-18
9.41942e-19
8.20993e-19
7.15222e-19
6.22724e-19
5.41834e-19
4.7112e-19
4.09388e-19
)
;

boundaryField
{
    wall
    {
        type            zeroGradient;
    }
    fuel
    {
        type            fixedValue;
        value           uniform 0;
    }
    outlet
    {
        type            inletOutlet;
        inletValue      nonuniform 0();
        value           nonuniform 0();
    }
    procBoundary0to1
    {
        type            processor;
        value           uniform 3.56282e-19;
    }
}


// ************************************************************************* //
