/*--------------------------------*- C++ -*----------------------------------*\
| =========                 |                                                 |
| \\      /  F ield         | OpenFOAM: The Open Source CFD Toolbox           |
|  \\    /   O peration     | Version:  dev                                   |
|   \\  /    A nd           | Web:      www.OpenFOAM.org                      |
|    \\/     M anipulation  |                                                 |
\*---------------------------------------------------------------------------*/
FoamFile
{
    version     2.0;
    format      ascii;
    class       volScalarField;
    location    "0.125";
    object      A2R5;
}
// * * * * * * * * * * * * * * * * * * * * * * * * * * * * * * * * * * * * * //

dimensions      [0 0 0 0 0 0 0];

internalField   nonuniform List<scalar> 
250
(
6.83239e-08
6.86301e-08
6.84622e-08
6.88555e-08
6.87684e-08
7.03287e-08
7.58133e-08
9.16475e-08
1.46927e-07
1.93992e-07
6.53267e-08
6.56067e-08
6.54461e-08
6.58231e-08
6.57481e-08
6.72165e-08
7.23699e-08
8.74769e-08
1.39115e-07
1.90704e-07
2.79786e-07
1.59072e-07
9.12332e-08
6.87599e-08
6.41419e-08
6.30444e-08
6.30199e-08
6.29754e-08
6.28755e-08
6.28675e-08
6.28221e-08
6.30769e-08
6.2936e-08
6.32799e-08
6.32208e-08
6.45842e-08
6.94194e-08
8.3804e-08
1.31419e-07
1.87061e-07
2.57055e-07
1.4738e-07
8.68347e-08
6.63293e-08
6.20253e-08
6.1014e-08
6.09812e-08
6.09385e-08
6.08504e-08
6.0849e-08
6.07977e-08
6.10215e-08
6.09061e-08
6.12076e-08
6.11675e-08
6.24341e-08
6.69313e-08
8.06127e-08
1.25413e-07
1.83133e-07
2.3795e-07
1.36554e-07
8.29507e-08
6.43562e-08
6.03578e-08
5.94347e-08
5.93933e-08
5.93561e-08
5.92767e-08
5.92811e-08
5.92298e-08
5.94174e-08
5.93304e-08
5.95844e-08
5.95654e-08
6.07393e-08
6.48947e-08
7.78808e-08
1.20015e-07
1.78915e-07
2.19189e-07
1.27437e-07
7.95819e-08
6.28172e-08
5.91158e-08
5.82788e-08
5.82292e-08
5.81999e-08
5.81264e-08
5.8136e-08
5.80885e-08
5.82374e-08
5.818e-08
5.83843e-08
5.83873e-08
5.94658e-08
6.3296e-08
7.55854e-08
1.15152e-07
1.74384e-07
1.99149e-07
1.19035e-07
7.67127e-08
6.16824e-08
5.82694e-08
5.75138e-08
5.74563e-08
5.74361e-08
5.73666e-08
5.73806e-08
5.73391e-08
5.74492e-08
5.74212e-08
5.75762e-08
5.76011e-08
5.85847e-08
6.21057e-08
7.37e-08
1.10755e-07
1.69508e-07
1.8278e-07
1.11685e-07
7.43199e-08
6.09146e-08
5.77813e-08
5.71006e-08
5.70359e-08
5.70248e-08
5.69579e-08
5.69755e-08
5.69411e-08
5.70142e-08
5.70142e-08
5.71224e-08
5.71679e-08
5.80601e-08
6.12632e-08
7.20696e-08
1.06749e-07
1.64256e-07
1.66886e-07
1.05255e-07
7.23677e-08
6.04686e-08
5.76003e-08
5.69925e-08
5.69215e-08
5.69186e-08
5.68535e-08
5.68738e-08
5.68468e-08
5.68865e-08
5.69119e-08
5.69777e-08
5.70414e-08
5.78409e-08
6.07673e-08
7.0859e-08
1.03067e-07
1.5861e-07
1.53139e-07
9.9315e-08
7.0739e-08
6.02917e-08
5.76818e-08
5.71356e-08
5.70595e-08
5.70631e-08
5.69995e-08
5.70214e-08
5.70016e-08
5.70129e-08
5.70594e-08
5.70893e-08
5.7168e-08
5.7886e-08
6.05468e-08
6.98585e-08
9.96441e-08
1.52567e-07
1.40827e-07
9.43629e-08
6.94947e-08
6.03251e-08
5.79614e-08
5.74697e-08
5.73898e-08
5.73976e-08
5.73358e-08
5.73584e-08
5.73447e-08
5.73337e-08
5.73963e-08
5.73979e-08
5.74878e-08
5.81309e-08
6.05431e-08
6.9112e-08
9.64232e-08
1.46151e-07
1.29891e-07
9.00327e-08
6.85158e-08
6.05059e-08
5.83758e-08
5.79317e-08
5.78494e-08
5.78589e-08
5.77995e-08
5.78217e-08
5.78131e-08
5.77862e-08
5.7859e-08
5.78408e-08
5.79376e-08
5.85128e-08
6.0693e-08
6.85126e-08
9.33516e-08
1.39411e-07
1.20236e-07
8.624e-08
6.77363e-08
6.07721e-08
5.88627e-08
5.84598e-08
5.83767e-08
5.83855e-08
5.83294e-08
5.83502e-08
5.83453e-08
5.83091e-08
5.83862e-08
5.83564e-08
5.84559e-08
5.897e-08
6.09335e-08
6.80031e-08
9.03862e-08
1.32425e-07
5.88872e-08
5.88474e-08
5.89236e-08
5.88892e-08
5.89877e-08
5.94469e-08
6.12075e-08
6.7534e-08
8.7497e-08
1.25294e-07
)
;

boundaryField
{
    fuel
    {
        type            fixedValue;
        value           nonuniform 0();
    }
    wall
    {
        type            zeroGradient;
    }
    outlet
    {
        type            zeroGradient;
    }
    frontAndBack
    {
        type            empty;
    }
    procBoundary0to1
    {
        type            processor;
        value           nonuniform List<scalar> 
21
(
1.11752e-07
8.29066e-08
6.70946e-08
6.10677e-08
5.93661e-08
5.89992e-08
5.89167e-08
5.8923e-08
5.88708e-08
5.88895e-08
5.88895e-08
5.9396e-08
5.93569e-08
5.94282e-08
5.93949e-08
5.94892e-08
5.98987e-08
6.14687e-08
6.70683e-08
8.46691e-08
1.18134e-07
)
;
    }
    procBoundary0to2
    {
        type            processor;
        value           nonuniform List<scalar> 
12
(
6.83472e-08
2.99431e-07
1.71589e-07
9.61333e-08
7.16662e-08
6.67248e-08
6.55485e-08
6.55318e-08
6.54906e-08
6.5375e-08
6.53599e-08
6.53599e-08
)
;
    }
    procBoundary0to3
    {
        type            processor;
        value           nonuniform List<scalar> 10(7.18111e-08 7.21632e-08 7.20109e-08 7.23923e-08 7.22975e-08 7.3935e-08 7.97557e-08 9.66054e-08 1.55738e-07 1.96863e-07);
    }
}


// ************************************************************************* //
