/*--------------------------------*- C++ -*----------------------------------*\
| =========                 |                                                 |
| \\      /  F ield         | OpenFOAM: The Open Source CFD Toolbox           |
|  \\    /   O peration     | Version:  dev                                   |
|   \\  /    A nd           | Web:      www.OpenFOAM.org                      |
|    \\/     M anipulation  |                                                 |
\*---------------------------------------------------------------------------*/
FoamFile
{
    version     2.0;
    format      ascii;
    class       volScalarField;
    location    "0.125";
    object      A2R5;
}
// * * * * * * * * * * * * * * * * * * * * * * * * * * * * * * * * * * * * * //

dimensions      [0 0 0 0 0 0 0];

internalField   nonuniform List<scalar> 
250
(
7.08636e-08
7.10086e-08
7.09904e-08
7.09795e-08
7.10604e-08
7.20584e-08
7.78331e-08
1.03341e-07
1.94937e-07
2.82086e-07
6.7746e-08
6.78711e-08
6.78595e-08
6.78604e-08
6.79364e-08
6.88776e-08
7.42194e-08
9.75569e-08
1.79866e-07
2.61215e-07
1.70524e-07
1.40302e-07
8.5236e-08
7.15104e-08
6.64565e-08
6.55009e-08
6.53772e-08
6.52645e-08
6.52248e-08
6.50613e-08
6.50478e-08
6.51533e-08
6.5148e-08
6.51573e-08
6.52299e-08
6.61129e-08
7.10347e-08
9.22456e-08
1.65116e-07
2.42622e-07
1.62654e-07
1.29333e-07
8.14264e-08
6.88159e-08
6.40815e-08
6.31901e-08
6.30734e-08
6.29475e-08
6.29197e-08
6.27724e-08
6.27685e-08
6.28548e-08
6.28556e-08
6.28701e-08
6.29407e-08
6.37648e-08
6.82793e-08
8.74378e-08
1.51422e-07
2.24298e-07
1.55283e-07
1.19595e-07
7.81648e-08
6.65307e-08
6.21269e-08
6.12903e-08
6.11792e-08
6.10506e-08
6.10282e-08
6.09003e-08
6.09032e-08
6.09711e-08
6.0978e-08
6.09947e-08
6.10644e-08
6.18291e-08
6.59555e-08
8.31629e-08
1.38805e-07
2.06645e-07
1.4852e-07
1.12366e-07
7.54261e-08
6.46467e-08
6.05827e-08
5.97925e-08
5.96859e-08
5.95631e-08
5.95405e-08
5.94342e-08
5.94416e-08
5.94919e-08
5.95049e-08
5.95212e-08
5.95908e-08
6.02954e-08
6.40595e-08
7.94323e-08
1.2852e-07
1.90073e-07
1.42363e-07
1.0633e-07
7.31738e-08
6.31491e-08
5.9433e-08
5.86803e-08
5.85773e-08
5.84671e-08
5.84398e-08
5.83565e-08
5.83664e-08
5.84001e-08
5.84193e-08
5.84332e-08
5.85032e-08
5.91451e-08
6.25799e-08
7.62403e-08
1.18864e-07
1.74067e-07
1.36765e-07
1.01295e-07
7.13663e-08
6.20146e-08
5.86533e-08
5.79289e-08
5.78289e-08
5.77357e-08
5.77008e-08
5.76407e-08
5.76514e-08
5.76701e-08
5.76952e-08
5.77052e-08
5.7776e-08
5.83637e-08
6.14447e-08
7.35712e-08
1.10747e-07
1.60101e-07
1.31646e-07
9.70827e-08
6.98994e-08
6.12259e-08
5.81798e-08
5.7484e-08
5.73863e-08
5.73108e-08
5.72676e-08
5.72297e-08
5.72406e-08
5.72452e-08
5.72755e-08
5.72821e-08
5.73545e-08
5.79028e-08
6.06811e-08
7.13958e-08
1.03665e-07
1.46856e-07
1.2691e-07
9.35323e-08
6.87393e-08
6.07262e-08
5.79906e-08
5.73336e-08
5.72386e-08
5.71819e-08
5.71302e-08
5.71122e-08
5.7122e-08
5.71153e-08
5.715e-08
5.71523e-08
5.72259e-08
5.77327e-08
6.02246e-08
6.95663e-08
9.75443e-08
1.35638e-07
1.2245e-07
9.04982e-08
6.79041e-08
6.04882e-08
5.80217e-08
5.74086e-08
5.73164e-08
5.72767e-08
5.72181e-08
5.72169e-08
5.72252e-08
5.72095e-08
5.72471e-08
5.72461e-08
5.73205e-08
5.77893e-08
6.00185e-08
6.81982e-08
9.22956e-08
1.25379e-07
1.18068e-07
8.78459e-08
6.7264e-08
6.04409e-08
5.82158e-08
5.76505e-08
5.75616e-08
5.75357e-08
5.7473e-08
5.74845e-08
5.74912e-08
5.74691e-08
5.7508e-08
5.75049e-08
5.75795e-08
5.80147e-08
6.00012e-08
6.71392e-08
8.78163e-08
1.16658e-07
1.13819e-07
8.5458e-08
6.67543e-08
6.05234e-08
5.85151e-08
5.80003e-08
5.79151e-08
5.78995e-08
5.78357e-08
5.78559e-08
5.7861e-08
5.78349e-08
5.78735e-08
5.78696e-08
5.79436e-08
5.83467e-08
6.01136e-08
6.63207e-08
8.39989e-08
1.09041e-07
5.82804e-08
5.82525e-08
5.82892e-08
5.82858e-08
5.83582e-08
5.87293e-08
6.02995e-08
6.56775e-08
8.07388e-08
1.02403e-07
)
;

boundaryField
{
    fuel
    {
        type            fixedValue;
        value           nonuniform 0();
    }
    wall
    {
        type            zeroGradient;
    }
    outlet
    {
        type            zeroGradient;
    }
    frontAndBack
    {
        type            empty;
    }
    procBoundary0to1
    {
        type            processor;
        value           nonuniform List<scalar> 
21
(
1.09552e-07
8.32376e-08
6.63174e-08
6.06701e-08
5.88747e-08
5.84032e-08
5.83223e-08
5.83136e-08
5.82517e-08
5.82768e-08
5.82768e-08
5.87048e-08
5.86768e-08
5.87105e-08
5.87083e-08
5.87781e-08
5.91177e-08
6.05098e-08
6.51524e-08
7.79407e-08
9.66238e-08
)
;
    }
    procBoundary0to2
    {
        type            processor;
        value           nonuniform List<scalar> 
12
(
7.09048e-08
1.78756e-07
1.52179e-07
8.96195e-08
7.46184e-08
6.92576e-08
6.82266e-08
6.80942e-08
6.8006e-08
6.79476e-08
6.77719e-08
6.77719e-08
)
;
    }
    procBoundary0to3
    {
        type            processor;
        value           nonuniform List<scalar> 10(7.43977e-08 7.4563e-08 7.45376e-08 7.45115e-08 7.45993e-08 7.56514e-08 8.18555e-08 1.10294e-07 2.10347e-07 2.99396e-07);
    }
}


// ************************************************************************* //
