/*--------------------------------*- C++ -*----------------------------------*\
| =========                 |                                                 |
| \\      /  F ield         | OpenFOAM: The Open Source CFD Toolbox           |
|  \\    /   O peration     | Version:  dev                                   |
|   \\  /    A nd           | Web:      www.OpenFOAM.org                      |
|    \\/     M anipulation  |                                                 |
\*---------------------------------------------------------------------------*/
FoamFile
{
    version     2.0;
    format      ascii;
    class       volScalarField;
    location    "0.125";
    object      A2R5-;
}
// * * * * * * * * * * * * * * * * * * * * * * * * * * * * * * * * * * * * * //

dimensions      [0 0 0 0 0 0 0];

internalField   nonuniform List<scalar> 
250
(
3.97308e-09
3.99069e-09
3.98418e-09
3.99035e-09
3.99488e-09
4.04639e-09
4.32545e-09
5.2878e-09
7.04747e-09
4.526e-09
3.60226e-09
3.61815e-09
3.61199e-09
3.61964e-09
3.6239e-09
3.67155e-09
3.92233e-09
4.78258e-09
6.40689e-09
4.35751e-09
4.03499e-09
5.54264e-09
4.08945e-09
3.64264e-09
3.35369e-09
3.29961e-09
3.29296e-09
3.2689e-09
3.27724e-09
3.25124e-09
3.25353e-09
3.26793e-09
3.26195e-09
3.27074e-09
3.2748e-09
3.31843e-09
3.54225e-09
4.30015e-09
5.74769e-09
4.1906e-09
4.06497e-09
4.98919e-09
3.67904e-09
3.28374e-09
3.01752e-09
2.96907e-09
2.96309e-09
2.93723e-09
2.94782e-09
2.92221e-09
2.92535e-09
2.93845e-09
2.93254e-09
2.94218e-09
2.94605e-09
2.98555e-09
3.18348e-09
3.84144e-09
5.10121e-09
3.99529e-09
3.9999e-09
4.43043e-09
3.28939e-09
2.94272e-09
2.70043e-09
2.6571e-09
2.65173e-09
2.62508e-09
2.63727e-09
2.61226e-09
2.61602e-09
2.62798e-09
2.6221e-09
2.63229e-09
2.63597e-09
2.6713e-09
2.84485e-09
3.40772e-09
4.4703e-09
3.7654e-09
3.8459e-09
3.95386e-09
2.91919e-09
2.61825e-09
2.4007e-09
2.36207e-09
2.35729e-09
2.33068e-09
2.34393e-09
2.3197e-09
2.32386e-09
2.33483e-09
2.32895e-09
2.33942e-09
2.34289e-09
2.37401e-09
2.52507e-09
2.99918e-09
3.92152e-09
3.50084e-09
3.61213e-09
3.49444e-09
2.56733e-09
2.30922e-09
2.11689e-09
2.08257e-09
2.07838e-09
2.05249e-09
2.06632e-09
2.04305e-09
2.04742e-09
2.05753e-09
2.05164e-09
2.06215e-09
2.06534e-09
2.09217e-09
2.22318e-09
2.61566e-09
3.37329e-09
3.1884e-09
3.31198e-09
3.05162e-09
2.2337e-09
2.01495e-09
1.84813e-09
1.81777e-09
1.81419e-09
1.78958e-09
1.80359e-09
1.78147e-09
1.78587e-09
1.79522e-09
1.78937e-09
1.79966e-09
1.80252e-09
1.82532e-09
1.92918e-09
2.25725e-09
2.88123e-09
2.86155e-09
2.96171e-09
2.6261e-09
1.90837e-09
1.73621e-09
1.58686e-09
1.55767e-09
1.55449e-09
1.53038e-09
1.54477e-09
1.5234e-09
1.5281e-09
1.53662e-09
1.53069e-09
1.54122e-09
1.54395e-09
1.56532e-09
1.65818e-09
1.92484e-09
2.42396e-09
2.49757e-09
2.57955e-09
2.2207e-09
1.59527e-09
1.46713e-09
1.34551e-09
1.32058e-09
1.31799e-09
1.29586e-09
1.30978e-09
1.28991e-09
1.2944e-09
1.30222e-09
1.29646e-09
1.30638e-09
1.30872e-09
1.32679e-09
1.40347e-09
1.60304e-09
2.00487e-09
2.144e-09
2.18503e-09
1.84034e-09
1.31915e-09
1.22171e-09
1.11982e-09
1.09917e-09
1.09713e-09
1.07726e-09
1.0904e-09
1.07222e-09
1.0764e-09
1.0835e-09
1.07802e-09
1.08715e-09
1.08907e-09
1.10417e-09
1.16649e-09
1.32145e-09
1.6275e-09
1.78385e-09
1.78961e-09
1.49019e-09
1.06692e-09
9.96172e-10
9.12368e-10
8.95802e-10
8.94274e-10
8.76864e-10
8.88922e-10
8.72654e-10
8.76427e-10
8.82765e-10
8.77681e-10
8.85863e-10
8.87361e-10
8.99805e-10
9.49443e-10
1.0672e-09
1.29402e-09
1.45256e-09
1.42401e-09
1.17592e-09
8.42188e-10
7.93468e-10
7.26031e-10
7.13189e-10
7.12096e-10
6.97268e-10
7.07994e-10
6.93828e-10
6.97131e-10
7.02651e-10
6.9808e-10
7.05186e-10
7.0629e-10
7.16324e-10
7.55014e-10
8.42434e-10
1.00581e-09
1.1498e-09
5.40796e-10
5.45466e-10
5.41497e-10
5.47459e-10
5.4822e-10
5.56103e-10
5.85557e-10
6.48835e-10
7.63066e-10
8.83752e-10
)
;

boundaryField
{
    fuel
    {
        type            fixedValue;
        value           nonuniform 0();
    }
    wall
    {
        type            zeroGradient;
    }
    outlet
    {
        type            zeroGradient;
    }
    frontAndBack
    {
        type            empty;
    }
    procBoundary0to1
    {
        type            processor;
        value           nonuniform List<scalar> 
21
(
1.09544e-09
9.02299e-10
6.47738e-10
6.16019e-10
5.63544e-10
5.53722e-10
5.52979e-10
5.40744e-10
5.4996e-10
5.38004e-10
5.38004e-10
4.08661e-10
4.12487e-10
4.09167e-10
4.13992e-10
4.14477e-10
4.2053e-10
4.42347e-10
4.86943e-10
5.64403e-10
6.59192e-10
)
;
    }
    procBoundary0to2
    {
        type            processor;
        value           nonuniform List<scalar> 
12
(
3.97334e-09
3.91425e-09
6.07176e-09
4.52239e-09
4.02092e-09
3.71081e-09
3.65038e-09
3.64299e-09
3.62187e-09
3.62724e-09
3.60112e-09
3.60112e-09
)
;
    }
    procBoundary0to3
    {
        type            processor;
        value           nonuniform List<scalar> 10(4.36735e-09 4.38705e-09 4.37987e-09 4.38423e-09 4.38913e-09 4.44424e-09 4.75148e-09 5.87601e-09 7.67572e-09 4.64869e-09);
    }
}


// ************************************************************************* //
