/*--------------------------------*- C++ -*----------------------------------*\
| =========                 |                                                 |
| \\      /  F ield         | OpenFOAM: The Open Source CFD Toolbox           |
|  \\    /   O peration     | Version:  dev                                   |
|   \\  /    A nd           | Web:      www.OpenFOAM.org                      |
|    \\/     M anipulation  |                                                 |
\*---------------------------------------------------------------------------*/
FoamFile
{
    version     2.0;
    format      ascii;
    class       volScalarField;
    location    "0.125";
    object      C2O;
}
// * * * * * * * * * * * * * * * * * * * * * * * * * * * * * * * * * * * * * //

dimensions      [0 0 0 0 0 0 0];

internalField   nonuniform List<scalar> 
250
(
2.07254e-07
2.08124e-07
2.07669e-07
2.08181e-07
2.0824e-07
2.08625e-07
2.09135e-07
1.97045e-07
1.50036e-07
7.17865e-08
1.8904e-07
1.89866e-07
1.89414e-07
1.90006e-07
1.90075e-07
1.90534e-07
1.91325e-07
1.81584e-07
1.40797e-07
7.23442e-08
8.9724e-08
1.52019e-07
1.71666e-07
1.7982e-07
1.73971e-07
1.72808e-07
1.72703e-07
1.71171e-07
1.71949e-07
1.70428e-07
1.70654e-07
1.71444e-07
1.70987e-07
1.71643e-07
1.71724e-07
1.72245e-07
1.73347e-07
1.65788e-07
1.30832e-07
7.21028e-08
9.14701e-08
1.42122e-07
1.55027e-07
1.61483e-07
1.55446e-07
1.54343e-07
1.54239e-07
1.52599e-07
1.53501e-07
1.51947e-07
1.52204e-07
1.52962e-07
1.52499e-07
1.53201e-07
1.5329e-07
1.53858e-07
1.55246e-07
1.49688e-07
1.20348e-07
7.09825e-08
9.11176e-08
1.30171e-07
1.38086e-07
1.43066e-07
1.36991e-07
1.35951e-07
1.35852e-07
1.34162e-07
1.35148e-07
1.33587e-07
1.33867e-07
1.34591e-07
1.34124e-07
1.34853e-07
1.34945e-07
1.3554e-07
1.37174e-07
1.3341e-07
1.09198e-07
6.89139e-08
8.84875e-08
1.18339e-07
1.21068e-07
1.24785e-07
1.18839e-07
1.1787e-07
1.1778e-07
1.161e-07
1.17128e-07
1.15593e-07
1.15884e-07
1.16569e-07
1.16105e-07
1.16837e-07
1.16928e-07
1.17527e-07
1.19353e-07
1.17126e-07
9.85706e-08
6.59181e-08
8.36039e-08
1.05504e-07
1.04283e-07
1.0693e-07
1.01289e-07
1.004e-07
1.00321e-07
9.87101e-08
9.97384e-08
9.82661e-08
9.85553e-08
9.91953e-08
9.87428e-08
9.9455e-08
9.95397e-08
1.00114e-07
1.02075e-07
1.01086e-07
8.69539e-08
6.18178e-08
7.67329e-08
9.20372e-08
8.81165e-08
8.98443e-08
8.46881e-08
8.38886e-08
8.3825e-08
8.23354e-08
8.33233e-08
8.19525e-08
8.22277e-08
8.28145e-08
8.23851e-08
8.30525e-08
8.31264e-08
8.36472e-08
8.51466e-08
8.56055e-08
7.56537e-08
5.70451e-08
6.83447e-08
7.83957e-08
7.2442e-08
7.39213e-08
6.89564e-08
6.807e-08
6.80083e-08
6.66071e-08
6.75522e-08
6.62821e-08
6.6559e-08
6.70753e-08
6.667e-08
6.73133e-08
6.73895e-08
6.79819e-08
6.98478e-08
7.10676e-08
6.44267e-08
5.12428e-08
5.90503e-08
6.51088e-08
5.77977e-08
5.91332e-08
5.51559e-08
5.43962e-08
5.43494e-08
5.31394e-08
5.39808e-08
5.28709e-08
5.31164e-08
5.35638e-08
5.32034e-08
5.37662e-08
5.38286e-08
5.43438e-08
5.60451e-08
5.70963e-08
5.36094e-08
4.51757e-08
4.95167e-08
5.2709e-08
4.55676e-08
4.64685e-08
4.31473e-08
4.25253e-08
4.24917e-08
4.14864e-08
4.22059e-08
4.12693e-08
4.14788e-08
4.18539e-08
4.1545e-08
4.2019e-08
4.2067e-08
4.25032e-08
4.39837e-08
4.52611e-08
4.35707e-08
3.86046e-08
4.0175e-08
4.16048e-08
3.51414e-08
3.57289e-08
3.30529e-08
3.25648e-08
3.25421e-08
3.17385e-08
3.23298e-08
3.15679e-08
3.17399e-08
3.20437e-08
3.17888e-08
3.21727e-08
3.22076e-08
3.25664e-08
3.37971e-08
3.50967e-08
3.45968e-08
3.22661e-08
3.18325e-08
3.2074e-08
2.65745e-08
2.69415e-08
2.48624e-08
2.44937e-08
2.44797e-08
2.38606e-08
2.43287e-08
2.37309e-08
2.3867e-08
2.41043e-08
2.39021e-08
2.42011e-08
2.42252e-08
2.4511e-08
2.54918e-08
2.66778e-08
2.68807e-08
2.62673e-08
1.77104e-08
1.78894e-08
1.77349e-08
1.79592e-08
1.79753e-08
1.81953e-08
1.89495e-08
1.99486e-08
2.04991e-08
2.08653e-08
)
;

boundaryField
{
    fuel
    {
        type            fixedValue;
        value           nonuniform 0();
    }
    wall
    {
        type            zeroGradient;
    }
    outlet
    {
        type            zeroGradient;
    }
    frontAndBack
    {
        type            empty;
    }
    procBoundary0to1
    {
        type            processor;
        value           nonuniform List<scalar> 
21
(
2.46234e-08
2.42192e-08
1.97823e-08
1.99926e-08
1.84449e-08
1.817e-08
1.8162e-08
1.7702e-08
1.80591e-08
1.76064e-08
1.76064e-08
1.30329e-08
1.31639e-08
1.30496e-08
1.32124e-08
1.3223e-08
1.33885e-08
1.3949e-08
1.47421e-08
1.54013e-08
1.62198e-08
)
;
    }
    procBoundary0to2
    {
        type            processor;
        value           nonuniform List<scalar> 
12
(
2.07125e-07
8.59195e-08
1.59592e-07
1.87821e-07
1.97932e-07
1.92402e-07
1.91177e-07
1.91067e-07
1.8971e-07
1.90319e-07
1.88858e-07
1.88858e-07
)
;
    }
    procBoundary0to3
    {
        type            processor;
        value           nonuniform List<scalar> 10(2.25241e-07 2.26171e-07 2.25698e-07 2.26117e-07 2.26164e-07 2.26471e-07 2.26683e-07 2.13991e-07 1.58973e-07 7.07641e-08);
    }
}


// ************************************************************************* //
