/*--------------------------------*- C++ -*----------------------------------*\
| =========                 |                                                 |
| \\      /  F ield         | OpenFOAM: The Open Source CFD Toolbox           |
|  \\    /   O peration     | Version:  dev                                   |
|   \\  /    A nd           | Web:      www.OpenFOAM.org                      |
|    \\/     M anipulation  |                                                 |
\*---------------------------------------------------------------------------*/
FoamFile
{
    version     2.0;
    format      ascii;
    class       volScalarField;
    location    "0.125";
    object      CH2O;
}
// * * * * * * * * * * * * * * * * * * * * * * * * * * * * * * * * * * * * * //

dimensions      [0 0 0 0 0 0 0];

internalField   nonuniform List<scalar> 
250
(
2.38778e-06
2.40215e-06
2.38975e-06
2.40928e-06
2.40108e-06
2.42516e-06
2.4577e-06
2.41466e-06
2.26417e-06
1.60666e-06
2.25391e-06
2.26931e-06
2.25588e-06
2.27698e-06
2.26835e-06
2.29304e-06
2.32732e-06
2.29228e-06
2.2032e-06
1.67743e-06
1.72167e-06
1.79176e-06
2.10636e-06
2.12823e-06
2.13707e-06
2.1233e-06
2.1249e-06
2.1195e-06
2.12001e-06
2.11739e-06
2.11365e-06
2.13025e-06
2.11583e-06
2.13833e-06
2.12924e-06
2.15441e-06
2.19041e-06
2.16194e-06
2.11477e-06
1.71363e-06
1.52634e-06
1.68785e-06
1.97537e-06
1.98498e-06
1.99233e-06
1.97753e-06
1.9791e-06
1.97303e-06
1.97405e-06
1.97124e-06
1.96688e-06
1.98458e-06
1.96918e-06
1.99293e-06
1.98341e-06
2.00905e-06
2.04639e-06
2.02341e-06
2.01921e-06
1.71315e-06
1.39041e-06
1.57593e-06
1.83676e-06
1.83494e-06
1.84073e-06
1.82507e-06
1.82663e-06
1.81998e-06
1.82146e-06
1.8185e-06
1.81366e-06
1.83227e-06
1.81595e-06
1.84075e-06
1.83084e-06
1.85689e-06
1.89517e-06
1.87686e-06
1.90627e-06
1.67657e-06
1.27309e-06
1.46437e-06
1.69082e-06
1.67849e-06
1.68286e-06
1.66647e-06
1.66801e-06
1.66091e-06
1.6628e-06
1.6597e-06
1.6545e-06
1.67383e-06
1.6567e-06
1.68226e-06
1.67206e-06
1.69835e-06
1.73721e-06
1.72309e-06
1.77758e-06
1.60688e-06
1.15522e-06
1.3427e-06
1.53837e-06
1.51669e-06
1.51993e-06
1.50291e-06
1.50446e-06
1.49703e-06
1.49926e-06
1.49607e-06
1.49062e-06
1.51041e-06
1.49267e-06
1.5186e-06
1.50825e-06
1.53462e-06
1.57352e-06
1.56372e-06
1.63514e-06
1.50863e-06
1.05726e-06
1.2165e-06
1.381e-06
1.35131e-06
1.35391e-06
1.33633e-06
1.33789e-06
1.3303e-06
1.3328e-06
1.32957e-06
1.32399e-06
1.34392e-06
1.32585e-06
1.35165e-06
1.34133e-06
1.36771e-06
1.4012e-06
1.3887e-06
1.48136e-06
1.38738e-06
9.54785e-07
1.08628e-06
1.22113e-06
1.1849e-06
1.18277e-06
1.1694e-06
1.17099e-06
1.16343e-06
1.16611e-06
1.1629e-06
1.15732e-06
1.177e-06
1.15898e-06
1.1841e-06
1.174e-06
1.19537e-06
1.23125e-06
1.22267e-06
1.31991e-06
1.24932e-06
8.55459e-07
9.46606e-07
1.05528e-06
1.02091e-06
1.01839e-06
1.0055e-06
1.00709e-06
9.99746e-07
1.00251e-06
9.9941e-07
9.93971e-07
1.01296e-06
9.95416e-07
1.01929e-06
1.00962e-06
1.02984e-06
1.0632e-06
1.04917e-06
1.15457e-06
1.101e-06
7.54436e-07
8.14156e-07
8.98882e-07
8.63085e-07
8.60407e-07
8.48322e-07
8.49876e-07
8.42961e-07
8.45695e-07
8.42783e-07
8.37632e-07
8.55487e-07
8.38861e-07
8.60976e-07
8.51928e-07
8.7049e-07
9.00812e-07
8.8904e-07
9.90266e-07
9.49047e-07
6.52802e-07
6.85998e-07
7.50281e-07
7.15204e-07
7.12558e-07
7.01588e-07
7.03069e-07
6.96761e-07
6.99363e-07
6.9671e-07
6.91979e-07
7.08296e-07
6.92996e-07
7.12927e-07
7.04657e-07
7.21173e-07
7.47993e-07
7.38164e-07
8.31707e-07
7.99795e-07
5.52841e-07
5.65877e-07
6.1314e-07
5.80688e-07
5.78185e-07
5.68585e-07
5.69947e-07
5.6439e-07
5.66767e-07
5.64432e-07
5.60222e-07
5.74688e-07
5.61038e-07
5.78485e-07
5.71111e-07
5.85349e-07
6.08334e-07
6.00211e-07
6.83444e-07
6.58892e-07
4.44735e-07
4.57168e-07
4.45366e-07
4.60189e-07
4.53773e-07
4.65679e-07
4.84684e-07
4.78103e-07
5.49391e-07
5.30886e-07
)
;

boundaryField
{
    fuel
    {
        type            fixedValue;
        value           nonuniform 0();
    }
    wall
    {
        type            zeroGradient;
    }
    outlet
    {
        type            zeroGradient;
    }
    frontAndBack
    {
        type            empty;
    }
    procBoundary0to1
    {
        type            processor;
        value           nonuniform List<scalar> 
21
(
4.578e-07
4.56962e-07
4.90704e-07
4.6211e-07
4.59906e-07
4.51764e-07
4.52984e-07
4.48256e-07
4.50345e-07
4.48357e-07
4.48357e-07
3.46838e-07
3.57182e-07
3.47311e-07
3.595e-07
3.54084e-07
3.63714e-07
3.78877e-07
3.73651e-07
4.32422e-07
4.19045e-07
)
;
    }
    procBoundary0to2
    {
        type            processor;
        value           nonuniform List<scalar> 
12
(
2.39017e-06
1.94582e-06
1.88998e-06
2.23048e-06
2.26471e-06
2.27501e-06
2.26241e-06
2.26406e-06
2.25942e-06
2.25937e-06
2.25691e-06
2.25691e-06
)
;
    }
    procBoundary0to3
    {
        type            processor;
        value           nonuniform List<scalar> 10(2.51519e-06 2.52941e-06 2.5184e-06 2.53584e-06 2.52815e-06 2.55128e-06 2.58232e-06 2.53586e-06 2.3053e-06 1.50182e-06);
    }
}


// ************************************************************************* //
