/*--------------------------------*- C++ -*----------------------------------*\
| =========                 |                                                 |
| \\      /  F ield         | OpenFOAM: The Open Source CFD Toolbox           |
|  \\    /   O peration     | Version:  dev                                   |
|   \\  /    A nd           | Web:      www.OpenFOAM.org                      |
|    \\/     M anipulation  |                                                 |
\*---------------------------------------------------------------------------*/
FoamFile
{
    version     2.0;
    format      ascii;
    class       volScalarField;
    location    "0.125";
    object      CH3;
}
// * * * * * * * * * * * * * * * * * * * * * * * * * * * * * * * * * * * * * //

dimensions      [0 0 0 0 0 0 0];

internalField   nonuniform List<scalar> 
50
(
0.001086
0.00104233
0.000815655
0.000629558
0.000494027
0.000395568
0.000321745
0.000264746
0.000219944
0.000183431
0.000153153
0.000127747
0.000106227
8.79184e-05
7.23379e-05
5.91196e-05
4.7964e-05
3.86824e-05
3.1011e-05
2.47004e-05
1.95692e-05
1.54085e-05
1.20468e-05
9.39475e-06
7.28548e-06
5.63969e-06
4.35461e-06
3.34881e-06
2.56826e-06
1.97216e-06
1.51049e-06
1.15579e-06
8.86955e-07
6.8033e-07
5.21703e-07
4.00452e-07
3.0777e-07
2.36897e-07
1.82658e-07
1.41103e-07
1.09221e-07
8.47203e-08
6.58564e-08
5.13032e-08
4.00512e-08
3.13314e-08
2.45577e-08
1.92831e-08
1.51676e-08
1.19544e-08
)
;

boundaryField
{
    wall
    {
        type            zeroGradient;
    }
    fuel
    {
        type            fixedValue;
        value           uniform 0;
    }
    outlet
    {
        type            inletOutlet;
        inletValue      nonuniform 0();
        value           nonuniform 0();
    }
    procBoundary0to1
    {
        type            processor;
        value           uniform 9.45005e-09;
    }
}


// ************************************************************************* //
