/*--------------------------------*- C++ -*----------------------------------*\
| =========                 |                                                 |
| \\      /  F ield         | OpenFOAM: The Open Source CFD Toolbox           |
|  \\    /   O peration     | Version:  dev                                   |
|   \\  /    A nd           | Web:      www.OpenFOAM.org                      |
|    \\/     M anipulation  |                                                 |
\*---------------------------------------------------------------------------*/
FoamFile
{
    version     2.0;
    format      ascii;
    class       volScalarField;
    location    "0.125";
    object      CH4;
}
// * * * * * * * * * * * * * * * * * * * * * * * * * * * * * * * * * * * * * //

dimensions      [0 0 0 0 0 0 0];

internalField   nonuniform List<scalar> 
250
(
0.000926509
0.000926001
0.00092655
0.000925898
0.000926371
0.000927561
0.000934411
0.00096132
0.00103901
0.00113417
0.000930755
0.000930105
0.000930775
0.00092994
0.000930491
0.000931466
0.000937851
0.000963957
0.00103684
0.00113689
0.0016176
0.00110395
0.000977304
0.00094485
0.000936925
0.000935944
0.000935755
0.000936063
0.000935873
0.000936092
0.000936265
0.000935465
0.000936265
0.000935237
0.000935871
0.000936608
0.000942501
0.000967736
0.0010363
0.00114006
0.00151351
0.00109225
0.00098022
0.000950848
0.000943383
0.000942594
0.000942393
0.000942757
0.000942547
0.00094279
0.000943002
0.000942055
0.000942985
0.000941765
0.00094248
0.000942989
0.000948337
0.000972638
0.00103734
0.0011437
0.00143642
0.00108273
0.000984255
0.000957961
0.000950987
0.000950387
0.000950174
0.000950591
0.000950362
0.000950624
0.000950874
0.00094979
0.000950844
0.000949445
0.000950235
0.000950526
0.000955313
0.000978591
0.00103972
0.00114772
0.0013694
0.00107594
0.000989352
0.000966063
0.000959596
0.000959177
0.000958954
0.000959416
0.000959169
0.000959447
0.000959731
0.000958529
0.000959691
0.00095814
0.000958994
0.000959074
0.000963324
0.000985463
0.00104324
0.00115191
0.0013062
0.00107093
0.000995387
0.000974971
0.000969009
0.00096876
0.000968528
0.000969024
0.000968762
0.000969052
0.000969363
0.00096807
0.000969317
0.000967653
0.000968553
0.000968436
0.000972195
0.000993057
0.00104765
0.00115596
0.00126021
0.00106773
0.00100217
0.000984444
0.000978969
0.000978875
0.000978637
0.000979154
0.000978883
0.000979177
0.000979509
0.000978158
0.000979457
0.000977732
0.000978655
0.000978359
0.000981965
0.00100176
0.00105271
0.00115953
0.00122055
0.00106605
0.00100945
0.000994202
0.000989484
0.000989226
0.000988984
0.000989507
0.000989232
0.000989525
0.000989866
0.000988496
0.000989812
0.00098808
0.000989002
0.000988858
0.000991855
0.00101017
0.00105805
0.00116224
0.00119008
0.00106552
0.00101728
0.00100393
0.000999693
0.000999495
0.000999254
0.000999767
0.000999495
0.000999781
0.00100012
0.000998771
0.00100007
0.000998379
0.000999277
0.000999061
0.00100177
0.00101901
0.00106339
0.00116377
0.00116587
0.00106586
0.00102478
0.00101332
0.00100954
0.00100938
0.00100914
0.00100963
0.00100937
0.00100964
0.00100997
0.00100868
0.00100991
0.00100832
0.00100917
0.00100893
0.00101139
0.00102711
0.00106837
0.00116383
0.00114681
0.00106673
0.00103195
0.00102211
0.00101875
0.0010186
0.00101838
0.00101883
0.00101858
0.00101884
0.00101915
0.00101794
0.00101909
0.00101763
0.00101842
0.00101818
0.00102043
0.00103463
0.00107272
0.00116226
0.0011319
0.00106785
0.00103856
0.00103009
0.00102712
0.00102697
0.00102676
0.00102717
0.00102694
0.00102718
0.00102746
0.00102636
0.0010274
0.00102609
0.00102681
0.0010266
0.00102868
0.00104136
0.00107623
0.001159
0.00103478
0.00103381
0.00103473
0.00103357
0.00103422
0.00103405
0.00103598
0.00104718
0.00107877
0.00115412
)
;

boundaryField
{
    fuel
    {
        type            fixedValue;
        value           nonuniform 0();
    }
    wall
    {
        type            zeroGradient;
    }
    outlet
    {
        type            zeroGradient;
    }
    frontAndBack
    {
        type            empty;
    }
    procBoundary0to1
    {
        type            processor;
        value           nonuniform List<scalar> 
21
(
0.00112025
0.001069
0.00104443
0.00103713
0.00103452
0.00103435
0.00103416
0.00103452
0.00103432
0.00103453
0.00103453
0.00104108
0.00104023
0.00104103
0.00104004
0.00104061
0.00104049
0.00104227
0.00105204
0.00108032
0.00114781
)
;
    }
    procBoundary0to2
    {
        type            processor;
        value           nonuniform List<scalar> 
12
(
0.000926407
0.00172125
0.00111772
0.0009755
0.000940033
0.000931692
0.000930522
0.000930345
0.000930597
0.000930426
0.00093062
0.00093062
)
;
    }
    procBoundary0to3
    {
        type            processor;
        value           nonuniform List<scalar> 10(0.000923525 0.000923135 0.000923578 0.000923089 0.00092349 0.000924874 0.000932136 0.000959713 0.00104286 0.00113178);
    }
}


// ************************************************************************* //
