/*--------------------------------*- C++ -*----------------------------------*\
| =========                 |                                                 |
| \\      /  F ield         | OpenFOAM: The Open Source CFD Toolbox           |
|  \\    /   O peration     | Version:  dev                                   |
|   \\  /    A nd           | Web:      www.OpenFOAM.org                      |
|    \\/     M anipulation  |                                                 |
\*---------------------------------------------------------------------------*/
FoamFile
{
    version     2.0;
    format      ascii;
    class       volScalarField;
    location    "0.125";
    object      HO2;
}
// * * * * * * * * * * * * * * * * * * * * * * * * * * * * * * * * * * * * * //

dimensions      [0 0 0 0 0 0 0];

internalField   nonuniform List<scalar> 
250
(
3.09576e-11
3.11174e-11
3.10276e-11
3.11353e-11
3.11363e-11
3.10896e-11
3.07325e-11
3.80027e-11
7.16572e-10
2.92331e-08
2.76546e-11
2.78067e-11
2.77175e-11
2.78374e-11
2.78418e-11
2.78234e-11
2.75654e-11
3.25687e-11
5.04741e-10
1.83788e-08
8.97138e-10
5.17857e-11
2.32955e-11
2.53953e-11
2.47952e-11
2.46821e-11
2.46755e-11
2.43875e-11
2.45453e-11
2.42647e-11
2.43102e-11
2.44551e-11
2.43659e-11
2.44945e-11
2.45018e-11
2.45081e-11
2.4357e-11
2.77627e-11
3.50204e-10
1.20493e-08
4.96348e-10
3.56593e-11
2.03237e-11
2.21372e-11
2.14518e-11
2.13385e-11
2.13306e-11
2.1031e-11
2.12061e-11
2.09244e-11
2.09737e-11
2.11108e-11
2.10223e-11
2.11553e-11
2.11645e-11
2.11911e-11
2.114e-11
2.34715e-11
2.42232e-10
7.86747e-09
2.72318e-10
2.50433e-11
1.73942e-11
1.8898e-11
1.81657e-11
1.8055e-11
1.80468e-11
1.7748e-11
1.79315e-11
1.76558e-11
1.77067e-11
1.7835e-11
1.77483e-11
1.78812e-11
1.78913e-11
1.79327e-11
1.79685e-11
1.96106e-11
1.66227e-10
5.10965e-09
1.49092e-10
1.8725e-11
1.45468e-11
1.57457e-11
1.50073e-11
1.49028e-11
1.48951e-11
1.46093e-11
1.47922e-11
1.45301e-11
1.45803e-11
1.46983e-11
1.46152e-11
1.47432e-11
1.47532e-11
1.48034e-11
1.49082e-11
1.61311e-11
1.17361e-10
3.30669e-09
8.21001e-11
1.42413e-11
1.18386e-11
1.27571e-11
1.2053e-11
1.19578e-11
1.19513e-11
1.16893e-11
1.18632e-11
1.16223e-11
1.16697e-11
1.17756e-11
1.16983e-11
1.18168e-11
1.18257e-11
1.18782e-11
1.20336e-11
1.2994e-11
8.12122e-11
2.08994e-09
4.58466e-11
1.08613e-11
9.34123e-12
1.00109e-11
9.3783e-12
9.29535e-12
9.29053e-12
9.06116e-12
9.21884e-12
9.00613e-12
9.04857e-12
9.14082e-12
9.07152e-12
9.17634e-12
9.18341e-12
9.23185e-12
9.33842e-12
1.02066e-11
5.6924e-11
1.33892e-09
2.61402e-11
8.18818e-12
7.05125e-12
7.58139e-12
6.98498e-12
6.88947e-12
6.88452e-12
6.68318e-12
6.8234e-12
6.63932e-12
6.67894e-12
6.75496e-12
6.69409e-12
6.78797e-12
6.79522e-12
6.85586e-12
7.03111e-12
7.79031e-12
3.97806e-11
8.36149e-10
1.52839e-11
6.03033e-12
5.0571e-12
5.47126e-12
5.02642e-12
4.94989e-12
4.94673e-12
4.78605e-12
4.90114e-12
4.75253e-12
4.78486e-12
4.8458e-12
4.79588e-12
4.87156e-12
4.87676e-12
4.92676e-12
5.08565e-12
5.65946e-12
2.77424e-11
5.32133e-10
9.19643e-12
4.30608e-12
3.52518e-12
3.80549e-12
3.46234e-12
3.4051e-12
3.40337e-12
3.28201e-12
3.37132e-12
3.25739e-12
3.28239e-12
3.32885e-12
3.29003e-12
3.34782e-12
3.35114e-12
3.39021e-12
3.52244e-12
4.01008e-12
1.92625e-11
3.33604e-10
5.67537e-12
2.97368e-12
2.34892e-12
2.52873e-12
2.27957e-12
2.23956e-12
2.23885e-12
2.15239e-12
2.21766e-12
2.1352e-12
2.15342e-12
2.18692e-12
2.15846e-12
2.20005e-12
2.2019e-12
2.23067e-12
2.33228e-12
2.73221e-12
1.33028e-11
2.11765e-10
3.7113e-12
1.99977e-12
1.50137e-12
1.6073e-12
1.43749e-12
1.41129e-12
1.41126e-12
1.35328e-12
1.39811e-12
1.34195e-12
1.35446e-12
1.37718e-12
1.35759e-12
1.38569e-12
1.38658e-12
1.40638e-12
1.4789e-12
1.79388e-12
9.11579e-12
1.34346e-10
8.24535e-13
8.39e-13
8.26379e-13
8.4418e-13
8.44541e-13
8.57196e-13
9.05676e-13
1.14339e-12
6.17611e-12
8.47163e-11
)
;

boundaryField
{
    fuel
    {
        type            fixedValue;
        value           nonuniform 0();
    }
    wall
    {
        type            zeroGradient;
    }
    outlet
    {
        type            zeroGradient;
    }
    frontAndBack
    {
        type            empty;
    }
    procBoundary0to1
    {
        type            processor;
        value           nonuniform List<scalar> 
21
(
2.64236e-12
1.33703e-12
9.31545e-13
9.84177e-13
8.7627e-13
8.5975e-13
8.60058e-13
8.23494e-13
8.52378e-13
8.16459e-13
8.16459e-13
4.96126e-13
5.04798e-13
4.97162e-13
5.07784e-13
5.07925e-13
5.15491e-13
5.46193e-13
7.20568e-13
4.16731e-12
5.32438e-11
)
;
    }
    procBoundary0to2
    {
        type            processor;
        value           nonuniform List<scalar> 
12
(
3.09257e-11
1.66797e-09
7.79077e-11
2.63273e-11
2.86164e-11
2.81353e-11
2.80247e-11
2.80191e-11
2.7757e-11
2.78876e-11
2.76149e-11
2.76149e-11
)
;
    }
    procBoundary0to3
    {
        type            processor;
        value           nonuniform List<scalar> 10(3.41833e-11 3.43539e-11 3.42608e-11 3.4353e-11 3.43497e-11 3.42736e-11 3.38231e-11 4.49629e-11 9.98865e-10 4.39216e-08);
    }
}


// ************************************************************************* //
