/*--------------------------------*- C++ -*----------------------------------*\
| =========                 |                                                 |
| \\      /  F ield         | OpenFOAM: The Open Source CFD Toolbox           |
|  \\    /   O peration     | Version:  dev                                   |
|   \\  /    A nd           | Web:      www.OpenFOAM.org                      |
|    \\/     M anipulation  |                                                 |
\*---------------------------------------------------------------------------*/
FoamFile
{
    version     2.0;
    format      ascii;
    class       volScalarField;
    location    "0.125";
    object      N2;
}
// * * * * * * * * * * * * * * * * * * * * * * * * * * * * * * * * * * * * * //

dimensions      [0 0 0 0 0 0 0];

internalField   nonuniform List<scalar> 
250
(
0
7.1015e-08
1.66408e-07
5.21565e-07
2.34618e-06
1.20457e-05
6.34924e-05
0.000316023
0.00136865
0.00468604
3.38909e-08
1.16835e-07
2.17828e-07
5.825e-07
2.4165e-06
1.19268e-05
6.10352e-05
0.000295283
0.00123777
0.00399883
0.0022129
0.00100159
0.000267871
6.25285e-05
1.16337e-05
2.66528e-06
5.95269e-07
1.9626e-07
1.09934e-08
0
8.71885e-08
1.69725e-07
2.76902e-07
6.49667e-07
2.48281e-06
1.17484e-05
5.84111e-05
0.000274525
0.00110926
0.00346375
0.00207225
0.000935042
0.000254709
6.08172e-05
1.1338e-05
2.72653e-06
6.67801e-07
2.61003e-07
7.15923e-08
5.33016e-08
1.50919e-07
2.31739e-07
3.44986e-07
7.24267e-07
2.54611e-06
1.15139e-05
5.5667e-05
0.000254042
0.000989096
0.002994
0.00194094
0.000868843
0.000241303
5.8773e-05
1.10908e-05
2.78397e-06
7.50087e-07
3.33421e-07
1.44812e-07
1.25912e-07
2.27066e-07
3.05352e-07
4.23963e-07
8.0793e-07
2.60763e-06
1.1225e-05
5.28534e-05
0.000234117
0.000877053
0.0025837
0.00181631
0.000812962
0.000227686
5.64123e-05
1.09016e-05
2.84096e-06
8.43364e-07
4.17346e-07
2.32735e-07
2.1291e-07
3.17706e-07
3.93032e-07
5.1594e-07
9.02506e-07
2.67038e-06
1.08772e-05
5.00219e-05
0.000214968
0.000784081
0.00222881
0.00169614
0.000758994
0.000213873
5.37517e-05
1.07831e-05
2.90075e-06
9.49307e-07
5.1662e-07
3.37577e-07
3.17239e-07
4.24847e-07
4.97012e-07
6.2304e-07
1.00991e-06
2.73667e-06
1.04562e-05
4.72315e-05
0.000196713
0.000694728
0.00190939
0.0015789
0.000706291
0.000199913
5.08094e-05
1.07483e-05
2.96605e-06
1.06991e-06
6.34544e-07
4.61547e-07
4.41495e-07
5.50455e-07
6.19244e-07
7.47339e-07
1.13211e-06
2.80987e-06
1.00851e-05
4.43035e-05
0.000179467
0.000617384
0.00164632
0.00146367
0.000654411
0.000185345
4.77944e-05
1.0614e-05
3.04181e-06
1.21354e-06
7.80838e-07
6.13815e-07
5.95432e-07
7.03653e-07
7.68793e-07
8.98226e-07
1.27772e-06
2.898e-06
9.80234e-06
4.13937e-05
0.000163302
0.000547448
0.0014085
0.00135005
0.00060315
0.000170305
4.46567e-05
1.03901e-05
3.12433e-06
1.37127e-06
9.44383e-07
7.83536e-07
7.67114e-07
8.73248e-07
9.34575e-07
1.06448e-06
1.4368e-06
2.99634e-06
9.49836e-06
3.85742e-05
0.000147362
0.000484461
0.00121444
0.00123808
0.000552516
0.000156141
4.15956e-05
1.00869e-05
3.21887e-06
1.55071e-06
1.13271e-06
9.78574e-07
9.64432e-07
1.0673e-06
1.12444e-06
1.25434e-06
1.61699e-06
3.10893e-06
9.20775e-06
3.58342e-05
0.000133168
0.000427889
0.00104198
0.00112571
0.000502617
0.000142156
3.85664e-05
9.72474e-06
3.32831e-06
1.75448e-06
1.34698e-06
1.20093e-06
1.18863e-06
1.2878e-06
1.34019e-06
1.46983e-06
1.8203e-06
3.24071e-06
8.94922e-06
3.3174e-05
0.000119949
0.000377188
0.000898367
0.00101733
0.000453686
0.000128473
3.55953e-05
9.33215e-06
3.4556e-06
1.98549e-06
1.5879e-06
1.45276e-06
1.44062e-06
1.53671e-06
1.58345e-06
1.71297e-06
2.04865e-06
3.39364e-06
8.70086e-06
3.06342e-05
0.000107672
0.000331792
0.000774702
1.81602e-06
1.85558e-06
1.98571e-06
2.30369e-06
3.57111e-06
8.45247e-06
2.82427e-05
9.62991e-05
0.000291169
0.000667955
)
;

boundaryField
{
    fuel
    {
        type            fixedValue;
        value           nonuniform 0();
    }
    wall
    {
        type            zeroGradient;
    }
    outlet
    {
        type            zeroGradient;
    }
    frontAndBack
    {
        type            empty;
    }
    procBoundary0to1
    {
        type            processor;
        value           nonuniform List<scalar> 
21
(
0.00091133
0.000405928
0.000115204
3.25974e-05
9.03719e-06
3.6069e-06
2.23778e-06
1.86075e-06
1.73041e-06
1.72385e-06
1.72385e-06
2.12292e-06
2.15809e-06
2.28501e-06
2.58657e-06
3.76802e-06
8.22831e-06
2.59687e-05
8.58085e-05
0.000254791
0.000575699
)
;
    }
    procBoundary0to2
    {
        type            processor;
        value           nonuniform List<scalar> 
12
(
0
0.00236546
0.00106699
0.000280779
6.38982e-05
1.19659e-05
2.59764e-06
5.31137e-07
1.36274e-07
0
0
0
)
;
    }
    procBoundary0to3
    {
        type            processor;
        value           nonuniform List<scalar> 10(0 3.1532e-08 1.22591e-07 4.66803e-07 2.27163e-06 1.21002e-05 6.57199e-05 0.000338817 0.00150177 0.00535344);
    }
}


// ************************************************************************* //
