/*--------------------------------*- C++ -*----------------------------------*\
| =========                 |                                                 |
| \\      /  F ield         | OpenFOAM: The Open Source CFD Toolbox           |
|  \\    /   O peration     | Version:  dev                                   |
|   \\  /    A nd           | Web:      www.OpenFOAM.org                      |
|    \\/     M anipulation  |                                                 |
\*---------------------------------------------------------------------------*/
FoamFile
{
    version     2.0;
    format      ascii;
    class       volScalarField;
    location    "0.125";
    object      O2;
}
// * * * * * * * * * * * * * * * * * * * * * * * * * * * * * * * * * * * * * //

dimensions      [0 0 0 0 0 0 0];

internalField   nonuniform List<scalar> 
250
(
3.12514e-08
3.15842e-08
3.12926e-08
3.17321e-08
3.15214e-08
3.18633e-08
3.18222e-08
3.00609e-08
1.08958e-07
2.03049e-06
2.82411e-08
2.85913e-08
2.82784e-08
2.8749e-08
2.85339e-08
2.89038e-08
2.89669e-08
2.69773e-08
6.7938e-08
1.01017e-06
0.000129728
2.87541e-06
7.22134e-08
2.54811e-08
2.5546e-08
2.53704e-08
2.54168e-08
2.52959e-08
2.53178e-08
2.52524e-08
2.51727e-08
2.55374e-08
2.52124e-08
2.57004e-08
2.54833e-08
2.58716e-08
2.60352e-08
2.40715e-08
4.29842e-08
5.00624e-07
8.74623e-05
2.08061e-06
5.83389e-08
2.24319e-08
2.25048e-08
2.23023e-08
2.23453e-08
2.22168e-08
2.22475e-08
2.21821e-08
2.20942e-08
2.24639e-08
2.21344e-08
2.26269e-08
2.24114e-08
2.28087e-08
2.30583e-08
2.12662e-08
3.04187e-08
2.49796e-07
6.1166e-05
1.49529e-06
4.70396e-08
1.94354e-08
1.94931e-08
1.92742e-08
1.93139e-08
1.91828e-08
1.92194e-08
1.91558e-08
1.90647e-08
1.94287e-08
1.91027e-08
1.95865e-08
1.93771e-08
1.9773e-08
2.00877e-08
1.85385e-08
2.28602e-08
1.27516e-07
4.21008e-05
1.0916e-06
3.79172e-08
1.65495e-08
1.6581e-08
1.63549e-08
1.63912e-08
1.62626e-08
1.63024e-08
1.62421e-08
1.61521e-08
1.65002e-08
1.61862e-08
1.66476e-08
1.64493e-08
1.68332e-08
1.71896e-08
1.59134e-08
1.79953e-08
6.84253e-08
2.73514e-05
7.86117e-07
3.04827e-08
1.38373e-08
1.38414e-08
1.36159e-08
1.36486e-08
1.35272e-08
1.35678e-08
1.35123e-08
1.34268e-08
1.37497e-08
1.34561e-08
1.38822e-08
1.36999e-08
1.40629e-08
1.44362e-08
1.34451e-08
1.46354e-08
4.04095e-08
1.84337e-05
5.68858e-07
2.44592e-08
1.13594e-08
1.13423e-08
1.11229e-08
1.11521e-08
1.10416e-08
1.10808e-08
1.10312e-08
1.0953e-08
1.12431e-08
1.09773e-08
1.13574e-08
1.11952e-08
1.15325e-08
1.18264e-08
1.10233e-08
1.21982e-08
2.80366e-08
1.20861e-05
4.13823e-07
1.95974e-08
9.16521e-09
9.07412e-09
8.92761e-09
8.95315e-09
8.85631e-09
8.89236e-09
8.84956e-09
8.78056e-09
9.0326e-09
8.80012e-09
9.12732e-09
8.98777e-09
9.23093e-09
9.55169e-09
9.01619e-09
1.04493e-08
2.41395e-08
8.03e-06
2.98332e-07
1.553e-08
7.28855e-09
7.18579e-09
7.06071e-09
7.08245e-09
7.00065e-09
7.03237e-09
6.99662e-09
6.93787e-09
7.14968e-09
6.95315e-09
7.22517e-09
7.10913e-09
7.31434e-09
7.59521e-09
7.22269e-09
9.33223e-09
2.56082e-08
5.33771e-06
2.19054e-07
1.23807e-08
5.73837e-09
5.63068e-09
5.5277e-09
5.54562e-09
5.47888e-09
5.50566e-09
5.47674e-09
5.42831e-09
5.60083e-09
5.43997e-09
5.65914e-09
5.56544e-09
5.73323e-09
5.97269e-09
5.84563e-09
8.88821e-09
3.12793e-08
3.55455e-06
1.61487e-07
9.86892e-09
4.49901e-09
4.39143e-09
4.30968e-09
4.32394e-09
4.27112e-09
4.29294e-09
4.27021e-09
4.23132e-09
4.36818e-09
4.24006e-09
4.4123e-09
4.33824e-09
4.47216e-09
4.67405e-09
4.80062e-09
9.17957e-09
4.0817e-08
2.36732e-06
1.19157e-07
7.86692e-09
3.53511e-09
3.43133e-09
3.36856e-09
3.37948e-09
3.33865e-09
3.35594e-09
3.33846e-09
3.30771e-09
3.41441e-09
3.31421e-09
3.44752e-09
3.38954e-09
3.49523e-09
3.66718e-09
4.06254e-09
1.02373e-08
5.40222e-08
2.60797e-09
2.69073e-09
2.61278e-09
2.71571e-09
2.67002e-09
2.75396e-09
2.90517e-09
3.58353e-09
1.20015e-08
7.02912e-08
)
;

boundaryField
{
    fuel
    {
        type            fixedValue;
        value           nonuniform 0();
    }
    wall
    {
        type            zeroGradient;
    }
    outlet
    {
        type            inletOutlet;
        inletValue      uniform 0;
        value           nonuniform List<scalar> 
25
(
0.000129728
8.74623e-05
6.1166e-05
4.21008e-05
2.73514e-05
1.84337e-05
1.20861e-05
8.03e-06
5.33771e-06
3.55455e-06
2.36732e-06
2.03049e-06
1.01017e-06
5.00624e-07
2.49796e-07
1.27516e-07
6.84253e-08
4.04095e-08
2.80366e-08
2.41395e-08
2.56082e-08
3.12793e-08
4.0817e-08
5.40222e-08
7.02912e-08
)
;
    }
    frontAndBack
    {
        type            empty;
    }
    procBoundary0to1
    {
        type            processor;
        value           nonuniform List<scalar> 
21
(
1.57748e-06
8.79566e-08
6.28254e-09
2.79949e-09
2.70252e-09
2.65506e-09
2.66322e-09
2.63203e-09
2.64553e-09
2.6322e-09
2.6322e-09
2.08097e-09
2.14565e-09
2.08461e-09
2.16471e-09
2.12825e-09
2.19591e-09
2.3349e-09
3.28258e-09
1.40615e-08
8.64636e-08
)
;
    }
    procBoundary0to2
    {
        type            processor;
        value           nonuniform List<scalar> 
12
(
3.1305e-08
0.000180865
3.91629e-06
8.89123e-08
2.85314e-08
2.856e-08
2.84198e-08
2.84709e-08
2.8362e-08
2.83721e-08
2.83075e-08
2.83075e-08
)
;
    }
    procBoundary0to3
    {
        type            processor;
        value           nonuniform List<scalar> 10(3.41674e-08 3.44985e-08 3.42461e-08 3.46325e-08 3.44298e-08 3.473e-08 3.46003e-08 3.37402e-08 1.84949e-07 4.13489e-06);
    }
}


// ************************************************************************* //
