/*--------------------------------*- C++ -*----------------------------------*\
| =========                 |                                                 |
| \\      /  F ield         | OpenFOAM: The Open Source CFD Toolbox           |
|  \\    /   O peration     | Version:  dev                                   |
|   \\  /    A nd           | Web:      www.OpenFOAM.org                      |
|    \\/     M anipulation  |                                                 |
\*---------------------------------------------------------------------------*/
FoamFile
{
    version     2.0;
    format      ascii;
    class       volScalarField;
    location    "0.125";
    object      P2;
}
// * * * * * * * * * * * * * * * * * * * * * * * * * * * * * * * * * * * * * //

dimensions      [0 0 0 0 0 0 0];

internalField   nonuniform List<scalar> 
250
(
1.86121e-10
1.86089e-10
1.86359e-10
1.85903e-10
1.86186e-10
1.90004e-10
2.1216e-10
3.45425e-10
1.79789e-09
1.36786e-08
1.85158e-10
1.8501e-10
1.85337e-10
1.84845e-10
1.85112e-10
1.88695e-10
2.09144e-10
3.28928e-10
1.51635e-09
1.06485e-08
1.90276e-09
8.88427e-10
2.87025e-10
2.08852e-10
1.91388e-10
1.87929e-10
1.87455e-10
1.88309e-10
1.87384e-10
1.88012e-10
1.87733e-10
1.87456e-10
1.87858e-10
1.87299e-10
1.87556e-10
1.9093e-10
2.09866e-10
3.17936e-10
1.28259e-09
8.42231e-09
1.64217e-09
7.5569e-10
2.84847e-10
2.1301e-10
1.97244e-10
1.93988e-10
1.93523e-10
1.94598e-10
1.93491e-10
1.94406e-10
1.94111e-10
1.93688e-10
1.94183e-10
1.93526e-10
1.93782e-10
1.96969e-10
2.14555e-10
3.12502e-10
1.09912e-09
6.61497e-09
1.44387e-09
6.62647e-10
2.88576e-10
2.21371e-10
2.07254e-10
2.04142e-10
2.03674e-10
2.05034e-10
2.03692e-10
2.04945e-10
2.04613e-10
2.04027e-10
2.04635e-10
2.03853e-10
2.04114e-10
2.07135e-10
2.23509e-10
3.12716e-10
9.56757e-10
5.18117e-09
1.29962e-09
6.10127e-10
2.98191e-10
2.34244e-10
2.21738e-10
2.18714e-10
2.1823e-10
2.19926e-10
2.18303e-10
2.19936e-10
2.19552e-10
2.18787e-10
2.19526e-10
2.18595e-10
2.18872e-10
2.21744e-10
2.37024e-10
3.1865e-10
8.59076e-10
4.07227e-09
1.20013e-09
5.80478e-10
3.13535e-10
2.51849e-10
2.40904e-10
2.37914e-10
2.37401e-10
2.39461e-10
2.37524e-10
2.39563e-10
2.39116e-10
2.38163e-10
2.39045e-10
2.37952e-10
2.38255e-10
2.40992e-10
2.55294e-10
3.30203e-10
7.83434e-10
3.19411e-09
1.13638e-09
5.68502e-10
3.34224e-10
2.74173e-10
2.64698e-10
2.61698e-10
2.6114e-10
2.63559e-10
2.61302e-10
2.63738e-10
2.63226e-10
2.62087e-10
2.63114e-10
2.61864e-10
2.62202e-10
2.6487e-10
2.79015e-10
3.47064e-10
7.32064e-10
2.56399e-09
1.09983e-09
5.70023e-10
3.60496e-10
3.00851e-10
2.93425e-10
2.90859e-10
2.90276e-10
2.93198e-10
2.90557e-10
2.93447e-10
2.92812e-10
2.91513e-10
2.92702e-10
2.91218e-10
2.91564e-10
2.93936e-10
3.06254e-10
3.68477e-10
6.97095e-10
2.07289e-09
1.0823e-09
5.81202e-10
3.91177e-10
3.31809e-10
3.24563e-10
3.22055e-10
3.21416e-10
3.24569e-10
3.21706e-10
3.2486e-10
3.24173e-10
3.22752e-10
3.24037e-10
3.2246e-10
3.22847e-10
3.25198e-10
3.36652e-10
3.94762e-10
6.74616e-10
1.72794e-09
1.07585e-09
5.98142e-10
4.21554e-10
3.6385e-10
3.57185e-10
3.54718e-10
3.54028e-10
3.57259e-10
3.54297e-10
3.57574e-10
3.56862e-10
3.55378e-10
3.56705e-10
3.55108e-10
3.55536e-10
3.57885e-10
3.68575e-10
4.21545e-10
6.60704e-10
1.46434e-09
1.07294e-09
6.16985e-10
4.51051e-10
3.95707e-10
3.89266e-10
3.86842e-10
3.8611e-10
3.89251e-10
3.86335e-10
3.8957e-10
3.88866e-10
3.87388e-10
3.88691e-10
3.87157e-10
3.8762e-10
3.89982e-10
3.99989e-10
4.48019e-10
6.51866e-10
1.2737e-09
1.06689e-09
6.34047e-10
4.77366e-10
4.25201e-10
4.18693e-10
4.16331e-10
4.15577e-10
4.18471e-10
4.15744e-10
4.18776e-10
4.18112e-10
4.16709e-10
4.17921e-10
4.16528e-10
4.1701e-10
4.1938e-10
4.28777e-10
4.72054e-10
6.45008e-10
1.12897e-09
4.42867e-10
4.41592e-10
4.42662e-10
4.41466e-10
4.41946e-10
4.44293e-10
4.53123e-10
4.91828e-10
6.3772e-10
1.01635e-09
)
;

boundaryField
{
    fuel
    {
        type            fixedValue;
        value           nonuniform 0();
    }
    wall
    {
        type            zeroGradient;
    }
    outlet
    {
        type            zeroGradient;
    }
    frontAndBack
    {
        type            empty;
    }
    procBoundary0to1
    {
        type            processor;
        value           nonuniform List<scalar> 
21
(
1.05262e-09
6.46255e-10
4.98593e-10
4.5038e-10
4.43699e-10
4.41409e-10
4.40653e-10
4.43188e-10
4.40763e-10
4.43467e-10
4.43467e-10
4.62077e-10
4.6096e-10
4.61854e-10
4.60881e-10
4.61337e-10
4.63621e-10
4.71869e-10
5.06191e-10
6.28505e-10
9.26448e-10
)
;
    }
    procBoundary0to2
    {
        type            processor;
        value           nonuniform List<scalar> 
12
(
1.86427e-10
2.23003e-09
1.06452e-09
2.95148e-10
2.08604e-10
1.89365e-10
1.85638e-10
1.85144e-10
1.85846e-10
1.8505e-10
1.85439e-10
1.85439e-10
)
;
    }
    procBoundary0to3
    {
        type            processor;
        value           nonuniform List<scalar> 10(1.90462e-10 1.90536e-10 1.90765e-10 1.90313e-10 1.90621e-10 1.94701e-10 2.18785e-10 3.7007e-10 2.13285e-09 1.66999e-08);
    }
}


// ************************************************************************* //
