/*--------------------------------*- C++ -*----------------------------------*\
| =========                 |                                                 |
| \\      /  F ield         | OpenFOAM: The Open Source CFD Toolbox           |
|  \\    /   O peration     | Version:  dev                                   |
|   \\  /    A nd           | Web:      www.OpenFOAM.org                      |
|    \\/     M anipulation  |                                                 |
\*---------------------------------------------------------------------------*/
FoamFile
{
    version     2.0;
    format      ascii;
    class       volScalarField;
    location    "0.125";
    object      T;
}
// * * * * * * * * * * * * * * * * * * * * * * * * * * * * * * * * * * * * * //

dimensions      [0 0 0 1 0 0 0];

internalField   nonuniform List<scalar> 
50
(
1870.84
2307.56
2485.57
2563.78
2600.42
2617.96
2625.81
2628.37
2627.96
2625.87
2622.89
2619.46
2615.86
2612.23
2608.64
2605.1
2601.63
2598.21
2594.84
2591.49
2588.14
2584.79
2581.42
2578.07
2574.71
2571.35
2568
2564.64
2561.28
2557.95
2554.61
2551.27
2547.97
2544.67
2541.36
2538.05
2534.75
2531.45
2528.16
2524.86
2521.55
2518.25
2514.93
2511.61
2508.27
2504.93
2501.56
2498.18
2494.79
2491.37
)
;

boundaryField
{
    wall
    {
        type            zeroGradient;
    }
    fuel
    {
        type            fixedValue;
        value           uniform 1300;
    }
    outlet
    {
        type            inletOutlet;
        inletValue      nonuniform 0();
        value           nonuniform 0();
    }
    procBoundary0to1
    {
        type            processor;
        value           uniform 2487.94;
    }
}


// ************************************************************************* //
