/*--------------------------------*- C++ -*----------------------------------*\
| =========                 |                                                 |
| \\      /  F ield         | OpenFOAM: The Open Source CFD Toolbox           |
|  \\    /   O peration     | Version:  dev                                   |
|   \\  /    A nd           | Web:      www.OpenFOAM.org                      |
|    \\/     M anipulation  |                                                 |
\*---------------------------------------------------------------------------*/
FoamFile
{
    version     2.0;
    format      ascii;
    class       volScalarField;
    location    "0.135";
    object      A2R5;
}
// * * * * * * * * * * * * * * * * * * * * * * * * * * * * * * * * * * * * * //

dimensions      [0 0 0 0 0 0 0];

internalField   nonuniform List<scalar> 
12
(
1.22364e-10
1.1963e-10
1.16691e-10
1.13485e-10
1.10124e-10
1.06543e-10
1.02745e-10
9.87328e-11
9.45224e-11
9.00297e-11
8.54784e-11
8.07659e-11
)
;

boundaryField
{
    wall
    {
        type            zeroGradient;
    }
    fuel
    {
        type            fixedValue;
        value           nonuniform 0();
    }
    outlet
    {
        type            inletOutlet;
        inletValue      nonuniform 0();
        value           nonuniform 0();
    }
    procBoundary6to5
    {
        type            processor;
        value           uniform 1.24884e-10;
    }
    procBoundary6to7
    {
        type            processor;
        value           uniform 7.58961e-11;
    }
}


// ************************************************************************* //
