# Probe 0 (0 0 0.001)
#       Probe             0
#        Time
    0.0100198     3.125e+12
    0.0100395     3.125e+12
    0.0100593     3.125e+12
    0.0100791     3.125e+12
    0.0100988     3.125e+12
    0.0101186     3.125e+12
    0.0101383     3.125e+12
    0.0101581     3.125e+12
    0.0101779     3.125e+12
    0.0101976     3.125e+12
    0.0102174     3.125e+12
    0.0102372     3.125e+12
    0.0102569     3.125e+12
    0.0102767     3.125e+12
    0.0102964     3.125e+12
    0.0103162     3.125e+12
     0.010336     3.125e+12
    0.0103557     3.125e+12
    0.0103755     3.125e+12
    0.0103953     3.125e+12
     0.010415     3.125e+12
    0.0104348     3.125e+12
    0.0104545     3.125e+12
    0.0104743     3.125e+12
    0.0104941     3.125e+12
    0.0105138     3.125e+12
    0.0105336     3.125e+12
    0.0105534     3.125e+12
    0.0105731     3.125e+12
    0.0105929     3.125e+12
    0.0106126     3.125e+12
    0.0106324     3.125e+12
    0.0106522     3.125e+12
    0.0106719     3.125e+12
    0.0106917     3.125e+12
    0.0107115     3.125e+12
    0.0107312     3.125e+12
     0.010751     3.125e+12
    0.0107708     3.125e+12
    0.0107905     3.125e+12
    0.0108103     3.125e+12
      0.01083     3.125e+12
    0.0108498     3.125e+12
    0.0108696     3.125e+12
    0.0108893     3.125e+12
    0.0109091     3.125e+12
    0.0109289     3.125e+12
    0.0109486     3.125e+12
    0.0109684     3.125e+12
    0.0109881     3.125e+12
    0.0110079     3.125e+12
    0.0110277     3.125e+12
    0.0110474     3.125e+12
    0.0110672     3.125e+12
     0.011087     3.125e+12
    0.0111067     3.125e+12
    0.0111265     3.125e+12
    0.0111462     3.125e+12
     0.011166     3.125e+12
    0.0111858     3.125e+12
    0.0112055     3.125e+12
    0.0112253     3.125e+12
    0.0112451     3.125e+12
    0.0112648     3.125e+12
    0.0112846     3.125e+12
    0.0113043     3.125e+12
    0.0113241     3.125e+12
    0.0113439     3.125e+12
    0.0113636     3.125e+12
    0.0113834     3.125e+12
    0.0114032     3.125e+12
    0.0114229     3.125e+12
    0.0114427     3.125e+12
    0.0114625     3.125e+12
    0.0114822     3.125e+12
     0.011502     3.125e+12
    0.0115217     3.125e+12
    0.0115415     3.125e+12
    0.0115613     3.125e+12
     0.011581     3.125e+12
    0.0116008     3.125e+12
    0.0116206     3.125e+12
    0.0116403     3.125e+12
    0.0116601     3.125e+12
    0.0116798     3.125e+12
    0.0116996     3.125e+12
    0.0117194     3.125e+12
    0.0117391     3.125e+12
    0.0117589     3.125e+12
    0.0117787     3.125e+12
    0.0117984     3.125e+12
    0.0118182     3.125e+12
    0.0118379     3.125e+12
    0.0118577     3.125e+12
    0.0118775     3.125e+12
    0.0118972     3.125e+12
     0.011917     3.125e+12
    0.0119368     3.125e+12
    0.0119565     3.125e+12
    0.0119763     3.125e+12
     0.011996     3.125e+12
    0.0120158     3.125e+12
    0.0120356     3.125e+12
    0.0120553     3.125e+12
    0.0120751     3.125e+12
    0.0120949     3.125e+12
    0.0121146     3.125e+12
    0.0121344     3.125e+12
    0.0121542     3.125e+12
    0.0121739     3.125e+12
    0.0121937     3.125e+12
    0.0122134     3.125e+12
    0.0122332     3.125e+12
     0.012253     3.125e+12
    0.0122727     3.125e+12
    0.0122925     3.125e+12
    0.0123123     3.125e+12
     0.012332     3.125e+12
    0.0123518     3.125e+12
    0.0123715     3.125e+12
    0.0123913     3.125e+12
    0.0124111     3.125e+12
    0.0124308     3.125e+12
    0.0124506     3.125e+12
    0.0124704     3.125e+12
    0.0124901     3.125e+12
    0.0125099     3.125e+12
    0.0125296     3.125e+12
    0.0125494     3.125e+12
    0.0125692     3.125e+12
    0.0125889     3.125e+12
    0.0126087     3.125e+12
    0.0126285     3.125e+12
    0.0126482     3.125e+12
     0.012668     3.125e+12
    0.0126877     3.125e+12
    0.0127075     3.125e+12
    0.0127273     3.125e+12
     0.012747     3.125e+12
    0.0127668     3.125e+12
    0.0127866     3.125e+12
    0.0128063     3.125e+12
    0.0128261     3.125e+12
    0.0128458     3.125e+12
    0.0128656     3.125e+12
    0.0128854     3.125e+12
    0.0129051     3.125e+12
    0.0129249     3.125e+12
    0.0129447     3.125e+12
    0.0129644     3.125e+12
    0.0129842     3.125e+12
     0.013004     3.125e+12
    0.0130237     3.125e+12
    0.0130435     3.125e+12
    0.0130632     3.125e+12
     0.013083     3.125e+12
    0.0131028     3.125e+12
    0.0131225     3.125e+12
    0.0131423     3.125e+12
    0.0131621     3.125e+12
    0.0131818     3.125e+12
    0.0132016     3.125e+12
    0.0132213     3.125e+12
    0.0132411     3.125e+12
    0.0132609     3.125e+12
    0.0132806     3.125e+12
    0.0133004     3.125e+12
    0.0133202     3.125e+12
    0.0133399     3.125e+12
    0.0133597     3.125e+12
    0.0133794     3.125e+12
    0.0133992     3.125e+12
     0.013419     3.125e+12
    0.0134387     3.125e+12
    0.0134585     3.125e+12
    0.0134783     3.125e+12
     0.013498     3.125e+12
    0.0135178     3.125e+12
    0.0135375     3.125e+12
    0.0135573     3.125e+12
    0.0135771     3.125e+12
    0.0135968     3.125e+12
    0.0136166     3.125e+12
    0.0136364     3.125e+12
    0.0136561     3.125e+12
    0.0136759     3.125e+12
    0.0136957     3.125e+12
    0.0137154     3.125e+12
    0.0137352     3.125e+12
    0.0137549     3.125e+12
    0.0137747     3.125e+12
    0.0137945     3.125e+12
    0.0138142     3.125e+12
     0.013834     3.125e+12
    0.0138538     3.125e+12
    0.0138735     3.125e+12
    0.0138933     3.125e+12
     0.013913     3.125e+12
    0.0139328     3.125e+12
    0.0139526     3.125e+12
    0.0139723     3.125e+12
    0.0139921     3.125e+12
    0.0140119     3.125e+12
    0.0140316     3.125e+12
    0.0140514     3.125e+12
    0.0140711     3.125e+12
    0.0140909     3.125e+12
    0.0141107     3.125e+12
    0.0141304     3.125e+12
    0.0141502     3.125e+12
      0.01417     3.125e+12
    0.0141897     3.125e+12
    0.0142095     3.125e+12
    0.0142292     3.125e+12
     0.014249     3.125e+12
    0.0142688     3.125e+12
    0.0142885     3.125e+12
    0.0143083     3.125e+12
    0.0143281     3.125e+12
    0.0143478     3.125e+12
    0.0143676     3.125e+12
    0.0143874     3.125e+12
    0.0144071     3.125e+12
    0.0144269     3.125e+12
    0.0144466     3.125e+12
    0.0144664     3.125e+12
    0.0144862     3.125e+12
    0.0145059     3.125e+12
    0.0145257     3.125e+12
    0.0145455     3.125e+12
    0.0145652     3.125e+12
     0.014585     3.125e+12
    0.0146047     3.125e+12
    0.0146245     3.125e+12
    0.0146443     3.125e+12
     0.014664     3.125e+12
    0.0146838     3.125e+12
    0.0147036     3.125e+12
    0.0147233     3.125e+12
    0.0147431     3.125e+12
    0.0147628     3.125e+12
    0.0147826     3.125e+12
    0.0148024     3.125e+12
    0.0148221     3.125e+12
    0.0148419     3.125e+12
    0.0148617     3.125e+12
    0.0148814     3.125e+12
    0.0149012     3.125e+12
    0.0149209     3.125e+12
    0.0149407     3.125e+12
    0.0149605     3.125e+12
    0.0149802     3.125e+12
        0.015     3.125e+12
    0.0150198     3.125e+12
    0.0150395     3.125e+12
    0.0150593     3.125e+12
    0.0150791     3.125e+12
    0.0150988     3.125e+12
    0.0151186     3.125e+12
    0.0151383     3.125e+12
    0.0151581     3.125e+12
    0.0151779     3.125e+12
    0.0151976     3.125e+12
    0.0152174     3.125e+12
    0.0152372     3.125e+12
    0.0152569     3.125e+12
    0.0152767     3.125e+12
    0.0152964     3.125e+12
    0.0153162     3.125e+12
     0.015336     3.125e+12
    0.0153557     3.125e+12
    0.0153755     3.125e+12
    0.0153953     3.125e+12
     0.015415     3.125e+12
    0.0154348     3.125e+12
    0.0154545     3.125e+12
    0.0154743     3.125e+12
    0.0154941     3.125e+12
    0.0155138     3.125e+12
    0.0155336     3.125e+12
    0.0155534     3.125e+12
    0.0155731     3.125e+12
    0.0155929     3.125e+12
    0.0156126     3.125e+12
    0.0156324     3.125e+12
    0.0156522     3.125e+12
    0.0156719     3.125e+12
    0.0156917     3.125e+12
    0.0157115     3.125e+12
    0.0157312     3.125e+12
     0.015751     3.125e+12
    0.0157708     3.125e+12
    0.0157905     3.125e+12
    0.0158103     3.125e+12
      0.01583     3.125e+12
    0.0158498     3.125e+12
    0.0158696     3.125e+12
    0.0158893     3.125e+12
    0.0159091     3.125e+12
    0.0159289     3.125e+12
    0.0159486     3.125e+12
    0.0159684     3.125e+12
    0.0159881     3.125e+12
    0.0160079     3.125e+12
    0.0160277     3.125e+12
    0.0160474     3.125e+12
    0.0160672     3.125e+12
     0.016087     3.125e+12
    0.0161067     3.125e+12
    0.0161265     3.125e+12
    0.0161462     3.125e+12
     0.016166     3.125e+12
    0.0161858     3.125e+12
    0.0162055     3.125e+12
    0.0162253     3.125e+12
    0.0162451     3.125e+12
    0.0162648     3.125e+12
    0.0162846     3.125e+12
    0.0163043     3.125e+12
    0.0163241     3.125e+12
    0.0163439     3.125e+12
    0.0163636     3.125e+12
    0.0163834     3.125e+12
    0.0164032     3.125e+12
    0.0164229     3.125e+12
    0.0164427     3.125e+12
    0.0164625     3.125e+12
    0.0164822     3.125e+12
     0.016502     3.125e+12
    0.0165217     3.125e+12
    0.0165415     3.125e+12
    0.0165613     3.125e+12
     0.016581     3.125e+12
    0.0166008     3.125e+12
    0.0166206     3.125e+12
    0.0166403     3.125e+12
    0.0166601     3.125e+12
    0.0166798     3.125e+12
    0.0166996     3.125e+12
    0.0167194     3.125e+12
    0.0167391     3.125e+12
    0.0167589     3.125e+12
    0.0167787     3.125e+12
    0.0167984     3.125e+12
    0.0168182     3.125e+12
    0.0168379     3.125e+12
    0.0168577     3.125e+12
    0.0168775     3.125e+12
    0.0168972     3.125e+12
     0.016917     3.125e+12
    0.0169368     3.125e+12
    0.0169565     3.125e+12
    0.0169763     3.125e+12
     0.016996     3.125e+12
    0.0170158     3.125e+12
    0.0170356     3.125e+12
    0.0170553     3.125e+12
    0.0170751     3.125e+12
    0.0170949     3.125e+12
    0.0171146     3.125e+12
    0.0171344     3.125e+12
    0.0171542     3.125e+12
    0.0171739     3.125e+12
    0.0171937     3.125e+12
    0.0172134     3.125e+12
    0.0172332     3.125e+12
     0.017253     3.125e+12
    0.0172727     3.125e+12
    0.0172925     3.125e+12
    0.0173123     3.125e+12
     0.017332     3.125e+12
    0.0173518     3.125e+12
    0.0173715     3.125e+12
    0.0173913     3.125e+12
    0.0174111     3.125e+12
    0.0174308     3.125e+12
    0.0174506     3.125e+12
    0.0174704     3.125e+12
    0.0174901     3.125e+12
    0.0175099     3.125e+12
    0.0175296     3.125e+12
    0.0175494     3.125e+12
    0.0175692     3.125e+12
    0.0175889     3.125e+12
    0.0176087     3.125e+12
    0.0176285     3.125e+12
    0.0176482     3.125e+12
     0.017668     3.125e+12
    0.0176877     3.125e+12
    0.0177075     3.125e+12
    0.0177273     3.125e+12
     0.017747     3.125e+12
    0.0177668     3.125e+12
    0.0177866     3.125e+12
    0.0178063     3.125e+12
    0.0178261     3.125e+12
    0.0178458     3.125e+12
    0.0178656     3.125e+12
    0.0178854     3.125e+12
    0.0179051     3.125e+12
    0.0179249     3.125e+12
    0.0179447     3.125e+12
    0.0179644     3.125e+12
    0.0179842     3.125e+12
     0.018004     3.125e+12
    0.0180237     3.125e+12
    0.0180435     3.125e+12
    0.0180632     3.125e+12
     0.018083     3.125e+12
    0.0181028     3.125e+12
    0.0181225     3.125e+12
    0.0181423     3.125e+12
    0.0181621     3.125e+12
    0.0181818     3.125e+12
    0.0182016     3.125e+12
    0.0182213     3.125e+12
    0.0182411     3.125e+12
    0.0182609     3.125e+12
    0.0182806     3.125e+12
    0.0183004     3.125e+12
    0.0183202     3.125e+12
    0.0183399     3.125e+12
    0.0183597     3.125e+12
    0.0183794     3.125e+12
    0.0183992     3.125e+12
     0.018419     3.125e+12
    0.0184387     3.125e+12
    0.0184585     3.125e+12
    0.0184783     3.125e+12
     0.018498     3.125e+12
    0.0185178     3.125e+12
    0.0185375     3.125e+12
    0.0185573     3.125e+12
    0.0185771     3.125e+12
    0.0185968     3.125e+12
    0.0186166     3.125e+12
    0.0186364     3.125e+12
    0.0186561     3.125e+12
    0.0186759     3.125e+12
    0.0186957     3.125e+12
    0.0187154     3.125e+12
    0.0187352     3.125e+12
    0.0187549     3.125e+12
    0.0187747     3.125e+12
    0.0187945     3.125e+12
    0.0188142     3.125e+12
     0.018834     3.125e+12
    0.0188538     3.125e+12
    0.0188735     3.125e+12
    0.0188933     3.125e+12
     0.018913     3.125e+12
    0.0189328     3.125e+12
    0.0189526     3.125e+12
    0.0189723     3.125e+12
    0.0189921     3.125e+12
    0.0190119     3.125e+12
    0.0190316     3.125e+12
    0.0190514     3.125e+12
    0.0190711     3.125e+12
    0.0190909     3.125e+12
    0.0191107     3.125e+12
    0.0191304     3.125e+12
    0.0191502     3.125e+12
      0.01917     3.125e+12
    0.0191897     3.125e+12
    0.0192095     3.125e+12
    0.0192292     3.125e+12
     0.019249     3.125e+12
    0.0192688     3.125e+12
    0.0192885     3.125e+12
    0.0193083     3.125e+12
    0.0193281     3.125e+12
    0.0193478     3.125e+12
    0.0193676     3.125e+12
    0.0193874     3.125e+12
    0.0194071     3.125e+12
    0.0194269     3.125e+12
    0.0194466     3.125e+12
    0.0194664     3.125e+12
    0.0194862     3.125e+12
    0.0195059     3.125e+12
    0.0195257     3.125e+12
    0.0195455     3.125e+12
    0.0195652     3.125e+12
     0.019585     3.125e+12
    0.0196047     3.125e+12
    0.0196245     3.125e+12
    0.0196443     3.125e+12
     0.019664     3.125e+12
    0.0196838     3.125e+12
    0.0197036     3.125e+12
    0.0197233     3.125e+12
    0.0197431     3.125e+12
    0.0197628     3.125e+12
    0.0197826     3.125e+12
    0.0198024     3.125e+12
    0.0198221     3.125e+12
    0.0198419     3.125e+12
    0.0198617     3.125e+12
    0.0198814     3.125e+12
    0.0199012     3.125e+12
    0.0199209     3.125e+12
    0.0199407     3.125e+12
    0.0199605     3.125e+12
    0.0199802     3.125e+12
         0.02     3.125e+12
    0.0200198     3.125e+12
    0.0200395     3.125e+12
    0.0200593     3.125e+12
    0.0200791     3.125e+12
    0.0200988     3.125e+12
    0.0201186     3.125e+12
    0.0201383     3.125e+12
    0.0201581     3.125e+12
    0.0201779     3.125e+12
    0.0201976     3.125e+12
    0.0202174     3.125e+12
    0.0202372     3.125e+12
    0.0202569     3.125e+12
    0.0202767     3.125e+12
    0.0202964     3.125e+12
    0.0203162     3.125e+12
     0.020336     3.125e+12
    0.0203557     3.125e+12
    0.0203755     3.125e+12
    0.0203953     3.125e+12
     0.020415     3.125e+12
    0.0204348     3.125e+12
    0.0204545     3.125e+12
    0.0204743     3.125e+12
    0.0204941     3.125e+12
    0.0205138     3.125e+12
    0.0205336     3.125e+12
    0.0205534     3.125e+12
    0.0205731     3.125e+12
    0.0205929     3.125e+12
    0.0206126     3.125e+12
    0.0206324     3.125e+12
    0.0206522     3.125e+12
    0.0206719     3.125e+12
    0.0206917     3.125e+12
    0.0207115     3.125e+12
    0.0207312     3.125e+12
     0.020751     3.125e+12
    0.0207708     3.125e+12
    0.0207905     3.125e+12
    0.0208103     3.125e+12
      0.02083     3.125e+12
    0.0208498     3.125e+12
    0.0208696     3.125e+12
    0.0208893     3.125e+12
    0.0209091     3.125e+12
    0.0209289     3.125e+12
    0.0209486     3.125e+12
    0.0209684     3.125e+12
    0.0209881     3.125e+12
    0.0210079     3.125e+12
    0.0210277     3.125e+12
    0.0210474     3.125e+12
    0.0210672     3.125e+12
     0.021087     3.125e+12
    0.0211067     3.125e+12
    0.0211265     3.125e+12
    0.0211462     3.125e+12
     0.021166     3.125e+12
    0.0211858     3.125e+12
    0.0212055     3.125e+12
    0.0212253     3.125e+12
    0.0212451     3.125e+12
    0.0212648     3.125e+12
    0.0212846     3.125e+12
    0.0213043     3.125e+12
    0.0213241     3.125e+12
    0.0213439     3.125e+12
    0.0213636     3.125e+12
    0.0213834     3.125e+12
    0.0214032     3.125e+12
    0.0214229     3.125e+12
    0.0214427     3.125e+12
    0.0214625     3.125e+12
    0.0214822     3.125e+12
     0.021502     3.125e+12
    0.0215217     3.125e+12
    0.0215415     3.125e+12
    0.0215613     3.125e+12
     0.021581     3.125e+12
    0.0216008     3.125e+12
    0.0216206     3.125e+12
    0.0216403     3.125e+12
    0.0216601     3.125e+12
    0.0216798     3.125e+12
    0.0216996     3.125e+12
    0.0217194     3.125e+12
    0.0217391     3.125e+12
    0.0217589     3.125e+12
    0.0217787     3.125e+12
    0.0217984     3.125e+12
    0.0218182     3.125e+12
    0.0218379     3.125e+12
    0.0218577     3.125e+12
    0.0218775     3.125e+12
    0.0218972     3.125e+12
     0.021917     3.125e+12
    0.0219368     3.125e+12
    0.0219565     3.125e+12
    0.0219763     3.125e+12
     0.021996     3.125e+12
    0.0220158     3.125e+12
    0.0220356     3.125e+12
    0.0220553     3.125e+12
    0.0220751     3.125e+12
    0.0220949     3.125e+12
    0.0221146     3.125e+12
    0.0221344     3.125e+12
    0.0221542     3.125e+12
    0.0221739     3.125e+12
    0.0221937     3.125e+12
    0.0222134     3.125e+12
    0.0222332     3.125e+12
     0.022253     3.125e+12
    0.0222727     3.125e+12
    0.0222925     3.125e+12
    0.0223123     3.125e+12
     0.022332     3.125e+12
    0.0223518     3.125e+12
    0.0223715     3.125e+12
    0.0223913     3.125e+12
    0.0224111     3.125e+12
    0.0224308     3.125e+12
    0.0224506     3.125e+12
    0.0224704     3.125e+12
    0.0224901     3.125e+12
    0.0225099     3.125e+12
    0.0225296     3.125e+12
    0.0225494     3.125e+12
    0.0225692     3.125e+12
    0.0225889     3.125e+12
    0.0226087     3.125e+12
    0.0226285     3.125e+12
    0.0226482     3.125e+12
     0.022668     3.125e+12
    0.0226877     3.125e+12
    0.0227075     3.125e+12
    0.0227273     3.125e+12
     0.022747     3.125e+12
    0.0227668     3.125e+12
    0.0227866     3.125e+12
    0.0228063     3.125e+12
    0.0228261     3.125e+12
    0.0228458     3.125e+12
    0.0228656     3.125e+12
    0.0228854     3.125e+12
    0.0229051     3.125e+12
    0.0229249     3.125e+12
    0.0229447     3.125e+12
    0.0229644     3.125e+12
    0.0229842     3.125e+12
     0.023004     3.125e+12
    0.0230237     3.125e+12
    0.0230435     3.125e+12
    0.0230632     3.125e+12
     0.023083     3.125e+12
    0.0231028     3.125e+12
    0.0231225     3.125e+12
    0.0231423     3.125e+12
    0.0231621     3.125e+12
    0.0231818     3.125e+12
    0.0232016     3.125e+12
    0.0232213     3.125e+12
    0.0232411     3.125e+12
    0.0232609     3.125e+12
    0.0232806     3.125e+12
    0.0233004     3.125e+12
    0.0233202     3.125e+12
    0.0233399     3.125e+12
    0.0233597     3.125e+12
    0.0233794     3.125e+12
    0.0233992     3.125e+12
     0.023419     3.125e+12
    0.0234387     3.125e+12
    0.0234585     3.125e+12
    0.0234783     3.125e+12
     0.023498     3.125e+12
    0.0235178     3.125e+12
    0.0235375     3.125e+12
    0.0235573     3.125e+12
    0.0235771     3.125e+12
    0.0235968     3.125e+12
    0.0236166     3.125e+12
    0.0236364     3.125e+12
    0.0236561     3.125e+12
    0.0236759     3.125e+12
    0.0236957     3.125e+12
    0.0237154     3.125e+12
    0.0237352     3.125e+12
    0.0237549     3.125e+12
    0.0237747     3.125e+12
    0.0237945     3.125e+12
    0.0238142     3.125e+12
     0.023834     3.125e+12
    0.0238538     3.125e+12
    0.0238735     3.125e+12
    0.0238933     3.125e+12
     0.023913     3.125e+12
    0.0239328     3.125e+12
    0.0239526     3.125e+12
    0.0239723     3.125e+12
    0.0239921     3.125e+12
    0.0240119     3.125e+12
    0.0240316     3.125e+12
    0.0240514     3.125e+12
    0.0240711     3.125e+12
    0.0240909     3.125e+12
    0.0241107     3.125e+12
    0.0241304     3.125e+12
    0.0241502     3.125e+12
      0.02417     3.125e+12
    0.0241897     3.125e+12
    0.0242095     3.125e+12
    0.0242292     3.125e+12
     0.024249     3.125e+12
    0.0242688     3.125e+12
    0.0242885     3.125e+12
    0.0243083     3.125e+12
    0.0243281     3.125e+12
    0.0243478     3.125e+12
    0.0243676     3.125e+12
    0.0243874     3.125e+12
    0.0244071     3.125e+12
    0.0244269     3.125e+12
    0.0244466     3.125e+12
    0.0244664     3.125e+12
    0.0244862     3.125e+12
    0.0245059     3.125e+12
    0.0245257     3.125e+12
    0.0245455     3.125e+12
    0.0245652     3.125e+12
     0.024585     3.125e+12
    0.0246047     3.125e+12
    0.0246245     3.125e+12
    0.0246443     3.125e+12
     0.024664     3.125e+12
    0.0246838     3.125e+12
    0.0247036     3.125e+12
    0.0247233     3.125e+12
    0.0247431     3.125e+12
    0.0247628     3.125e+12
    0.0247826     3.125e+12
    0.0248024     3.125e+12
    0.0248221     3.125e+12
    0.0248419     3.125e+12
    0.0248617     3.125e+12
    0.0248814     3.125e+12
    0.0249012     3.125e+12
    0.0249209     3.125e+12
    0.0249407     3.125e+12
    0.0249605     3.125e+12
    0.0249802     3.125e+12
        0.025     3.125e+12
    0.0250198     3.125e+12
    0.0250395     3.125e+12
    0.0250593     3.125e+12
    0.0250791     3.125e+12
    0.0250988     3.125e+12
    0.0251186     3.125e+12
    0.0251383     3.125e+12
    0.0251581     3.125e+12
    0.0251779     3.125e+12
    0.0251976     3.125e+12
    0.0252174     3.125e+12
    0.0252372     3.125e+12
    0.0252569     3.125e+12
    0.0252767     3.125e+12
    0.0252964     3.125e+12
    0.0253162     3.125e+12
     0.025336     3.125e+12
    0.0253557     3.125e+12
    0.0253755     3.125e+12
    0.0253953     3.125e+12
     0.025415     3.125e+12
    0.0254348     3.125e+12
    0.0254545     3.125e+12
    0.0254743     3.125e+12
    0.0254941     3.125e+12
    0.0255138     3.125e+12
    0.0255336     3.125e+12
    0.0255534     3.125e+12
    0.0255731     3.125e+12
    0.0255929     3.125e+12
    0.0256126     3.125e+12
    0.0256324     3.125e+12
    0.0256522     3.125e+12
    0.0256719     3.125e+12
    0.0256917     3.125e+12
    0.0257115     3.125e+12
    0.0257312     3.125e+12
     0.025751     3.125e+12
    0.0257708     3.125e+12
    0.0257905     3.125e+12
    0.0258103     3.125e+12
      0.02583     3.125e+12
    0.0258498     3.125e+12
    0.0258696     3.125e+12
    0.0258893     3.125e+12
    0.0259091     3.125e+12
    0.0259289     3.125e+12
    0.0259486     3.125e+12
    0.0259684     3.125e+12
    0.0259881     3.125e+12
    0.0260079     3.125e+12
    0.0260277     3.125e+12
    0.0260474     3.125e+12
    0.0260672     3.125e+12
     0.026087     3.125e+12
    0.0261067     3.125e+12
    0.0261265     3.125e+12
    0.0261462     3.125e+12
     0.026166     3.125e+12
    0.0261858     3.125e+12
    0.0262055     3.125e+12
    0.0262253     3.125e+12
    0.0262451     3.125e+12
    0.0262648     3.125e+12
    0.0262846     3.125e+12
    0.0263043     3.125e+12
    0.0263241     3.125e+12
    0.0263439     3.125e+12
    0.0263636     3.125e+12
    0.0263834     3.125e+12
    0.0264032     3.125e+12
    0.0264229     3.125e+12
    0.0264427     3.125e+12
    0.0264625     3.125e+12
    0.0264822     3.125e+12
     0.026502     3.125e+12
    0.0265217     3.125e+12
    0.0265415     3.125e+12
    0.0265613     3.125e+12
     0.026581     3.125e+12
    0.0266008     3.125e+12
    0.0266206     3.125e+12
    0.0266403     3.125e+12
    0.0266601     3.125e+12
    0.0266798     3.125e+12
    0.0266996     3.125e+12
    0.0267194     3.125e+12
    0.0267391     3.125e+12
    0.0267589     3.125e+12
    0.0267787     3.125e+12
    0.0267984     3.125e+12
    0.0268182     3.125e+12
    0.0268379     3.125e+12
    0.0268577     3.125e+12
    0.0268775     3.125e+12
    0.0268972     3.125e+12
     0.026917     3.125e+12
    0.0269368     3.125e+12
    0.0269565     3.125e+12
    0.0269763     3.125e+12
     0.026996     3.125e+12
    0.0270158     3.125e+12
    0.0270356     3.125e+12
    0.0270553     3.125e+12
    0.0270751     3.125e+12
    0.0270949     3.125e+12
    0.0271146     3.125e+12
    0.0271344     3.125e+12
    0.0271542     3.125e+12
    0.0271739     3.125e+12
    0.0271937     3.125e+12
    0.0272134     3.125e+12
    0.0272332     3.125e+12
     0.027253     3.125e+12
    0.0272727     3.125e+12
    0.0272925     3.125e+12
    0.0273123     3.125e+12
     0.027332     3.125e+12
    0.0273518     3.125e+12
    0.0273715     3.125e+12
    0.0273913     3.125e+12
    0.0274111     3.125e+12
    0.0274308     3.125e+12
    0.0274506     3.125e+12
    0.0274704     3.125e+12
    0.0274901     3.125e+12
    0.0275099     3.125e+12
    0.0275296     3.125e+12
    0.0275494     3.125e+12
    0.0275692     3.125e+12
    0.0275889     3.125e+12
    0.0276087     3.125e+12
    0.0276285     3.125e+12
    0.0276482     3.125e+12
     0.027668     3.125e+12
    0.0276877     3.125e+12
    0.0277075     3.125e+12
    0.0277273     3.125e+12
     0.027747     3.125e+12
    0.0277668     3.125e+12
    0.0277866     3.125e+12
    0.0278063     3.125e+12
    0.0278261     3.125e+12
    0.0278458     3.125e+12
    0.0278656     3.125e+12
    0.0278854     3.125e+12
    0.0279051     3.125e+12
    0.0279249     3.125e+12
    0.0279447     3.125e+12
    0.0279644     3.125e+12
    0.0279842     3.125e+12
     0.028004     3.125e+12
    0.0280237     3.125e+12
    0.0280435     3.125e+12
    0.0280632     3.125e+12
     0.028083     3.125e+12
    0.0281028     3.125e+12
    0.0281225     3.125e+12
    0.0281423     3.125e+12
    0.0281621     3.125e+12
    0.0281818     3.125e+12
    0.0282016     3.125e+12
    0.0282213     3.125e+12
    0.0282411     3.125e+12
    0.0282609     3.125e+12
    0.0282806     3.125e+12
    0.0283004     3.125e+12
    0.0283202     3.125e+12
    0.0283399     3.125e+12
    0.0283597     3.125e+12
    0.0283794     3.125e+12
    0.0283992     3.125e+12
     0.028419     3.125e+12
    0.0284387     3.125e+12
    0.0284585     3.125e+12
    0.0284783     3.125e+12
     0.028498     3.125e+12
    0.0285178     3.125e+12
    0.0285375     3.125e+12
    0.0285573     3.125e+12
    0.0285771     3.125e+12
    0.0285968     3.125e+12
    0.0286166     3.125e+12
    0.0286364     3.125e+12
    0.0286561     3.125e+12
    0.0286759     3.125e+12
    0.0286957     3.125e+12
    0.0287154     3.125e+12
    0.0287352     3.125e+12
    0.0287549     3.125e+12
    0.0287747     3.125e+12
    0.0287945     3.125e+12
    0.0288142     3.125e+12
     0.028834     3.125e+12
    0.0288538     3.125e+12
    0.0288735     3.125e+12
    0.0288933     3.125e+12
     0.028913     3.125e+12
    0.0289328     3.125e+12
    0.0289526     3.125e+12
    0.0289723     3.125e+12
    0.0289921     3.125e+12
    0.0290119     3.125e+12
    0.0290316     3.125e+12
    0.0290514     3.125e+12
    0.0290711     3.125e+12
    0.0290909     3.125e+12
    0.0291107     3.125e+12
    0.0291304     3.125e+12
    0.0291502     3.125e+12
      0.02917     3.125e+12
    0.0291897     3.125e+12
    0.0292095     3.125e+12
    0.0292292     3.125e+12
     0.029249     3.125e+12
    0.0292688     3.125e+12
    0.0292885     3.125e+12
    0.0293083     3.125e+12
    0.0293281     3.125e+12
    0.0293478     3.125e+12
    0.0293676     3.125e+12
    0.0293874     3.125e+12
    0.0294071     3.125e+12
    0.0294269     3.125e+12
    0.0294466     3.125e+12
    0.0294664     3.125e+12
    0.0294862     3.125e+12
    0.0295059     3.125e+12
    0.0295257     3.125e+12
    0.0295455     3.125e+12
    0.0295652     3.125e+12
     0.029585     3.125e+12
    0.0296047     3.125e+12
    0.0296245     3.125e+12
    0.0296443     3.125e+12
     0.029664     3.125e+12
    0.0296838     3.125e+12
    0.0297036     3.125e+12
    0.0297233     3.125e+12
    0.0297431     3.125e+12
    0.0297628     3.125e+12
    0.0297826     3.125e+12
    0.0298024     3.125e+12
    0.0298221     3.125e+12
    0.0298419     3.125e+12
    0.0298617     3.125e+12
    0.0298814     3.125e+12
    0.0299012     3.125e+12
    0.0299209     3.125e+12
    0.0299407     3.125e+12
    0.0299605     3.125e+12
    0.0299802     3.125e+12
         0.03     3.125e+12
    0.0300198     3.125e+12
    0.0300395     3.125e+12
    0.0300593     3.125e+12
    0.0300791     3.125e+12
    0.0300988     3.125e+12
    0.0301186     3.125e+12
    0.0301383     3.125e+12
    0.0301581     3.125e+12
    0.0301779     3.125e+12
    0.0301976     3.125e+12
    0.0302174     3.125e+12
    0.0302372     3.125e+12
    0.0302569     3.125e+12
    0.0302767     3.125e+12
    0.0302964     3.125e+12
    0.0303162     3.125e+12
     0.030336     3.125e+12
    0.0303557     3.125e+12
    0.0303755     3.125e+12
    0.0303953     3.125e+12
     0.030415     3.125e+12
    0.0304348     3.125e+12
    0.0304545     3.125e+12
    0.0304743     3.125e+12
    0.0304941     3.125e+12
    0.0305138     3.125e+12
    0.0305336     3.125e+12
    0.0305534     3.125e+12
    0.0305731     3.125e+12
    0.0305929     3.125e+12
    0.0306126     3.125e+12
    0.0306324     3.125e+12
    0.0306522     3.125e+12
    0.0306719     3.125e+12
    0.0306917     3.125e+12
    0.0307115     3.125e+12
    0.0307312     3.125e+12
     0.030751     3.125e+12
    0.0307708     3.125e+12
    0.0307905     3.125e+12
    0.0308103     3.125e+12
      0.03083     3.125e+12
    0.0308498     3.125e+12
    0.0308696     3.125e+12
    0.0308893     3.125e+12
    0.0309091     3.125e+12
    0.0309289     3.125e+12
    0.0309486     3.125e+12
    0.0309684     3.125e+12
    0.0309881     3.125e+12
    0.0310079     3.125e+12
    0.0310277     3.125e+12
    0.0310474     3.125e+12
    0.0310672     3.125e+12
     0.031087     3.125e+12
    0.0311067     3.125e+12
    0.0311265     3.125e+12