/*--------------------------------*- C++ -*----------------------------------*\
| =========                 |                                                 |
| \\      /  F ield         | OpenFOAM: The Open Source CFD Toolbox           |
|  \\    /   O peration     | Version:  dev                                   |
|   \\  /    A nd           | Web:      www.OpenFOAM.org                      |
|    \\/     M anipulation  |                                                 |
\*---------------------------------------------------------------------------*/
FoamFile
{
    version     2.0;
    format      ascii;
    class       volScalarField;
    location    "0.2";
    object      A1C2H3*;
}
// * * * * * * * * * * * * * * * * * * * * * * * * * * * * * * * * * * * * * //

dimensions      [0 0 0 0 0 0 0];

internalField   nonuniform List<scalar> 
250
(
3.57134e-10
3.67559e-08
2.98205e-08
2.89266e-08
2.8816e-08
2.88055e-08
2.88014e-08
2.88029e-08
2.8804e-08
3.22359e-10
8.20838e-09
5.58595e-09
5.30669e-09
5.27173e-09
5.26851e-09
5.26751e-09
5.2676e-09
5.26834e-09
1.73904e-10
2.3437e-09
1.28347e-09
1.19056e-09
1.17861e-09
1.17752e-09
1.17726e-09
1.17718e-09
1.17749e-09
8.64486e-11
1.1042e-09
4.68035e-10
4.21464e-10
4.15345e-10
4.1477e-10
4.1462e-10
4.1458e-10
4.14743e-10
4.80175e-11
7.1277e-10
2.41531e-10
2.10311e-10
2.06165e-10
2.05754e-10
2.05576e-10
2.05606e-10
2.0572e-10
3.32188e-11
5.28775e-10
1.50024e-10
1.25875e-10
1.22662e-10
1.22323e-10
1.22054e-10
1.22193e-10
1.22278e-10
3.25732e-11
4.19997e-10
1.0399e-10
8.37096e-11
8.10027e-11
8.06868e-11
8.02828e-11
8.05443e-11
8.06132e-11
5.24575e-11
3.47094e-10
7.54174e-11
6.00968e-11
5.74438e-11
5.71232e-11
5.66846e-11
5.69659e-11
5.70147e-11
1.17955e-10
2.93991e-10
5.92529e-11
4.38914e-11
4.24177e-11
4.23118e-11
4.23827e-11
4.22668e-11
4.22989e-11
2.63649e-10
2.52527e-10
4.74556e-11
3.47798e-11
3.31883e-11
3.30094e-11
3.31643e-11
3.29469e-11
3.2953e-11
5.53877e-10
2.18106e-10
3.90271e-11
2.81465e-11
2.65791e-11
2.64082e-11
2.64498e-11
2.63444e-11
2.63438e-11
2.63068e-11
9.71319e-10
1.88081e-10
3.35806e-11
2.34591e-11
2.20201e-11
2.1854e-11
2.18883e-11
2.17975e-11
2.17952e-11
2.17842e-11
1.23432e-09
1.61242e-10
2.90358e-11
2.00635e-11
1.87311e-11
1.857e-11
1.88361e-11
1.85204e-11
1.85237e-11
1.85387e-11
1.19386e-09
1.37529e-10
2.57331e-11
1.75112e-11
1.62655e-11
1.61062e-11
1.62368e-11
1.60603e-11
1.60758e-11
1.61049e-11
9.66038e-10
1.15273e-10
2.28939e-11
1.55212e-11
1.43538e-11
1.41962e-11
1.42496e-11
1.41475e-11
1.4179e-11
1.42081e-11
6.95876e-10
9.48483e-11
2.03502e-11
1.39185e-11
1.28276e-11
1.26728e-11
1.26869e-11
1.2614e-11
1.2664e-11
1.26847e-11
4.63644e-10
7.98864e-11
1.82019e-11
1.25933e-11
1.15792e-11
1.14286e-11
1.1423e-11
1.13523e-11
1.14237e-11
1.14339e-11
2.98142e-10
6.72854e-11
1.63624e-11
1.14734e-11
1.0539e-11
1.03941e-11
1.03789e-11
1.02914e-11
1.03895e-11
1.03909e-11
1.91647e-10
5.66723e-11
1.47751e-11
1.05089e-11
9.66089e-12
9.52294e-12
9.50439e-12
9.49966e-12
9.51669e-12
9.51198e-12
1.26431e-10
4.77545e-11
1.34019e-11
9.66361e-12
8.91389e-12
8.78407e-12
8.76449e-12
8.74646e-12
8.77494e-12
8.76694e-12
8.70819e-11
4.0286e-11
1.22168e-11
9.01751e-12
8.27663e-12
8.15596e-12
8.13685e-12
8.10229e-12
8.14377e-12
8.13458e-12
6.31525e-11
3.36141e-11
1.11962e-11
8.43083e-12
7.73316e-12
7.62329e-12
7.60605e-12
7.61897e-12
7.60867e-12
7.59958e-12
4.82675e-11
2.80037e-11
1.03267e-11
7.96717e-12
7.32804e-12
7.23052e-12
7.21487e-12
7.22295e-12
7.21415e-12
7.20608e-12
3.86712e-11
2.39526e-11
9.59244e-12
7.57048e-12
7.00002e-12
6.88668e-12
6.87254e-12
6.87633e-12
6.86902e-12
6.86166e-12
3.21819e-11
2.06582e-11
9.05183e-12
7.2649e-12
6.74541e-12
6.64166e-12
6.62896e-12
6.63098e-12
6.62346e-12
6.6183e-12
2.75537e-11
1.80398e-11
8.60662e-12
7.03522e-12
6.56122e-12
6.46762e-12
6.45628e-12
6.45778e-12
6.44939e-12
6.44692e-12
)
;

boundaryField
{
    fuel
    {
        type            fixedValue;
        value           uniform 0;
    }
    wall
    {
        type            zeroGradient;
    }
    outlet
    {
        type            zeroGradient;
    }
    frontAndBack
    {
        type            empty;
    }
    procBoundary2to0
    {
        type            processor;
        value           nonuniform List<scalar> 
12
(
6.60699e-12
2.40962e-11
1.60026e-11
8.27731e-12
6.87715e-12
6.44733e-12
6.36234e-12
6.35223e-12
6.35428e-12
6.34446e-12
6.43753e-12
6.34508e-12
)
;
    }
    procBoundary2to3
    {
        type            processor;
        value           nonuniform List<scalar> 
25
(
2.8804e-08
5.268e-09
1.17729e-09
4.14628e-10
2.05641e-10
1.22219e-10
8.05545e-11
5.69636e-11
4.22518e-11
3.28985e-11
3.28985e-11
2.63699e-11
2.18085e-11
1.85213e-11
1.60575e-11
1.41474e-11
1.26233e-11
1.13784e-11
1.03434e-11
9.47239e-12
8.73448e-12
8.10828e-12
7.57856e-12
7.18886e-12
6.8478e-12
)
;
    }
}


// ************************************************************************* //
