/*--------------------------------*- C++ -*----------------------------------*\
| =========                 |                                                 |
| \\      /  F ield         | OpenFOAM: The Open Source CFD Toolbox           |
|  \\    /   O peration     | Version:  dev                                   |
|   \\  /    A nd           | Web:      www.OpenFOAM.org                      |
|    \\/     M anipulation  |                                                 |
\*---------------------------------------------------------------------------*/
FoamFile
{
    version     2.0;
    format      ascii;
    class       volScalarField;
    location    "0.2";
    object      A2C2HB;
}
// * * * * * * * * * * * * * * * * * * * * * * * * * * * * * * * * * * * * * //

dimensions      [0 0 0 0 0 0 0];

internalField   nonuniform List<scalar> 
250
(
1.93788e-09
7.95071e-08
6.28912e-08
6.05654e-08
6.02621e-08
6.02312e-08
6.02225e-08
6.02212e-08
6.023e-08
4.05759e-09
8.9357e-08
5.43074e-08
5.04162e-08
4.99352e-08
4.9888e-08
4.98736e-08
4.98745e-08
4.98829e-08
5.20179e-09
7.40853e-08
3.56997e-08
3.19027e-08
3.14384e-08
3.13924e-08
3.13788e-08
3.13783e-08
3.13872e-08
5.85871e-09
6.25566e-08
2.42514e-08
2.07501e-08
2.03271e-08
2.02842e-08
2.02703e-08
2.02699e-08
2.02789e-08
6.32755e-09
5.53324e-08
1.74907e-08
1.42347e-08
1.38491e-08
1.38091e-08
1.37917e-08
1.37947e-08
1.38035e-08
6.74894e-09
5.06572e-08
1.32625e-08
1.01937e-08
9.84008e-09
9.80236e-09
9.77699e-09
9.78808e-09
9.79611e-09
7.19871e-09
4.73268e-08
1.04777e-08
7.5521e-09
7.22319e-09
7.18636e-09
7.1483e-09
7.17073e-09
7.17807e-09
7.70897e-09
4.461e-08
8.37169e-09
5.77134e-09
5.44137e-09
5.40401e-09
5.36089e-09
5.38687e-09
5.39281e-09
8.26059e-09
4.20722e-08
6.98468e-09
4.36047e-09
4.13584e-09
4.11846e-09
4.12139e-09
4.11154e-09
4.11603e-09
8.80289e-09
3.94651e-08
5.83518e-09
3.47968e-09
3.24927e-09
3.22604e-09
3.23918e-09
3.21801e-09
3.21989e-09
9.27983e-09
3.66733e-08
4.91781e-09
2.78831e-09
2.56555e-09
2.54421e-09
2.5475e-09
2.53664e-09
2.53761e-09
2.53286e-09
9.64388e-09
3.36745e-08
4.26907e-09
2.27354e-09
2.07048e-09
2.0506e-09
2.05426e-09
2.04434e-09
2.04485e-09
2.04299e-09
9.86452e-09
3.05118e-08
3.68551e-09
1.88943e-09
1.70453e-09
1.68604e-09
1.71637e-09
1.68108e-09
1.68179e-09
1.68293e-09
9.92861e-09
2.72759e-08
3.2348e-09
1.59803e-09
1.42932e-09
1.41177e-09
1.42749e-09
1.40775e-09
1.40929e-09
1.41226e-09
9.8379e-09
2.37369e-08
2.82896e-09
1.37256e-09
1.21894e-09
1.20217e-09
1.20924e-09
1.19838e-09
1.20111e-09
1.20435e-09
9.61594e-09
1.99965e-08
2.45341e-09
1.19459e-09
1.0554e-09
1.03941e-09
1.04193e-09
1.03505e-09
1.0392e-09
1.04173e-09
9.29554e-09
1.69759e-08
2.13077e-09
1.05153e-09
9.26119e-10
9.10953e-10
9.11132e-10
9.05162e-10
9.11062e-10
9.1258e-10
8.89504e-09
1.42152e-08
1.85285e-09
9.34425e-10
8.22221e-10
8.07932e-10
8.06933e-10
7.99645e-10
8.0798e-10
8.08605e-10
8.42237e-09
1.17503e-08
1.61369e-09
8.36693e-10
7.3744e-10
7.2407e-10
7.22585e-10
7.23101e-10
7.23863e-10
7.23825e-10
7.88417e-09
9.60594e-09
1.40859e-09
7.53312e-10
6.6731e-10
6.54891e-10
6.53203e-10
6.52438e-10
6.54321e-10
6.53887e-10
7.28832e-09
7.7836e-09
1.2336e-09
6.90476e-10
6.08625e-10
5.9718e-10
5.95457e-10
5.93058e-10
5.96242e-10
5.95604e-10
6.64603e-09
6.15332e-09
1.08477e-09
6.33988e-10
5.58953e-10
5.4858e-10
5.46963e-10
5.48537e-10
5.47342e-10
5.46619e-10
5.98097e-09
4.80039e-09
9.59737e-10
5.89184e-10
5.21507e-10
5.12323e-10
5.10807e-10
5.11773e-10
5.10865e-10
5.10153e-10
5.31711e-09
3.84705e-09
8.55426e-10
5.50431e-10
4.90541e-10
4.80047e-10
4.78631e-10
4.79084e-10
4.78421e-10
4.77699e-10
4.6761e-09
3.09369e-09
7.78622e-10
5.19768e-10
4.65616e-10
4.56056e-10
4.54744e-10
4.54956e-10
4.54347e-10
4.53771e-10
4.07959e-09
2.51454e-09
7.15272e-10
4.95779e-10
4.46579e-10
4.37984e-10
4.36776e-10
4.36907e-10
4.36254e-10
4.35904e-10
)
;

boundaryField
{
    fuel
    {
        type            fixedValue;
        value           uniform 0;
    }
    wall
    {
        type            zeroGradient;
    }
    outlet
    {
        type            zeroGradient;
    }
    frontAndBack
    {
        type            empty;
    }
    procBoundary2to0
    {
        type            processor;
        value           nonuniform List<scalar> 
12
(
4.52756e-10
3.54602e-09
2.08008e-09
6.67807e-10
4.78347e-10
4.33858e-10
4.26064e-10
4.24957e-10
4.25168e-10
4.24371e-10
4.35077e-10
4.2434e-10
)
;
    }
    procBoundary2to3
    {
        type            processor;
        value           nonuniform List<scalar> 
25
(
6.0226e-08
4.98787e-08
3.13819e-08
2.02732e-08
1.37978e-08
9.79081e-09
7.17232e-09
5.38726e-09
4.11052e-09
3.21336e-09
3.21336e-09
2.53979e-09
2.04571e-09
1.68107e-09
1.40706e-09
1.19768e-09
1.03504e-09
9.06625e-10
8.03617e-10
7.19777e-10
6.50654e-10
5.93052e-10
5.44629e-10
5.08557e-10
4.76437e-10
)
;
    }
}


// ************************************************************************* //
