/*--------------------------------*- C++ -*----------------------------------*\
| =========                 |                                                 |
| \\      /  F ield         | OpenFOAM: The Open Source CFD Toolbox           |
|  \\    /   O peration     | Version:  dev                                   |
|   \\  /    A nd           | Web:      www.OpenFOAM.org                      |
|    \\/     M anipulation  |                                                 |
\*---------------------------------------------------------------------------*/
FoamFile
{
    version     2.0;
    format      ascii;
    class       volScalarField;
    location    "0.2";
    object      A2C2HB;
}
// * * * * * * * * * * * * * * * * * * * * * * * * * * * * * * * * * * * * * //

dimensions      [0 0 0 0 0 0 0];

internalField   nonuniform List<scalar> 
50
(
2.46943e-20
2.27436e-20
2.09765e-20
1.93717e-20
1.79286e-20
1.6607e-20
1.53907e-20
1.4278e-20
1.32591e-20
1.23252e-20
1.14784e-20
1.06914e-20
9.97532e-21
9.31192e-21
8.70278e-21
8.13973e-21
7.61869e-21
7.13602e-21
6.68552e-21
6.2705e-21
5.88525e-21
5.52762e-21
5.19517e-21
4.88457e-21
4.59649e-21
4.32564e-21
4.07538e-21
3.84198e-21
3.62404e-21
3.42032e-21
3.22919e-21
3.05064e-21
2.88321e-21
2.72397e-21
2.57417e-21
2.4335e-21
2.3014e-21
2.17738e-21
2.0626e-21
1.9547e-21
1.85295e-21
1.75579e-21
1.66434e-21
1.57838e-21
1.49767e-21
1.42197e-21
1.35215e-21
1.28604e-21
1.22466e-21
1.16682e-21
)
;

boundaryField
{
    wall
    {
        type            zeroGradient;
    }
    fuel
    {
        type            fixedValue;
        value           nonuniform 0();
    }
    outlet
    {
        type            inletOutlet;
        inletValue      nonuniform 0();
        value           nonuniform 0();
    }
    procBoundary2to1
    {
        type            processor;
        value           uniform 2.67982e-20;
    }
    procBoundary2to3
    {
        type            processor;
        value           uniform 1.11383e-21;
    }
}


// ************************************************************************* //
