/*--------------------------------*- C++ -*----------------------------------*\
| =========                 |                                                 |
| \\      /  F ield         | OpenFOAM: The Open Source CFD Toolbox           |
|  \\    /   O peration     | Version:  dev                                   |
|   \\  /    A nd           | Web:      www.OpenFOAM.org                      |
|    \\/     M anipulation  |                                                 |
\*---------------------------------------------------------------------------*/
FoamFile
{
    version     2.0;
    format      ascii;
    class       volScalarField;
    location    "0.2";
    object      AC3H4;
}
// * * * * * * * * * * * * * * * * * * * * * * * * * * * * * * * * * * * * * //

dimensions      [0 0 0 0 0 0 0];

internalField   nonuniform List<scalar> 
250
(
5.17279e-06
2.467e-05
1.8149e-05
1.74792e-05
1.74042e-05
1.73974e-05
1.73938e-05
1.73963e-05
1.73942e-05
1.36346e-05
4.79762e-06
3.62373e-06
3.50094e-06
3.4861e-06
3.48472e-06
3.48416e-06
3.48437e-06
3.48435e-06
2.14232e-05
2.41474e-06
1.90529e-06
1.84483e-06
1.83654e-06
1.83564e-06
1.83528e-06
1.83527e-06
1.83545e-06
2.77419e-05
2.02476e-06
1.61545e-06
1.56005e-06
1.55166e-06
1.55063e-06
1.55011e-06
1.55008e-06
1.55034e-06
3.21805e-05
1.93305e-06
1.53055e-06
1.47085e-06
1.46114e-06
1.45984e-06
1.45899e-06
1.45907e-06
1.45939e-06
3.47525e-05
1.89932e-06
1.48335e-06
1.41751e-06
1.40613e-06
1.40451e-06
1.40313e-06
1.4035e-06
1.40386e-06
3.58006e-05
1.87557e-06
1.44397e-06
1.37196e-06
1.35872e-06
1.35672e-06
1.35464e-06
1.35545e-06
1.35581e-06
3.58299e-05
1.85019e-06
1.40257e-06
1.32926e-06
1.31344e-06
1.31103e-06
1.30863e-06
1.30952e-06
1.30981e-06
3.53408e-05
1.82044e-06
1.36575e-06
1.28217e-06
1.26757e-06
1.26557e-06
1.26499e-06
1.2643e-06
1.26449e-06
3.45872e-05
1.7856e-06
1.3255e-06
1.24319e-06
1.2262e-06
1.22356e-06
1.22335e-06
1.22216e-06
1.22217e-06
3.32394e-05
1.7449e-06
1.28462e-06
1.20292e-06
1.18346e-06
1.1805e-06
1.17975e-06
1.17908e-06
1.17902e-06
1.17832e-06
3.04687e-05
1.69715e-06
1.24942e-06
1.16373e-06
1.14269e-06
1.13942e-06
1.13892e-06
1.13802e-06
1.13797e-06
1.13767e-06
2.59013e-05
1.64201e-06
1.21168e-06
1.12611e-06
1.10366e-06
1.1001e-06
1.1028e-06
1.09868e-06
1.09881e-06
1.09896e-06
2.01941e-05
1.58159e-06
1.17786e-06
1.09001e-06
1.0663e-06
1.06245e-06
1.0637e-06
1.06092e-06
1.06142e-06
1.06184e-06
1.43699e-05
1.51323e-06
1.14307e-06
1.05532e-06
1.03062e-06
1.0265e-06
1.02683e-06
1.02472e-06
1.02573e-06
1.02617e-06
9.35351e-06
1.43956e-06
1.10659e-06
1.02198e-06
9.96608e-07
9.92278e-07
9.92066e-07
9.90047e-07
9.91705e-07
9.91978e-07
5.69669e-06
1.37828e-06
1.07117e-06
9.89967e-07
9.64284e-07
9.59797e-07
9.59269e-07
9.56886e-07
9.59335e-07
9.5937e-07
3.44537e-06
1.3208e-06
1.03693e-06
9.59214e-07
9.33659e-07
9.29079e-07
9.28372e-07
9.25195e-07
9.28639e-07
9.28445e-07
2.21388e-06
1.26711e-06
1.00401e-06
9.29601e-07
9.04746e-07
9.00141e-07
8.99367e-07
8.98779e-07
8.9966e-07
8.99274e-07
1.59452e-06
1.21685e-06
9.72579e-07
9.00958e-07
8.7755e-07
8.72993e-07
8.7219e-07
8.71065e-07
8.72415e-07
8.719e-07
1.29987e-06
1.16953e-06
9.42809e-07
8.76962e-07
8.52065e-07
8.47631e-07
8.46834e-07
8.45011e-07
8.46931e-07
8.4634e-07
1.16263e-06
1.12155e-06
9.14756e-07
8.53222e-07
8.28224e-07
8.24019e-07
8.23277e-07
8.2347e-07
8.23204e-07
8.22571e-07
1.09651e-06
1.07573e-06
8.88504e-07
8.32622e-07
8.08528e-07
8.04695e-07
8.03996e-07
8.03959e-07
8.03779e-07
8.03133e-07
1.06045e-06
1.03794e-06
8.63978e-07
8.13114e-07
7.90658e-07
7.85784e-07
7.85121e-07
7.84846e-07
7.84772e-07
7.84075e-07
1.03611e-06
1.00278e-06
8.43721e-07
7.96001e-07
7.74605e-07
7.70019e-07
7.69395e-07
7.68972e-07
7.6894e-07
7.68259e-07
1.0158e-06
9.70624e-07
8.2469e-07
7.80675e-07
7.6029e-07
7.56043e-07
7.55455e-07
7.5492e-07
7.54916e-07
7.5426e-07
)
;

boundaryField
{
    fuel
    {
        type            fixedValue;
        value           uniform 0;
    }
    wall
    {
        type            zeroGradient;
    }
    outlet
    {
        type            zeroGradient;
    }
    frontAndBack
    {
        type            empty;
    }
    procBoundary2to0
    {
        type            processor;
        value           nonuniform List<scalar> 
12
(
7.67824e-07
9.96467e-07
9.41597e-07
8.07927e-07
7.66969e-07
7.47691e-07
7.43748e-07
7.43189e-07
7.42579e-07
7.42592e-07
7.53922e-07
7.41969e-07
)
;
    }
    procBoundary2to3
    {
        type            processor;
        value           nonuniform List<scalar> 
25
(
1.73955e-05
3.48434e-06
1.83534e-06
1.55018e-06
1.45916e-06
1.40354e-06
1.35538e-06
1.30926e-06
1.26383e-06
1.22137e-06
1.22137e-06
1.17967e-06
1.1384e-06
1.09891e-06
1.06112e-06
1.02502e-06
9.90637e-07
9.58004e-07
9.27145e-07
8.98086e-07
8.70847e-07
8.4543e-07
8.21805e-07
8.02483e-07
7.83538e-07
)
;
    }
}


// ************************************************************************* //
