/*--------------------------------*- C++ -*----------------------------------*\
| =========                 |                                                 |
| \\      /  F ield         | OpenFOAM: The Open Source CFD Toolbox           |
|  \\    /   O peration     | Version:  dev                                   |
|   \\  /    A nd           | Web:      www.OpenFOAM.org                      |
|    \\/     M anipulation  |                                                 |
\*---------------------------------------------------------------------------*/
FoamFile
{
    version     2.0;
    format      ascii;
    class       volScalarField;
    location    "0.2";
    object      C6H5OH;
}
// * * * * * * * * * * * * * * * * * * * * * * * * * * * * * * * * * * * * * //

dimensions      [0 0 0 0 0 0 0];

internalField   nonuniform List<scalar> 
250
(
5.50488e-07
2.28768e-05
2.0115e-05
1.96658e-05
1.96047e-05
1.95917e-05
1.95927e-05
1.95924e-05
1.95928e-05
1.26751e-06
6.61874e-06
5.64154e-06
5.42196e-06
5.41011e-06
5.3984e-06
5.40036e-06
5.39939e-06
5.39961e-06
5.05712e-06
2.50843e-06
2.06258e-06
1.92646e-06
1.92714e-06
1.91703e-06
1.91916e-06
1.91792e-06
1.91825e-06
1.21602e-05
1.24026e-06
9.54914e-07
8.57802e-07
8.61118e-07
8.52794e-07
8.54709e-07
8.53576e-07
8.5391e-07
5.20505e-06
7.24241e-07
5.18378e-07
4.44051e-07
4.47338e-07
4.40808e-07
4.42259e-07
4.41428e-07
4.41715e-07
3.08312e-06
4.80265e-07
3.09102e-07
2.58977e-07
2.61464e-07
2.56459e-07
2.57392e-07
2.56912e-07
2.57133e-07
2.34267e-06
3.45804e-07
2.07128e-07
1.67267e-07
1.68795e-07
1.64942e-07
1.65467e-07
1.65252e-07
1.65424e-07
2.01835e-06
2.71099e-07
1.50296e-07
1.17475e-07
1.18286e-07
1.15332e-07
1.15675e-07
1.15546e-07
1.15676e-07
1.85638e-06
2.28951e-07
1.14855e-07
8.73821e-08
8.87327e-08
8.65526e-08
8.69531e-08
8.67046e-08
8.681e-08
1.77614e-06
2.00212e-07
9.11034e-08
6.91069e-08
6.94442e-08
6.75731e-08
6.80346e-08
6.76549e-08
6.77439e-08
1.74466e-06
1.80693e-07
7.54428e-08
5.65096e-08
5.64022e-08
5.49613e-08
5.53142e-08
5.49962e-08
5.50694e-08
5.50067e-08
1.73983e-06
1.64845e-07
6.44575e-08
4.79479e-08
4.75395e-08
4.6369e-08
4.65576e-08
4.63721e-08
4.64385e-08
4.63802e-08
1.74123e-06
1.51605e-07
5.61927e-08
4.18257e-08
4.12217e-08
4.02369e-08
4.02313e-08
4.02146e-08
4.02797e-08
4.02316e-08
1.73092e-06
1.39893e-07
5.1022e-08
3.72527e-08
3.65146e-08
3.56685e-08
3.60697e-08
3.56209e-08
3.56878e-08
3.56524e-08
1.69562e-06
1.29672e-07
4.6604e-08
3.36982e-08
3.28701e-08
3.21252e-08
3.24351e-08
3.20536e-08
3.21295e-08
3.21051e-08
1.62783e-06
1.20047e-07
4.26718e-08
3.08388e-08
2.99552e-08
2.92871e-08
2.9506e-08
2.91886e-08
2.92819e-08
2.92648e-08
1.52649e-06
1.10551e-07
3.93397e-08
2.84738e-08
2.75621e-08
2.69556e-08
2.71064e-08
2.68221e-08
2.69441e-08
2.69309e-08
1.39689e-06
1.01357e-07
3.63893e-08
2.64754e-08
2.55579e-08
2.50043e-08
2.5107e-08
2.48217e-08
2.49887e-08
2.4977e-08
1.24947e-06
9.26722e-08
3.42792e-08
2.47618e-08
2.38565e-08
2.33512e-08
2.34232e-08
2.33243e-08
2.33333e-08
2.33216e-08
1.06514e-06
8.4485e-08
3.2275e-08
2.32764e-08
2.24012e-08
2.19423e-08
2.19929e-08
2.18913e-08
2.19225e-08
2.19114e-08
9.02802e-07
7.69026e-08
3.03166e-08
2.21239e-08
2.11538e-08
2.07417e-08
2.07768e-08
2.06611e-08
2.07204e-08
2.07107e-08
7.55151e-07
6.99329e-08
2.85832e-08
2.10903e-08
2.00863e-08
1.97265e-08
1.97491e-08
1.9743e-08
1.97035e-08
1.96959e-08
6.13529e-07
6.35694e-08
2.7051e-08
2.02807e-08
1.93185e-08
1.89877e-08
1.90059e-08
1.9e-08
1.89664e-08
1.89606e-08
4.99306e-07
5.78486e-08
2.56995e-08
1.95925e-08
1.86562e-08
1.83604e-08
1.83711e-08
1.83669e-08
1.83381e-08
1.83346e-08
4.09147e-07
5.27598e-08
2.45067e-08
1.91048e-08
1.82022e-08
1.79409e-08
1.79457e-08
1.79452e-08
1.79192e-08
1.7919e-08
3.24915e-07
4.82695e-08
2.36764e-08
1.87814e-08
1.79104e-08
1.76849e-08
1.76834e-08
1.76884e-08
1.76636e-08
1.76674e-08
)
;

boundaryField
{
    fuel
    {
        type            fixedValue;
        value           uniform 0;
    }
    wall
    {
        type            zeroGradient;
    }
    outlet
    {
        type            zeroGradient;
    }
    frontAndBack
    {
        type            empty;
    }
    procBoundary2to0
    {
        type            processor;
        value           nonuniform List<scalar> 
12
(
1.79273e-08
2.53554e-07
4.43618e-08
2.30279e-08
1.86245e-08
1.77838e-08
1.75949e-08
1.75868e-08
1.75987e-08
1.7574e-08
1.76757e-08
1.75821e-08
)
;
    }
    procBoundary2to3
    {
        type            processor;
        value           nonuniform List<scalar> 
25
(
1.9593e-05
5.39958e-06
1.91804e-06
8.53669e-07
4.41492e-07
2.56941e-07
1.6524e-07
1.15526e-07
8.67063e-08
6.76667e-08
6.76667e-08
5.50398e-08
4.64185e-08
4.02658e-08
3.56781e-08
3.21227e-08
2.92772e-08
2.69411e-08
2.49867e-08
2.33315e-08
2.19212e-08
2.07199e-08
1.97036e-08
1.89637e-08
1.83469e-08
)
;
    }
}


// ************************************************************************* //
