/*--------------------------------*- C++ -*----------------------------------*\
| =========                 |                                                 |
| \\      /  F ield         | OpenFOAM: The Open Source CFD Toolbox           |
|  \\    /   O peration     | Version:  dev                                   |
|   \\  /    A nd           | Web:      www.OpenFOAM.org                      |
|    \\/     M anipulation  |                                                 |
\*---------------------------------------------------------------------------*/
FoamFile
{
    version     2.0;
    format      ascii;
    class       volScalarField;
    location    "0.2";
    object      CH2O;
}
// * * * * * * * * * * * * * * * * * * * * * * * * * * * * * * * * * * * * * //

dimensions      [0 0 0 0 0 0 0];

internalField   nonuniform List<scalar> 
250
(
4.93878e-05
0.000371596
0.0003252
0.000320288
0.000319735
0.000319685
0.000319659
0.000319678
0.000319664
9.9038e-05
0.000101605
9.14285e-05
9.03982e-05
9.02638e-05
9.02535e-05
9.02518e-05
9.025e-05
9.02533e-05
0.000128406
3.89036e-05
3.47013e-05
3.43831e-05
3.43273e-05
3.43235e-05
3.43248e-05
3.43205e-05
3.43254e-05
0.000146829
1.96634e-05
1.71422e-05
1.70457e-05
1.70162e-05
1.7014e-05
1.70147e-05
1.7011e-05
1.70153e-05
0.00015755
1.22023e-05
1.04696e-05
1.04701e-05
1.04534e-05
1.04516e-05
1.04505e-05
1.04484e-05
1.04521e-05
0.000162476
8.68497e-06
7.49873e-06
7.55346e-06
7.54443e-06
7.54273e-06
7.53842e-06
7.5392e-06
7.54227e-06
0.000164362
6.7351e-06
6.00922e-06
6.09526e-06
6.09023e-06
6.088e-06
6.07902e-06
6.08337e-06
6.0861e-06
0.000166452
5.51483e-06
5.11329e-06
5.29867e-06
5.2874e-06
5.28404e-06
5.27276e-06
5.27831e-06
5.28049e-06
0.000169883
4.68572e-06
4.61497e-06
4.76293e-06
4.78388e-06
4.7867e-06
4.79012e-06
4.784e-06
4.7857e-06
0.000167275
4.08144e-06
4.25243e-06
4.45645e-06
4.46842e-06
4.46819e-06
4.4737e-06
4.46445e-06
4.46534e-06
0.000146915
3.60687e-06
3.98639e-06
4.2208e-06
4.22827e-06
4.22773e-06
4.22893e-06
4.22342e-06
4.22425e-06
4.22194e-06
0.000110548
3.21631e-06
3.80518e-06
4.03635e-06
4.04308e-06
4.04216e-06
4.04296e-06
4.03751e-06
4.03868e-06
4.03743e-06
7.14874e-05
2.89777e-06
3.64369e-06
3.88287e-06
3.88801e-06
3.88671e-06
3.89906e-06
3.88158e-06
3.88364e-06
3.88357e-06
4.11044e-05
2.65153e-06
3.51723e-06
3.74753e-06
3.75016e-06
3.74833e-06
3.75469e-06
3.74237e-06
3.74594e-06
3.7465e-06
2.18337e-05
2.45645e-06
3.39981e-06
3.62282e-06
3.62246e-06
3.62005e-06
3.62281e-06
3.61268e-06
3.61829e-06
3.61866e-06
1.11475e-05
2.30791e-06
3.28549e-06
3.50426e-06
3.50072e-06
3.49777e-06
3.49851e-06
3.48825e-06
3.49639e-06
3.49598e-06
5.72549e-06
2.21829e-06
3.17935e-06
3.38892e-06
3.38229e-06
3.37886e-06
3.37843e-06
3.36626e-06
3.37753e-06
3.3761e-06
3.16281e-06
2.15772e-06
3.07849e-06
3.27451e-06
3.26527e-06
3.26147e-06
3.26034e-06
3.24449e-06
3.25989e-06
3.2574e-06
1.98882e-06
2.11771e-06
2.98062e-06
3.15886e-06
3.14816e-06
3.14411e-06
3.14268e-06
3.13663e-06
3.14208e-06
3.13857e-06
1.45737e-06
2.09155e-06
2.88379e-06
3.0397e-06
3.02957e-06
3.02546e-06
3.02382e-06
3.01466e-06
3.02278e-06
3.01837e-06
1.22178e-06
2.0736e-06
2.78639e-06
2.93186e-06
2.90813e-06
2.90418e-06
2.90244e-06
2.88926e-06
2.90076e-06
2.8955e-06
1.12739e-06
2.05778e-06
2.68644e-06
2.81463e-06
2.78203e-06
2.77867e-06
2.77701e-06
2.77406e-06
2.77452e-06
2.76842e-06
1.10509e-06
2.04066e-06
2.58209e-06
2.70106e-06
2.66466e-06
2.66274e-06
2.66106e-06
2.65618e-06
2.65791e-06
2.65105e-06
1.12191e-06
2.02087e-06
2.47091e-06
2.57897e-06
2.54274e-06
2.53233e-06
2.5305e-06
2.5235e-06
2.52675e-06
2.51865e-06
1.15947e-06
1.99345e-06
2.36451e-06
2.4556e-06
2.41572e-06
2.40589e-06
2.40397e-06
2.39542e-06
2.39973e-06
2.3908e-06
1.2052e-06
1.95578e-06
2.24703e-06
2.32641e-06
2.28285e-06
2.27359e-06
2.27157e-06
2.26163e-06
2.26694e-06
2.25718e-06
)
;

boundaryField
{
    fuel
    {
        type            fixedValue;
        value           uniform 0;
    }
    wall
    {
        type            zeroGradient;
    }
    outlet
    {
        type            zeroGradient;
    }
    frontAndBack
    {
        type            empty;
    }
    procBoundary2to0
    {
        type            processor;
        value           nonuniform List<scalar> 
12
(
2.39051e-06
1.24738e-06
1.90494e-06
2.12436e-06
2.19046e-06
2.14366e-06
2.13487e-06
2.1327e-06
2.1216e-06
2.12784e-06
2.25729e-06
2.11727e-06
)
;
    }
    procBoundary2to3
    {
        type            processor;
        value           nonuniform List<scalar> 
25
(
0.000319672
9.02497e-05
3.43212e-05
1.70118e-05
1.04492e-05
7.53992e-06
6.08354e-06
5.27798e-06
4.78312e-06
4.46239e-06
4.46239e-06
4.2257e-06
4.03938e-06
3.88323e-06
3.74422e-06
3.61522e-06
3.49211e-06
3.37227e-06
3.25386e-06
3.13545e-06
3.01573e-06
2.89338e-06
2.76683e-06
2.6499e-06
2.51794e-06
)
;
    }
}


// ************************************************************************* //
