/*--------------------------------*- C++ -*----------------------------------*\
| =========                 |                                                 |
| \\      /  F ield         | OpenFOAM: The Open Source CFD Toolbox           |
|  \\    /   O peration     | Version:  dev                                   |
|   \\  /    A nd           | Web:      www.OpenFOAM.org                      |
|    \\/     M anipulation  |                                                 |
\*---------------------------------------------------------------------------*/
FoamFile
{
    version     2.0;
    format      ascii;
    class       volScalarField;
    location    "0.2";
    object      CO2;
}
// * * * * * * * * * * * * * * * * * * * * * * * * * * * * * * * * * * * * * //

dimensions      [0 0 0 0 0 0 0];

internalField   nonuniform List<scalar> 
250
(
0.00339258
0.0392376
0.0394345
0.0394259
0.0394226
0.039422
0.0394217
0.0394215
0.0394217
0.00927489
0.0470475
0.0467355
0.0466398
0.0466242
0.0466219
0.0466208
0.0466207
0.0466209
0.0152346
0.0495208
0.0488041
0.0486239
0.0485942
0.0485901
0.0485879
0.0485877
0.0485883
0.0208648
0.0505563
0.0495133
0.0492519
0.0492071
0.0492007
0.0491971
0.0491968
0.049198
0.0258823
0.0510751
0.0497628
0.0494239
0.0493633
0.0493545
0.0493487
0.0493489
0.0493506
0.0301403
0.0513593
0.0498209
0.0494093
0.0493323
0.0493207
0.0493118
0.0493135
0.0493155
0.0336368
0.051514
0.0497853
0.0493063
0.0492123
0.0491977
0.0491849
0.0491888
0.0491908
0.0364702
0.0515846
0.0496863
0.0491571
0.0490432
0.0490255
0.0490109
0.0490149
0.0490165
0.038772
0.0515932
0.0495635
0.0489526
0.0488354
0.0488184
0.0488127
0.0488088
0.0488097
0.0406573
0.0515522
0.049399
0.048761
0.0486251
0.0486036
0.0485996
0.0485932
0.048593
0.0422121
0.0514696
0.0492078
0.0485433
0.0483865
0.0483622
0.0483552
0.0483518
0.0483509
0.0483467
0.043506
0.0513515
0.0490278
0.0483155
0.0481432
0.0481161
0.048111
0.0481059
0.048105
0.0481033
0.0445927
0.0512025
0.0488203
0.0480853
0.0478989
0.0478692
0.0478847
0.047859
0.0478591
0.0478604
0.0455135
0.0510276
0.0486246
0.047856
0.0476573
0.047625
0.0476315
0.0476144
0.0476167
0.0476199
0.0462971
0.0508101
0.0484148
0.0476304
0.0474216
0.047387
0.0473877
0.0473751
0.0473807
0.0473842
0.0469615
0.0505474
0.0481877
0.0474105
0.0471949
0.0471584
0.0471557
0.0471438
0.0471537
0.0471562
0.0475205
0.0503039
0.0479622
0.0471987
0.0469795
0.0469416
0.046937
0.0469231
0.046938
0.0469391
0.0479723
0.0500461
0.0477416
0.0469967
0.0467779
0.0467392
0.0467334
0.0467148
0.046736
0.0467357
0.0483242
0.0497771
0.047529
0.0468057
0.0465922
0.0465532
0.046547
0.046546
0.04655
0.0465489
0.048583
0.0495013
0.0473278
0.0466269
0.0464246
0.0463859
0.0463796
0.046376
0.0463824
0.0463809
0.0487559
0.0492226
0.0471417
0.0464847
0.0462773
0.0462394
0.0462333
0.0462265
0.0462355
0.0462341
0.0488521
0.0489256
0.0469737
0.0463544
0.0461523
0.046116
0.0461104
0.046115
0.0461118
0.0461109
0.0488832
0.0486326
0.0468274
0.0462541
0.0460637
0.0460299
0.0460247
0.046029
0.0460254
0.0460254
0.0488616
0.0483878
0.0467055
0.0461756
0.0460012
0.0459649
0.0459603
0.0459646
0.0459605
0.0459616
0.0487992
0.0481625
0.046622
0.0461263
0.0459666
0.0459329
0.0459289
0.0459336
0.0459286
0.0459312
0.0487086
0.0479641
0.0465651
0.0461059
0.0459613
0.0459308
0.0459272
0.0459329
0.0459268
0.0459311
)
;

boundaryField
{
    fuel
    {
        type            fixedValue;
        value           uniform 0;
    }
    wall
    {
        type            zeroGradient;
    }
    outlet
    {
        type            zeroGradient;
    }
    frontAndBack
    {
        type            empty;
    }
    procBoundary2to0
    {
        type            processor;
        value           nonuniform List<scalar> 
12
(
0.0459272
0.048604
0.0477996
0.0465404
0.0461152
0.0459871
0.0459595
0.0459565
0.0459635
0.0459561
0.0459275
0.0459623
)
;
    }
    procBoundary2to3
    {
        type            processor;
        value           nonuniform List<scalar> 
25
(
0.0394215
0.0466207
0.0485878
0.049197
0.0493491
0.0493134
0.0491879
0.0490129
0.0488053
0.048588
0.048588
0.0483558
0.0481085
0.0478604
0.0476152
0.0473764
0.0471469
0.0469294
0.0467264
0.0465402
0.046373
0.0462272
0.0461049
0.0460201
0.045957
)
;
    }
}


// ************************************************************************* //
