/*--------------------------------*- C++ -*----------------------------------*\
| =========                 |                                                 |
| \\      /  F ield         | OpenFOAM: The Open Source CFD Toolbox           |
|  \\    /   O peration     | Version:  dev                                   |
|   \\  /    A nd           | Web:      www.OpenFOAM.org                      |
|    \\/     M anipulation  |                                                 |
\*---------------------------------------------------------------------------*/
FoamFile
{
    version     2.0;
    format      ascii;
    class       volScalarField;
    location    "0.2";
    object      H;
}
// * * * * * * * * * * * * * * * * * * * * * * * * * * * * * * * * * * * * * //

dimensions      [0 0 0 0 0 0 0];

internalField   nonuniform List<scalar> 
250
(
1.08236e-08
9.70656e-05
0.000110322
0.000112063
0.000112267
0.000112286
0.000112297
0.00011229
0.000112295
1.57498e-08
0.000111377
0.000123567
0.000125394
0.000125621
0.000125646
0.000125659
0.000125652
0.000125656
1.11327e-08
7.75511e-05
8.61471e-05
8.77827e-05
8.79838e-05
8.80093e-05
8.80251e-05
8.80165e-05
8.80219e-05
7.57735e-09
5.25405e-05
5.91046e-05
6.06688e-05
6.08574e-05
6.08825e-05
6.08988e-05
6.08891e-05
6.08955e-05
6.07743e-09
3.80967e-05
4.38731e-05
4.54622e-05
4.56546e-05
4.56797e-05
4.56937e-05
4.56851e-05
4.56917e-05
6.00664e-09
2.96364e-05
3.54865e-05
3.71659e-05
3.73746e-05
3.74006e-05
3.74084e-05
3.74049e-05
3.74111e-05
7.93288e-09
2.43226e-05
3.07765e-05
3.25673e-05
3.27968e-05
3.28231e-05
3.28186e-05
3.28239e-05
3.28303e-05
1.72859e-08
2.07502e-05
2.77975e-05
2.9978e-05
3.02045e-05
3.02298e-05
3.02162e-05
3.0227e-05
3.02329e-05
6.24057e-08
1.82325e-05
2.61371e-05
2.8291e-05
2.86387e-05
2.86853e-05
2.87105e-05
2.86908e-05
2.86965e-05
2.31103e-07
1.64101e-05
2.49791e-05
2.73935e-05
2.77345e-05
2.77757e-05
2.7806e-05
2.77769e-05
2.77817e-05
6.47757e-07
1.50834e-05
2.41907e-05
2.67787e-05
2.71337e-05
2.7178e-05
2.71952e-05
2.71758e-05
2.71816e-05
2.71788e-05
1.34283e-06
1.4132e-05
2.37e-05
2.63573e-05
2.67335e-05
2.67805e-05
2.67927e-05
2.67755e-05
2.67831e-05
2.67801e-05
2.10179e-06
1.34771e-05
2.3308e-05
2.60434e-05
2.64343e-05
2.64839e-05
2.65154e-05
2.64756e-05
2.6486e-05
2.64831e-05
2.75641e-06
1.30652e-05
2.30319e-05
2.57828e-05
2.61808e-05
2.62321e-05
2.62518e-05
2.62196e-05
2.62341e-05
2.62309e-05
3.34339e-06
1.28335e-05
2.28006e-05
2.55424e-05
2.59403e-05
2.59924e-05
2.60052e-05
2.59741e-05
2.5994e-05
2.59895e-05
3.90988e-06
1.27738e-05
2.25927e-05
2.53009e-05
2.56915e-05
2.57438e-05
2.57526e-05
2.57174e-05
2.57446e-05
2.57377e-05
4.44559e-06
1.28517e-05
2.24053e-05
2.50425e-05
2.54195e-05
2.54712e-05
2.54773e-05
2.54335e-05
2.54704e-05
2.54603e-05
4.92367e-06
1.30328e-05
2.22215e-05
2.47538e-05
2.51119e-05
2.51624e-05
2.51667e-05
2.51082e-05
2.51595e-05
2.51455e-05
5.34991e-06
1.32916e-05
2.20258e-05
2.44212e-05
2.47576e-05
2.48065e-05
2.48096e-05
2.47762e-05
2.48008e-05
2.47822e-05
5.75338e-06
1.36028e-05
2.18032e-05
2.40298e-05
2.43454e-05
2.43926e-05
2.43944e-05
2.43458e-05
2.43834e-05
2.43597e-05
6.17203e-06
1.39408e-05
2.15394e-05
2.36271e-05
2.38635e-05
2.3909e-05
2.39096e-05
2.38408e-05
2.38958e-05
2.38662e-05
6.63732e-06
1.43037e-05
2.1218e-05
2.31325e-05
2.3297e-05
2.33422e-05
2.33421e-05
2.33167e-05
2.33247e-05
2.32881e-05
7.16228e-06
1.46434e-05
2.0822e-05
2.25955e-05
2.27074e-05
2.27565e-05
2.27553e-05
2.27179e-05
2.27345e-05
2.26912e-05
7.74024e-06
1.4889e-05
2.03314e-05
2.19549e-05
2.20313e-05
2.20279e-05
2.20245e-05
2.1973e-05
2.20003e-05
2.19465e-05
8.34747e-06
1.50561e-05
1.97974e-05
2.12446e-05
2.1263e-05
2.12566e-05
2.12514e-05
2.11884e-05
2.12241e-05
2.11618e-05
8.94613e-06
1.51174e-05
1.91401e-05
2.04377e-05
2.03963e-05
2.0386e-05
2.03788e-05
2.03046e-05
2.03488e-05
2.02776e-05
)
;

boundaryField
{
    fuel
    {
        type            fixedValue;
        value           uniform 0;
    }
    wall
    {
        type            zeroGradient;
    }
    outlet
    {
        type            zeroGradient;
    }
    frontAndBack
    {
        type            empty;
    }
    procBoundary2to0
    {
        type            processor;
        value           nonuniform List<scalar> 
12
(
2.1166e-05
9.47735e-06
1.50449e-05
1.83884e-05
1.95276e-05
1.94267e-05
1.94121e-05
1.94026e-05
1.9318e-05
1.93705e-05
2.02835e-05
1.92903e-05
)
;
    }
    procBoundary2to3
    {
        type            processor;
        value           nonuniform List<scalar> 
25
(
0.000112292
0.000125652
8.80169e-05
6.08901e-05
4.5687e-05
3.74075e-05
3.28262e-05
3.02294e-05
2.86934e-05
2.77778e-05
2.77778e-05
2.71798e-05
2.67805e-05
2.6482e-05
2.62281e-05
2.59857e-05
2.57334e-05
2.54562e-05
2.51417e-05
2.47791e-05
2.43573e-05
2.38648e-05
2.32881e-05
2.26924e-05
2.19491e-05
)
;
    }
}


// ************************************************************************* //
