/*--------------------------------*- C++ -*----------------------------------*\
| =========                 |                                                 |
| \\      /  F ield         | OpenFOAM: The Open Source CFD Toolbox           |
|  \\    /   O peration     | Version:  dev                                   |
|   \\  /    A nd           | Web:      www.OpenFOAM.org                      |
|    \\/     M anipulation  |                                                 |
\*---------------------------------------------------------------------------*/
FoamFile
{
    version     2.0;
    format      ascii;
    class       volScalarField;
    location    "0.2";
    object      H2;
}
// * * * * * * * * * * * * * * * * * * * * * * * * * * * * * * * * * * * * * //

dimensions      [0 0 0 0 0 0 0];

internalField   nonuniform List<scalar> 
50
(
0.0096575
0.00964293
0.009628
0.00961272
0.00959728
0.00958139
0.009565
0.00954822
0.00953105
0.00951349
0.00949575
0.0094774
0.00945885
0.00943978
0.00942035
0.00940047
0.00938011
0.00935926
0.00933776
0.00931591
0.00929356
0.0092707
0.00924731
0.00922327
0.00919877
0.00917345
0.00914778
0.00912151
0.00909461
0.00906704
0.0090387
0.0090097
0.00897993
0.00894892
0.00891702
0.00888426
0.00885063
0.00881613
0.00878125
0.0087454
0.00870841
0.00866977
0.00862997
0.00858899
0.00854682
0.00850343
0.00845952
0.00841386
0.00836729
0.00831899
)
;

boundaryField
{
    wall
    {
        type            zeroGradient;
    }
    fuel
    {
        type            fixedValue;
        value           nonuniform 0();
    }
    outlet
    {
        type            inletOutlet;
        inletValue      nonuniform 0();
        value           nonuniform 0();
    }
    procBoundary2to1
    {
        type            processor;
        value           uniform 0.00967175;
    }
    procBoundary2to3
    {
        type            processor;
        value           uniform 0.00826949;
    }
}


// ************************************************************************* //
