/*--------------------------------*- C++ -*----------------------------------*\
| =========                 |                                                 |
| \\      /  F ield         | OpenFOAM: The Open Source CFD Toolbox           |
|  \\    /   O peration     | Version:  dev                                   |
|   \\  /    A nd           | Web:      www.OpenFOAM.org                      |
|    \\/     M anipulation  |                                                 |
\*---------------------------------------------------------------------------*/
FoamFile
{
    version     2.0;
    format      ascii;
    class       volScalarField;
    location    "0.2";
    object      HCCO;
}
// * * * * * * * * * * * * * * * * * * * * * * * * * * * * * * * * * * * * * //

dimensions      [0 0 0 0 0 0 0];

internalField   nonuniform List<scalar> 
50
(
4.1358e-14
3.86156e-14
3.61674e-14
3.39762e-14
3.20344e-14
3.02823e-14
2.86942e-14
2.72651e-14
2.59796e-14
2.48246e-14
2.38009e-14
2.28743e-14
2.20568e-14
2.13271e-14
2.06864e-14
2.01256e-14
1.96404e-14
1.92272e-14
1.88809e-14
1.86033e-14
1.83903e-14
1.82399e-14
1.81507e-14
1.81213e-14
1.81507e-14
1.82389e-14
1.8383e-14
1.85835e-14
1.88397e-14
1.91515e-14
1.95193e-14
1.99406e-14
2.04166e-14
2.09539e-14
2.15462e-14
2.21913e-14
2.28881e-14
2.36358e-14
2.44214e-14
2.52567e-14
2.61434e-14
2.70925e-14
2.80889e-14
2.91303e-14
3.0215e-14
3.13413e-14
3.24901e-14
3.36927e-14
3.49241e-14
3.61985e-14
)
;

boundaryField
{
    wall
    {
        type            zeroGradient;
    }
    fuel
    {
        type            fixedValue;
        value           nonuniform 0();
    }
    outlet
    {
        type            inletOutlet;
        inletValue      nonuniform 0();
        value           nonuniform 0();
    }
    procBoundary2to1
    {
        type            processor;
        value           uniform 4.44441e-14;
    }
    procBoundary2to3
    {
        type            processor;
        value           uniform 3.7486e-14;
    }
}


// ************************************************************************* //
