/*--------------------------------*- C++ -*----------------------------------*\
| =========                 |                                                 |
| \\      /  F ield         | OpenFOAM: The Open Source CFD Toolbox           |
|  \\    /   O peration     | Version:  dev                                   |
|   \\  /    A nd           | Web:      www.OpenFOAM.org                      |
|    \\/     M anipulation  |                                                 |
\*---------------------------------------------------------------------------*/
FoamFile
{
    version     2.0;
    format      ascii;
    class       volVectorField;
    location    "0.2";
    object      U;
}
// * * * * * * * * * * * * * * * * * * * * * * * * * * * * * * * * * * * * * //

dimensions      [0 1 -1 0 0 0 0];

internalField   nonuniform List<vector> 
250
(
(0 0.0747801 0.121245)
(0 0.128732 0.504061)
(0 0.0977052 0.522559)
(0 0.0825954 0.524622)
(0 0.0737193 0.524505)
(0 0.060315 0.524603)
(0 0.0498043 0.524721)
(0 0.039433 0.524587)
(0 0.0282969 0.524781)
(0 0.0866456 0.152249)
(0 0.177931 0.715354)
(0 0.150714 0.744174)
(0 0.13135 0.74789)
(0 0.116789 0.747387)
(0 0.09632 0.747569)
(0 0.0791113 0.747872)
(0 0.0630156 0.747499)
(0 0.0450854 0.747837)
(0 0.0644328 0.173363)
(0 0.217488 0.750705)
(0 0.197294 0.787381)
(0 0.17808 0.792796)
(0 0.156898 0.791417)
(0 0.130375 0.791708)
(0 0.106306 0.792179)
(0 0.0847419 0.791051)
(0 0.0598639 0.791415)
(0 0.037259 0.19463)
(0 0.258617 0.744228)
(0 0.241882 0.779062)
(0 0.225231 0.785759)
(0 0.19646 0.78317)
(0 0.164216 0.783552)
(0 0.13235 0.784358)
(0 0.103455 0.783366)
(0 0.0716366 0.784086)
(0 0.0193755 0.219741)
(0 0.301109 0.74785)
(0 0.284429 0.773606)
(0 0.27153 0.781338)
(0 0.234693 0.777171)
(0 0.197 0.77766)
(0 0.157802 0.778634)
(0 0.122782 0.777417)
(0 0.0837788 0.778416)
(0 0.0142147 0.248803)
(0 0.34407 0.759793)
(0 0.325226 0.772069)
(0 0.316335 0.780737)
(0 0.271341 0.774586)
(0 0.22837 0.77523)
(0 0.181942 0.776357)
(0 0.140672 0.774991)
(0 0.0948556 0.776263)
(0 0.02605 0.284669)
(0 0.386678 0.773612)
(0 0.364853 0.770339)
(0 0.359499 0.779936)
(0 0.306515 0.77141)
(0 0.25831 0.772265)
(0 0.204988 0.773467)
(0 0.157323 0.771918)
(0 0.105067 0.773407)
(0 0.0568537 0.328569)
(0 0.42965 0.786335)
(0 0.403824 0.767394)
(0 0.401043 0.777965)
(0 0.340413 0.766726)
(0 0.286894 0.767838)
(0 0.227131 0.769024)
(0 0.1729 0.767325)
(0 0.114611 0.769002)
(0 0.10034 0.373694)
(0 0.472959 0.797192)
(0 0.44257 0.763539)
(0 0.441064 0.775165)
(0 0.373252 0.760821)
(0 0.314229 0.762259)
(0 0.248543 0.763403)
(0 0.187538 0.761544)
(0 0.123652 0.763397)
(0 0.153006 0.416431)
(0 0.516497 0.806218)
(0 0.481441 0.759021)
(0 0.479707 0.771777)
(0 0.405245 0.754022)
(0 0.340427 0.755866)
(0 0.269373 0.756955)
(0 0.201371 0.754912)
(0 0.132318 0.756935)
(0 0.216145 0.457265)
(0 0.560483 0.813471)
(0 0.520744 0.753877)
(0 0.517137 0.767856)
(0 0.436592 0.746534)
(0 0.365622 0.748843)
(0 0.289759 0.749798)
(0 0.214528 0.747599)
(0 0.14072 0.749786)
(0 0.0620405 0.749153)
(0 0.28743 0.494947)
(0 0.60511 0.818878)
(0 0.560713 0.748095)
(0 0.553513 0.763382)
(0 0.467467 0.738347)
(0 0.389951 0.741182)
(0 0.309806 0.741957)
(0 0.227129 0.739601)
(0 0.148942 0.741953)
(0 0.0628755 0.741347)
(0 0.365045 0.528562)
(0 0.65049 0.82239)
(0 0.601524 0.741632)
(0 0.588967 0.758304)
(0 0.498009 0.729461)
(0 0.413541 0.73288)
(0 0.329591 0.733447)
(0 0.239287 0.730919)
(0 0.157042 0.733443)
(0 0.0635198 0.732843)
(0 0.447394 0.557561)
(0 0.696678 0.824035)
(0 0.643307 0.734437)
(0 0.623583 0.752591)
(0 0.52832 0.719894)
(0 0.436512 0.723948)
(0 0.349167 0.724265)
(0 0.251102 0.721567)
(0 0.165069 0.724276)
(0 0.0640491 0.723635)
(0 0.53308 0.581871)
(0 0.743682 0.823876)
(0 0.686114 0.726487)
(0 0.657424 0.746193)
(0 0.55846 0.709668)
(0 0.458974 0.714396)
(0 0.368557 0.714447)
(0 0.262658 0.711559)
(0 0.17305 0.714471)
(0 0.0645297 0.713779)
(0 0.620869 0.601808)
(0 0.791484 0.821953)
(0 0.729906 0.717768)
(0 0.690567 0.73904)
(0 0.588458 0.6988)
(0 0.481022 0.704227)
(0 0.387771 0.704017)
(0 0.274031 0.700907)
(0 0.181001 0.704041)
(0 0.0650182 0.703266)
(0 0.709669 0.617207)
(0 0.840016 0.818269)
(0 0.77458 0.708234)
(0 0.723063 0.731096)
(0 0.618312 0.687308)
(0 0.50274 0.693439)
(0 0.4068 0.692984)
(0 0.285281 0.689619)
(0 0.188929 0.692994)
(0 0.0655623 0.692102)
(0 0.798558 0.628287)
(0 0.889212 0.812913)
(0 0.819956 0.697832)
(0 0.754954 0.722316)
(0 0.647997 0.675203)
(0 0.524197 0.682027)
(0 0.425627 0.681349)
(0 0.296458 0.677704)
(0 0.196835 0.681334)
(0 0.0662001 0.680294)
(0 0.88675 0.635803)
(0 0.938988 0.806005)
(0 0.865815 0.686529)
(0 0.786281 0.712663)
(0 0.677465 0.662496)
(0 0.545446 0.669981)
(0 0.444225 0.669113)
(0 0.307595 0.665169)
(0 0.204713 0.66906)
(0 0.0669604 0.667843)
(0 0.973584 0.640008)
(0 0.989234 0.797624)
(0 0.911915 0.6743)
(0 0.817082 0.702127)
(0 0.706654 0.649193)
(0 0.566522 0.657291)
(0 0.462564 0.656273)
(0 0.31871 0.651999)
(0 0.212552 0.656169)
(0 0.0678622 0.654749)
(0 1.05853 0.641123)
(0 1.0398 0.78786)
(0 0.957986 0.661116)
(0 0.847387 0.690702)
(0 0.735492 0.635301)
(0 0.587441 0.643947)
(0 0.480608 0.642825)
(0 0.32981 0.6382)
(0 0.220339 0.642657)
(0 0.0689148 0.641011)
(0 1.14118 0.639459)
(0 1.0905 0.776464)
(0 1.00374 0.646947)
(0 0.877212 0.678325)
(0 0.763897 0.620841)
(0 0.608198 0.629951)
(0 0.498319 0.628773)
(0 0.340887 0.623807)
(0 0.228056 0.628531)
(0 0.0701184 0.626643)
(0 1.22126 0.635346)
(0 1.1411 0.763681)
(0 1.04886 0.631774)
(0 0.906564 0.664969)
(0 0.791778 0.605848)
(0 0.628773 0.615315)
(0 0.515656 0.61413)
(0 0.351915 0.608805)
(0 0.235685 0.613807)
(0 0.0714637 0.611659)
(0 1.29861 0.629098)
(0 1.19125 0.749849)
(0 1.09306 0.61559)
(0 0.935422 0.650641)
(0 0.819033 0.590314)
(0 0.649115 0.600012)
(0 0.532572 0.59887)
(0 0.362858 0.593169)
(0 0.243197 0.598465)
(0 0.0729383 0.596039)
(0 1.37322 0.620948)
(0 1.24047 0.73472)
(0 1.13607 0.59841)
(0 0.963756 0.635338)
(0 0.845562 0.574184)
(0 0.669171 0.584024)
(0 0.549023 0.582958)
(0 0.373672 0.576865)
(0 0.250571 0.582466)
(0 0.0745137 0.579765)
(0 1.44533 0.610913)
(0 1.28807 0.718261)
(0 1.17761 0.580287)
(0 0.991515 0.619088)
(0 0.871263 0.557501)
(0 0.688856 0.567396)
(0 0.564961 0.566441)
(0 0.384299 0.55999)
(0 0.257771 0.565852)
(0 0.0761637 0.562909)
)
;

boundaryField
{
    fuel
    {
        type            fixedValue;
        value           uniform (0 0 0.1055);
    }
    wall
    {
        type            slip;
    }
    outlet
    {
        type            pressureInletOutletVelocity;
        value           nonuniform List<vector> 
26
(
(0 0.0747801 0.121245)
(0 0.0866456 0.152249)
(0 0.0644328 0.173363)
(0 0.037259 0.19463)
(0 0.0193755 0.219741)
(0 0.0142147 0.248803)
(0 0.02605 0.284669)
(0 0.0568537 0.328569)
(0 0.10034 0.373694)
(0 0.153006 0.416431)
(0 0.216145 0.457265)
(0 0.28743 0.494947)
(0 0.365045 0.528562)
(0 0.447394 0.557561)
(0 0.53308 0.581871)
(0 0.620869 0.601808)
(0 0.709669 0.617207)
(0 0.798558 0.628287)
(0 0.88675 0.635803)
(0 0.973584 0.640008)
(0 1.05853 0.641123)
(0 1.14118 0.639459)
(0 1.22126 0.635346)
(0 1.29861 0.629098)
(0 1.37322 0.620948)
(0 1.44533 0.610913)
)
;
    }
    frontAndBack
    {
        type            empty;
    }
    procBoundary2to0
    {
        type            processor;
        value           nonuniform List<vector> 
12
(
(0 -0.0465431 0.577465)
(0 1.51508 0.598997)
(0 1.33342 0.700493)
(0 1.21742 0.561217)
(0 1.01863 0.601855)
(0 0.896027 0.540206)
(0 0.70808 0.550064)
(0 0.580326 0.549252)
(0 0.394675 0.542465)
(0 0.264769 0.548581)
(0 -0.0483654 0.560598)
(0 0.0778528 0.545392)
)
;
    }
    procBoundary2to3
    {
        type            processor;
        value           nonuniform List<vector> 
25
(
(0 0.0169972 0.524608)
(0 0.0272997 0.747532)
(0 0.0356833 0.790908)
(0 0.041702 0.783478)
(0 0.0471765 0.777753)
(0 0.0515001 0.77557)
(0 0.0548682 0.772713)
(0 0.0574641 0.768313)
(0 0.0594407 0.762727)
(0 0.0609284 0.756296)
(0 0.0609284 0.756296)
(0 -0.00189425 0.748109)
(0 -0.00583842 0.74009)
(0 -0.00978268 0.731383)
(0 -0.0136847 0.722005)
(0 -0.0175048 0.711976)
(0 -0.0212114 0.701312)
(0 -0.0247781 0.690022)
(0 -0.0281831 0.678112)
(0 -0.0314086 0.665584)
(0 -0.0344415 0.652436)
(0 -0.0372728 0.638669)
(0 -0.039898 0.624307)
(0 -0.0423168 0.609304)
(0 -0.0445287 0.593696)
)
;
    }
}


// ************************************************************************* //
