# Probe 0 (0.08 0.09 0)
#       Probe             0
#        Time
     0.204255       7.95416
     0.208511       7.95192
     0.212766       7.94985
     0.217021       7.94792
     0.221277       7.94609
     0.225532       7.94433
     0.229787        7.9426
     0.234043        7.9409
     0.238298       7.93919
     0.242553       7.93748
     0.246809       7.93573
     0.251064       7.93396
     0.255319       7.93213
     0.259574       7.93025
      0.26383        7.9283
     0.268085       7.92629
      0.27234        7.9242
     0.276596       7.92204
     0.280851        7.9198
     0.285106       7.91748
     0.289362       7.91508
     0.293617        7.9126
     0.297872       7.91005
     0.302128       7.90743
     0.306383       7.90473
     0.310638       7.90197
     0.314894       7.89914
     0.319149       7.89626
     0.323404       7.89332
      0.32766       7.89033
     0.331915        7.8873
      0.33617       7.88423
     0.340426       7.88113
     0.344681       7.87799
     0.348936       7.87483
     0.353191       7.87166
