# Probe 0 (0.08 0.09 0)
#       Probe             0
#        Time
     0.204255     0.0342816
     0.208511     0.0343361
     0.212766     0.0343843
     0.217021      0.034427
     0.221277     0.0344658
     0.225532     0.0345022
     0.229787     0.0345368
     0.234043     0.0345701
     0.238298      0.034602
     0.242553     0.0346329
     0.246809     0.0346628
     0.251064     0.0346918
     0.255319     0.0347201
     0.259574     0.0347478
      0.26383     0.0347751
     0.268085      0.034802
      0.27234     0.0348287
     0.276596     0.0348552
     0.280851     0.0348817
     0.285106     0.0349082
     0.289362     0.0349348
     0.293617     0.0349616
     0.297872     0.0349884
     0.302128     0.0350155
     0.306383     0.0350428
     0.310638     0.0350704
     0.314894     0.0350981
     0.319149     0.0351261
     0.323404     0.0351542
      0.32766     0.0351826
     0.331915      0.035211
      0.33617     0.0352396
     0.340426     0.0352682
     0.344681     0.0352968
     0.348936     0.0353254
     0.353191      0.035354
