# Probe 0 (0.08 0.09 0)
#       Probe             0
#        Time
     0.204255   1.99999e-06
     0.208511   1.99988e-06
     0.212766   1.99976e-06
     0.217021   1.99964e-06
     0.221277   1.99952e-06
     0.225532    1.9994e-06
     0.229787   1.99928e-06
     0.234043   1.99916e-06
     0.238298   1.99904e-06
     0.242553   1.99893e-06
     0.246809   1.99881e-06
     0.251064    1.9987e-06
     0.255319   1.99859e-06
     0.259574   1.99848e-06
      0.26383   1.99838e-06
     0.268085   1.99827e-06
      0.27234   1.99817e-06
     0.276596   1.99807e-06
     0.280851   1.99797e-06
     0.285106   1.99787e-06
     0.289362   1.99778e-06
     0.293617   1.99768e-06
     0.297872   1.99759e-06
     0.302128    1.9975e-06
     0.306383   1.99741e-06
     0.310638   1.99733e-06
     0.314894   1.99724e-06
     0.319149   1.99716e-06
     0.323404   1.99708e-06
      0.32766     1.997e-06
     0.331915   1.99692e-06
      0.33617   1.99684e-06
     0.340426   1.99677e-06
     0.344681   1.99669e-06
     0.348936   1.99662e-06
     0.353191   1.99655e-06
