/*--------------------------------*- C++ -*----------------------------------*\
| =========                 |                                                 |
| \\      /  F ield         | OpenFOAM: The Open Source CFD Toolbox           |
|  \\    /   O peration     | Version:  dev                                   |
|   \\  /    A nd           | Web:      www.OpenFOAM.org                      |
|    \\/     M anipulation  |                                                 |
\*---------------------------------------------------------------------------*/
FoamFile
{
    version     2.0;
    format      ascii;
    class       volScalarField;
    location    "0.005";
    object      A1C2H3*;
}
// * * * * * * * * * * * * * * * * * * * * * * * * * * * * * * * * * * * * * //

dimensions      [0 0 0 0 0 0 0];

internalField   nonuniform List<scalar> 
100
(
6.11857e-15
1.90456e-14
2.5106e-14
2.4854e-14
2.03598e-14
1.4477e-14
9.3086e-15
5.6727e-15
3.35945e-15
1.97137e-15
1.1701e-15
7.24655e-16
4.46672e-16
2.84692e-16
1.93106e-16
1.43091e-16
1.17789e-16
1.07801e-16
1.08032e-16
1.15771e-16
1.29586e-16
1.48704e-16
1.72667e-16
2.01187e-16
2.34074e-16
2.71234e-16
3.1268e-16
3.58572e-16
4.09265e-16
4.65319e-16
5.27519e-16
5.96879e-16
6.7465e-16
7.62321e-16
8.61642e-16
9.74805e-16
1.10378e-15
1.25145e-15
1.42082e-15
1.61548e-15
1.84123e-15
2.0985e-15
2.39292e-15
2.72928e-15
3.10455e-15
3.51926e-15
3.97062e-15
4.44599e-15
4.93997e-15
5.42731e-15
5.89399e-15
6.31914e-15
6.68079e-15
6.96169e-15
7.14358e-15
7.21402e-15
7.17039e-15
7.01702e-15
6.7582e-15
6.4166e-15
6.00377e-15
5.53754e-15
5.03613e-15
4.51749e-15
3.99739e-15
3.49013e-15
3.00406e-15
2.55566e-15
2.14795e-15
1.77853e-15
1.45992e-15
1.18541e-15
9.52884e-16
7.58999e-16
5.99653e-16
4.70435e-16
3.66905e-16
2.84936e-16
2.20648e-16
1.69698e-16
1.32588e-16
1.04461e-16
8.33876e-17
6.74132e-17
5.58303e-17
4.71803e-17
4.06495e-17
3.56193e-17
3.16194e-17
2.82941e-17
2.53505e-17
2.26415e-17
2.00568e-17
1.74686e-17
1.50682e-17
1.24817e-17
9.88452e-18
7.01925e-18
4.25064e-18
1.98895e-18
)
;

boundaryField
{
    wall
    {
        type            zeroGradient;
    }
    fuel
    {
        type            fixedValue;
        value           uniform 0;
    }
    outlet
    {
        type            inletOutlet;
        inletValue      uniform 0;
        value           uniform 1.98895e-18;
    }
}


// ************************************************************************* //
