/*--------------------------------*- C++ -*----------------------------------*\
| =========                 |                                                 |
| \\      /  F ield         | OpenFOAM: The Open Source CFD Toolbox           |
|  \\    /   O peration     | Version:  dev                                   |
|   \\  /    A nd           | Web:      www.OpenFOAM.org                      |
|    \\/     M anipulation  |                                                 |
\*---------------------------------------------------------------------------*/
FoamFile
{
    version     2.0;
    format      ascii;
    class       volScalarField;
    location    "0.005";
    object      C4H;
}
// * * * * * * * * * * * * * * * * * * * * * * * * * * * * * * * * * * * * * //

dimensions      [0 0 0 0 0 0 0];

internalField   nonuniform List<scalar> 
100
(
2.14086e-08
5.49107e-08
6.59338e-08
6.26211e-08
5.19693e-08
3.92486e-08
2.75988e-08
1.8566e-08
1.21179e-08
7.76601e-09
4.939e-09
3.13882e-09
2.0051e-09
1.29937e-09
8.57868e-10
5.7945e-10
4.01353e-10
2.85119e-10
2.07352e-10
1.53855e-10
1.15997e-10
8.84865e-11
6.80496e-11
5.25954e-11
4.0758e-11
3.16088e-11
2.44946e-11
1.89535e-11
1.46329e-11
1.12645e-11
8.64119e-12
6.60195e-12
5.02067e-12
3.79841e-12
2.85735e-12
2.13509e-12
1.58559e-12
1.16902e-12
8.54669e-13
6.20058e-13
4.44906e-13
3.17241e-13
2.24215e-13
1.56663e-13
1.08635e-13
7.46199e-14
5.06759e-14
3.41413e-14
2.26917e-14
1.49848e-14
9.79819e-15
6.32945e-15
4.04951e-15
2.55616e-15
1.59205e-15
9.8091e-16
6.03866e-16
3.68291e-16
2.21156e-16
1.33118e-16
7.96562e-17
4.74224e-17
2.81071e-17
1.65186e-17
9.6617e-18
5.62393e-18
3.24251e-18
1.86474e-18
1.0664e-18
6.00256e-19
3.37486e-19
1.87922e-19
1.03513e-19
5.63402e-20
3.02753e-20
1.60558e-20
8.34474e-21
4.27093e-21
2.14843e-21
1.04358e-21
5.1486e-22
2.52432e-22
1.24065e-22
6.08084e-23
3.07962e-23
1.60269e-23
8.60618e-24
4.76262e-24
2.6811e-24
1.52459e-24
8.58721e-25
4.77246e-25
2.5805e-25
1.32769e-25
6.85575e-26
3.2161e-26
1.4202e-26
5.19536e-27
1.62677e-27
4.82742e-28
)
;

boundaryField
{
    wall
    {
        type            zeroGradient;
    }
    fuel
    {
        type            fixedValue;
        value           uniform 0;
    }
    outlet
    {
        type            inletOutlet;
        inletValue      uniform 0;
        value           uniform 4.82742e-28;
    }
}


// ************************************************************************* //
