/*--------------------------------*- C++ -*----------------------------------*\
| =========                 |                                                 |
| \\      /  F ield         | OpenFOAM: The Open Source CFD Toolbox           |
|  \\    /   O peration     | Version:  dev                                   |
|   \\  /    A nd           | Web:      www.OpenFOAM.org                      |
|    \\/     M anipulation  |                                                 |
\*---------------------------------------------------------------------------*/
FoamFile
{
    version     2.0;
    format      ascii;
    class       volScalarField;
    location    "0.005";
    object      C4H2;
}
// * * * * * * * * * * * * * * * * * * * * * * * * * * * * * * * * * * * * * //

dimensions      [0 0 0 0 0 0 0];

internalField   nonuniform List<scalar> 
100
(
6.77814e-06
1.91655e-05
2.54224e-05
2.63708e-05
2.39799e-05
2.00221e-05
1.57412e-05
1.19435e-05
8.8798e-06
6.55519e-06
4.85972e-06
3.64731e-06
2.78916e-06
2.18909e-06
1.76776e-06
1.47002e-06
1.257e-06
1.10168e-06
9.85471e-07
8.95685e-07
8.23737e-07
7.63879e-07
7.1235e-07
6.66669e-07
6.25241e-07
5.87001e-07
5.51284e-07
5.1762e-07
4.85658e-07
4.55129e-07
4.25814e-07
3.9754e-07
3.70176e-07
3.43637e-07
3.17877e-07
2.92855e-07
2.68687e-07
2.45329e-07
2.22849e-07
2.014e-07
1.80884e-07
1.61704e-07
1.4375e-07
1.26967e-07
1.11587e-07
9.75223e-08
8.47095e-08
7.32398e-08
6.29137e-08
5.38639e-08
4.58986e-08
3.8927e-08
3.29044e-08
2.76953e-08
2.32316e-08
1.94586e-08
1.63474e-08
1.37373e-08
1.15351e-08
9.75171e-09
8.2805e-09
7.071e-09
6.07589e-09
5.25476e-09
4.58223e-09
4.031e-09
3.57496e-09
3.20254e-09
2.89516e-09
2.636e-09
2.42266e-09
2.24242e-09
2.08846e-09
1.95519e-09
1.83815e-09
1.73315e-09
1.63691e-09
1.5478e-09
1.46382e-09
1.38161e-09
1.30606e-09
1.23255e-09
1.1609e-09
1.08937e-09
1.02066e-09
9.52873e-10
8.86139e-10
8.2013e-10
7.5454e-10
6.89434e-10
6.23612e-10
5.57787e-10
4.92387e-10
4.26084e-10
3.64942e-10
3.00053e-10
2.36058e-10
1.66631e-10
1.00465e-10
4.68916e-11
)
;

boundaryField
{
    wall
    {
        type            zeroGradient;
    }
    fuel
    {
        type            fixedValue;
        value           uniform 0;
    }
    outlet
    {
        type            inletOutlet;
        inletValue      uniform 0;
        value           uniform 4.68916e-11;
    }
}


// ************************************************************************* //
