/*--------------------------------*- C++ -*----------------------------------*\
| =========                 |                                                 |
| \\      /  F ield         | OpenFOAM: The Open Source CFD Toolbox           |
|  \\    /   O peration     | Version:  dev                                   |
|   \\  /    A nd           | Web:      www.OpenFOAM.org                      |
|    \\/     M anipulation  |                                                 |
\*---------------------------------------------------------------------------*/
FoamFile
{
    version     2.0;
    format      ascii;
    class       volScalarField;
    location    "0.005";
    object      i-C4H3;
}
// * * * * * * * * * * * * * * * * * * * * * * * * * * * * * * * * * * * * * //

dimensions      [0 0 0 0 0 0 0];

internalField   nonuniform List<scalar> 
100
(
1.63001e-08
4.51409e-08
6.22056e-08
6.81778e-08
6.49408e-08
5.58746e-08
4.45605e-08
3.397e-08
2.52415e-08
1.85728e-08
1.37133e-08
1.02651e-08
7.85375e-09
6.19457e-09
5.05453e-09
4.27274e-09
3.73668e-09
3.36877e-09
3.11582e-09
2.94151e-09
2.82106e-09
2.73766e-09
2.68009e-09
2.64084e-09
2.61498e-09
2.59939e-09
2.59191e-09
2.59107e-09
2.59577e-09
2.60503e-09
2.61786e-09
2.63325e-09
2.65011e-09
2.66732e-09
2.68372e-09
2.69816e-09
2.70958e-09
2.71674e-09
2.71868e-09
2.71462e-09
2.70345e-09
2.685e-09
2.65819e-09
2.62183e-09
2.57601e-09
2.51976e-09
2.45218e-09
2.37379e-09
2.28301e-09
2.18198e-09
2.06977e-09
1.94703e-09
1.81564e-09
1.67637e-09
1.53203e-09
1.38662e-09
1.24601e-09
1.10963e-09
9.7848e-10
8.59186e-10
7.50066e-10
6.51728e-10
5.64125e-10
4.86976e-10
4.19755e-10
3.61669e-10
3.11417e-10
2.68826e-10
2.32611e-10
2.01386e-10
1.75303e-10
1.53144e-10
1.34302e-10
1.18252e-10
1.04544e-10
9.27796e-11
8.26407e-11
7.38743e-11
6.62551e-11
5.94528e-11
5.37867e-11
4.8804e-11
4.44103e-11
4.04317e-11
3.69436e-11
3.37735e-11
3.08628e-11
2.81602e-11
2.56199e-11
2.31964e-11
2.0827e-11
1.85184e-11
1.62691e-11
1.4024e-11
1.1978e-11
9.82649e-12
7.71888e-12
5.44279e-12
3.27967e-12
1.53047e-12
)
;

boundaryField
{
    wall
    {
        type            zeroGradient;
    }
    fuel
    {
        type            fixedValue;
        value           uniform 0;
    }
    outlet
    {
        type            inletOutlet;
        inletValue      uniform 0;
        value           uniform 1.53047e-12;
    }
}


// ************************************************************************* //
