/*--------------------------------*- C++ -*----------------------------------*\
| =========                 |                                                 |
| \\      /  F ield         | OpenFOAM: The Open Source CFD Toolbox           |
|  \\    /   O peration     | Version:  dev                                   |
|   \\  /    A nd           | Web:      www.OpenFOAM.org                      |
|    \\/     M anipulation  |                                                 |
\*---------------------------------------------------------------------------*/
FoamFile
{
    version     2.0;
    format      ascii;
    class       volScalarField;
    location    "0.115";
    object      A1;
}
// * * * * * * * * * * * * * * * * * * * * * * * * * * * * * * * * * * * * * //

dimensions      [0 0 0 0 0 0 0];

internalField   nonuniform List<scalar> 
250
(
8.5955e-06
8.59732e-06
8.59727e-06
8.59406e-06
8.58677e-06
8.73047e-06
9.16231e-06
1.1882e-05
2.69985e-05
0.000145964
8.64306e-06
8.63507e-06
8.64422e-06
8.62061e-06
8.63846e-06
8.72718e-06
9.19318e-06
1.16591e-05
2.58332e-05
0.000144771
5.26089e-05
2.31281e-05
1.13628e-05
9.25257e-06
8.83604e-06
8.75555e-06
8.75165e-06
8.77396e-06
8.77398e-06
8.78836e-06
8.77949e-06
8.76037e-06
8.78097e-06
8.73475e-06
8.77997e-06
8.80903e-06
9.31396e-06
1.15286e-05
2.46482e-05
0.000139563
4.6391e-05
2.13912e-05
1.13544e-05
9.43341e-06
9.05524e-06
8.9794e-06
8.97533e-06
9.00062e-06
8.99749e-06
9.01514e-06
9.01143e-06
8.98009e-06
9.01415e-06
8.94325e-06
9.01792e-06
8.98279e-06
9.53119e-06
1.14885e-05
2.34549e-05
0.000131222
4.10375e-05
1.99852e-05
1.14599e-05
9.71565e-06
9.37519e-06
9.30444e-06
9.30028e-06
9.32909e-06
9.32215e-06
9.34328e-06
9.34493e-06
9.30059e-06
9.34965e-06
9.25251e-06
9.35817e-06
9.25503e-06
9.8504e-06
1.15475e-05
2.24072e-05
0.000120162
3.65338e-05
1.90182e-05
1.16838e-05
1.01041e-05
9.80028e-06
9.73483e-06
9.73056e-06
9.76322e-06
9.75204e-06
9.77675e-06
9.78383e-06
9.72617e-06
9.79109e-06
9.66713e-06
9.80426e-06
9.63059e-06
1.02745e-05
1.17121e-05
2.14458e-05
0.000107186
3.28288e-05
1.83035e-05
1.2026e-05
1.05997e-05
1.03316e-05
1.02709e-05
1.02664e-05
1.03029e-05
1.02873e-05
1.03155e-05
1.03279e-05
1.02572e-05
1.03379e-05
1.0188e-05
1.03556e-05
1.01106e-05
1.08018e-05
1.19868e-05
2.07023e-05
9.42304e-05
2.98529e-05
1.78636e-05
1.24811e-05
1.11984e-05
1.09669e-05
1.09071e-05
1.09022e-05
1.0942e-05
1.09221e-05
1.09536e-05
1.0971e-05
1.08884e-05
1.09836e-05
1.08106e-05
1.10054e-05
1.07616e-05
1.14461e-05
1.23711e-05
2.01223e-05
8.18185e-05
2.75225e-05
1.76459e-05
1.30363e-05
1.18889e-05
1.17043e-05
1.16562e-05
1.16517e-05
1.16985e-05
1.16759e-05
1.17126e-05
1.17305e-05
1.16384e-05
1.17448e-05
1.15514e-05
1.17669e-05
1.14521e-05
1.21572e-05
1.2858e-05
1.97145e-05
7.02389e-05
2.5748e-05
1.76165e-05
1.36931e-05
1.26523e-05
1.24998e-05
1.24519e-05
1.24468e-05
1.24957e-05
1.247e-05
1.25091e-05
1.25297e-05
1.24309e-05
1.25453e-05
1.23401e-05
1.2569e-05
1.22213e-05
1.29326e-05
1.34334e-05
1.94455e-05
6.10907e-05
2.4438e-05
1.7737e-05
1.43903e-05
1.34634e-05
1.33347e-05
1.32896e-05
1.32838e-05
1.33336e-05
1.33058e-05
1.33465e-05
1.33684e-05
1.32662e-05
1.33845e-05
1.31749e-05
1.34087e-05
1.30452e-05
1.37455e-05
1.41434e-05
1.93282e-05
5.31879e-05
2.35043e-05
1.79685e-05
1.51174e-05
1.42935e-05
1.4183e-05
1.41409e-05
1.41345e-05
1.41837e-05
1.41549e-05
1.41962e-05
1.42184e-05
1.4116e-05
1.4234e-05
1.40273e-05
1.42578e-05
1.38951e-05
1.4567e-05
1.48424e-05
1.93142e-05
4.65205e-05
2.28648e-05
1.82732e-05
1.58459e-05
1.51148e-05
1.5018e-05
1.49788e-05
1.49717e-05
1.50194e-05
1.49906e-05
1.50316e-05
1.50528e-05
1.49533e-05
1.50672e-05
1.48698e-05
1.50897e-05
1.47427e-05
1.53709e-05
1.55574e-05
1.93762e-05
4.09936e-05
1.58507e-05
1.57561e-05
1.58631e-05
1.56798e-05
1.58836e-05
1.55632e-05
1.61369e-05
1.62629e-05
1.94907e-05
3.64756e-05
)
;

boundaryField
{
    fuel
    {
        type            fixedValue;
        value           nonuniform 0();
    }
    wall
    {
        type            zeroGradient;
    }
    outlet
    {
        type            zeroGradient;
    }
    frontAndBack
    {
        type            empty;
    }
    procBoundary0to1
    {
        type            processor;
        value           nonuniform List<scalar> 
21
(
2.24476e-05
1.86183e-05
1.65517e-05
1.59041e-05
1.58179e-05
1.57815e-05
1.57738e-05
1.58192e-05
1.5791e-05
1.58312e-05
1.58312e-05
1.65987e-05
1.65101e-05
1.66087e-05
1.64419e-05
1.66268e-05
1.63394e-05
1.68528e-05
1.69393e-05
1.96402e-05
3.28305e-05
)
;
    }
    procBoundary0to2
    {
        type            processor;
        value           nonuniform List<scalar> 
12
(
8.61392e-06
5.99738e-05
2.51074e-05
1.14786e-05
9.16641e-06
8.7115e-06
8.62668e-06
8.62311e-06
8.64322e-06
8.6454e-06
8.65685e-06
8.65685e-06
)
;
    }
    procBoundary0to3
    {
        type            processor;
        value           nonuniform List<scalar> 10(8.63067e-06 8.64082e-06 8.63395e-06 8.64899e-06 8.61866e-06 8.81284e-06 9.21493e-06 1.21679e-05 2.83031e-05 0.000142486);
    }
}


// ************************************************************************* //
