/*--------------------------------*- C++ -*----------------------------------*\
| =========                 |                                                 |
| \\      /  F ield         | OpenFOAM: The Open Source CFD Toolbox           |
|  \\    /   O peration     | Version:  dev                                   |
|   \\  /    A nd           | Web:      www.OpenFOAM.org                      |
|    \\/     M anipulation  |                                                 |
\*---------------------------------------------------------------------------*/
FoamFile
{
    version     2.0;
    format      ascii;
    class       volScalarField;
    location    "0.115";
    object      A2C2HB*;
}
// * * * * * * * * * * * * * * * * * * * * * * * * * * * * * * * * * * * * * //

dimensions      [0 0 0 0 0 0 0];

internalField   nonuniform List<scalar> 
250
(
2.24857e-12
2.24917e-12
2.25166e-12
2.25788e-12
2.26422e-12
2.30118e-12
2.5796e-12
3.71436e-12
1.09155e-11
8.61737e-12
2.03509e-12
2.03688e-12
2.03719e-12
2.04374e-12
2.05038e-12
2.08446e-12
2.32691e-12
3.25663e-12
9.0054e-12
7.99175e-12
2.87897e-11
7.6207e-12
3.00238e-12
2.09973e-12
1.96118e-12
1.84492e-12
1.88405e-12
1.83673e-12
1.86006e-12
1.83571e-12
1.84903e-12
1.85133e-12
1.85055e-12
1.85702e-12
1.86363e-12
1.89465e-12
2.10534e-12
2.86259e-12
7.43829e-12
7.30392e-12
2.73284e-11
6.85684e-12
2.70274e-12
1.907e-12
1.78581e-12
1.68437e-12
1.71773e-12
1.67647e-12
1.69738e-12
1.67612e-12
1.68762e-12
1.69003e-12
1.68879e-12
1.69489e-12
1.70125e-12
1.7291e-12
1.91151e-12
2.52474e-12
6.04944e-12
6.56887e-12
2.52367e-11
6.19078e-12
2.43168e-12
1.73882e-12
1.63353e-12
1.546e-12
1.57405e-12
1.53862e-12
1.55701e-12
1.5387e-12
1.54853e-12
1.55083e-12
1.5495e-12
1.55505e-12
1.561e-12
1.58572e-12
1.74279e-12
2.23702e-12
4.86751e-12
5.8165e-12
2.26812e-11
5.45408e-12
2.18748e-12
1.59253e-12
1.50215e-12
1.42711e-12
1.45054e-12
1.42035e-12
1.43638e-12
1.42072e-12
1.42912e-12
1.43121e-12
1.42994e-12
1.43489e-12
1.44034e-12
1.46211e-12
1.5965e-12
1.99369e-12
4.02056e-12
5.08303e-12
1.97872e-11
4.77969e-12
1.96778e-12
1.4644e-12
1.3887e-12
1.3237e-12
1.34363e-12
1.31757e-12
1.33182e-12
1.31817e-12
1.32554e-12
1.3274e-12
1.32623e-12
1.33065e-12
1.33561e-12
1.35475e-12
1.46894e-12
1.7874e-12
3.31758e-12
4.39414e-12
1.66162e-11
4.13459e-12
1.76829e-12
1.34885e-12
1.2815e-12
1.22992e-12
1.24808e-12
1.22432e-12
1.23792e-12
1.22519e-12
1.23219e-12
1.23389e-12
1.23278e-12
1.23683e-12
1.24134e-12
1.25833e-12
1.35475e-12
1.60987e-12
2.77328e-12
3.76715e-12
1.37626e-11
3.51718e-12
1.58272e-12
1.23879e-12
1.1849e-12
1.1383e-12
1.15427e-12
1.13307e-12
1.14533e-12
1.13432e-12
1.13908e-12
1.1412e-12
1.13966e-12
1.14412e-12
1.14836e-12
1.16222e-12
1.24688e-12
1.44711e-12
2.3315e-12
3.20669e-12
1.09859e-11
2.94937e-12
1.40391e-12
1.12634e-12
1.08543e-12
1.04116e-12
1.05847e-12
1.03613e-12
1.04977e-12
1.03787e-12
1.04287e-12
1.04518e-12
1.04334e-12
1.04807e-12
1.05208e-12
1.06393e-12
1.13741e-12
1.28428e-12
1.96398e-12
2.70837e-12
8.40319e-12
2.42139e-12
1.22615e-12
1.00528e-12
9.76698e-13
9.32846e-13
9.52429e-13
9.2793e-13
9.43529e-13
9.30203e-13
9.35615e-13
9.38228e-13
9.35987e-13
9.41158e-13
9.44994e-13
9.5487e-13
1.01966e-12
1.13074e-12
1.6479e-12
2.26309e-12
6.30282e-12
1.93985e-12
1.0468e-12
8.73402e-13
8.55848e-13
8.11951e-13
8.33824e-13
8.0719e-13
8.24646e-13
8.09932e-13
8.15748e-13
8.18654e-13
8.1604e-13
8.21581e-13
8.25233e-13
8.33216e-13
8.90608e-13
9.71798e-13
1.36616e-12
1.86173e-12
4.55425e-12
1.51071e-12
8.67655e-13
7.33563e-13
7.25057e-13
6.82126e-13
7.05332e-13
6.77661e-13
6.96144e-13
6.80689e-13
6.86665e-13
6.89745e-13
6.86902e-13
6.92548e-13
6.95951e-13
7.02165e-13
7.52398e-13
8.0937e-13
1.10957e-12
1.49881e-12
5.55675e-13
5.58734e-13
5.5588e-13
5.61261e-13
5.64334e-13
5.68965e-13
6.11675e-13
6.49798e-13
8.76214e-13
1.17377e-12
)
;

boundaryField
{
    fuel
    {
        type            fixedValue;
        value           nonuniform 0();
    }
    wall
    {
        type            zeroGradient;
    }
    outlet
    {
        type            zeroGradient;
    }
    frontAndBack
    {
        type            empty;
    }
    procBoundary0to1
    {
        type            processor;
        value           nonuniform List<scalar> 
21
(
3.16774e-12
1.13975e-12
6.94544e-13
5.92822e-13
5.90921e-13
5.50844e-13
5.73825e-13
5.46855e-13
5.65095e-13
5.49921e-13
5.49921e-13
4.3139e-13
4.34219e-13
4.3157e-13
4.36344e-13
4.39038e-13
4.42325e-13
4.77162e-13
5.013e-13
6.68925e-13
8.89507e-13
)
;
    }
    procBoundary0to2
    {
        type            processor;
        value           nonuniform List<scalar> 
12
(
2.23108e-12
2.95023e-11
8.32134e-12
3.33201e-12
2.31945e-12
2.16175e-12
2.02994e-12
2.07529e-12
2.0218e-12
2.04726e-12
2.01977e-12
2.01977e-12
)
;
    }
    procBoundary0to3
    {
        type            processor;
        value           nonuniform List<scalar> 10(2.49332e-12 2.49162e-12 2.49805e-12 2.50331e-12 2.50898e-12 2.54864e-12 2.86807e-12 4.30219e-12 1.31687e-11 9.17132e-12);
    }
}


// ************************************************************************* //
