/*--------------------------------*- C++ -*----------------------------------*\
| =========                 |                                                 |
| \\      /  F ield         | OpenFOAM: The Open Source CFD Toolbox           |
|  \\    /   O peration     | Version:  dev                                   |
|   \\  /    A nd           | Web:      www.OpenFOAM.org                      |
|    \\/     M anipulation  |                                                 |
\*---------------------------------------------------------------------------*/
FoamFile
{
    version     2.0;
    format      ascii;
    class       volScalarField;
    location    "0.115";
    object      A2C2H2;
}
// * * * * * * * * * * * * * * * * * * * * * * * * * * * * * * * * * * * * * //

dimensions      [0 0 0 0 0 0 0];

internalField   nonuniform List<scalar> 
50
(
1.76838e-17
1.91142e-17
1.78177e-17
1.68261e-17
1.61581e-17
1.55981e-17
1.50271e-17
1.44004e-17
1.37266e-17
1.3017e-17
1.22883e-17
1.15549e-17
1.08306e-17
1.01068e-17
9.39408e-18
8.69594e-18
8.01608e-18
7.35812e-18
6.72559e-18
6.12167e-18
5.5544e-18
5.02025e-18
4.51613e-18
4.05242e-18
3.62382e-18
3.23156e-18
2.87124e-18
2.54705e-18
2.25353e-18
1.98849e-18
1.7514e-18
1.54211e-18
1.35472e-18
1.18842e-18
1.04146e-18
9.11883e-19
7.97854e-19
6.9769e-19
6.09845e-19
5.32915e-19
4.65629e-19
4.06844e-19
3.55537e-19
3.10794e-19
2.71803e-19
2.37842e-19
2.08273e-19
1.82534e-19
1.60129e-19
1.40623e-19
)
;

boundaryField
{
    wall
    {
        type            zeroGradient;
    }
    fuel
    {
        type            fixedValue;
        value           uniform 0;
    }
    outlet
    {
        type            inletOutlet;
        inletValue      nonuniform 0();
        value           nonuniform 0();
    }
    procBoundary0to1
    {
        type            processor;
        value           uniform 1.23635e-19;
    }
}


// ************************************************************************* //
