/*--------------------------------*- C++ -*----------------------------------*\
| =========                 |                                                 |
| \\      /  F ield         | OpenFOAM: The Open Source CFD Toolbox           |
|  \\    /   O peration     | Version:  dev                                   |
|   \\  /    A nd           | Web:      www.OpenFOAM.org                      |
|    \\/     M anipulation  |                                                 |
\*---------------------------------------------------------------------------*/
FoamFile
{
    version     2.0;
    format      ascii;
    class       volScalarField;
    location    "0.115";
    object      AC3H4;
}
// * * * * * * * * * * * * * * * * * * * * * * * * * * * * * * * * * * * * * //

dimensions      [0 0 0 0 0 0 0];

internalField   nonuniform List<scalar> 
250
(
7.66999e-07
7.66782e-07
7.67095e-07
7.67357e-07
7.67901e-07
7.71432e-07
7.92271e-07
8.42807e-07
1.01188e-06
1.07568e-06
7.53121e-07
7.52995e-07
7.53171e-07
7.53449e-07
7.54014e-07
7.5748e-07
7.7701e-07
8.23947e-07
9.77307e-07
1.03989e-06
1.3033e-06
9.87897e-07
8.24241e-07
7.6313e-07
7.50353e-07
7.40497e-07
7.43335e-07
7.39962e-07
7.41513e-07
7.39875e-07
7.40968e-07
7.40897e-07
7.40996e-07
7.41277e-07
7.4185e-07
7.45214e-07
7.6346e-07
8.0686e-07
9.46159e-07
1.00995e-06
1.28067e-06
9.59652e-07
8.08181e-07
7.5102e-07
7.38934e-07
7.29952e-07
7.32421e-07
7.29416e-07
7.30823e-07
7.29368e-07
7.30354e-07
7.30321e-07
7.30375e-07
7.30654e-07
7.31226e-07
7.34457e-07
7.51459e-07
7.91413e-07
9.15479e-07
9.82857e-07
1.2505e-06
9.35337e-07
7.93304e-07
7.40224e-07
7.28876e-07
7.207e-07
7.22847e-07
7.2017e-07
7.21449e-07
7.20154e-07
7.21041e-07
7.2104e-07
7.21066e-07
7.21344e-07
7.21909e-07
7.24986e-07
7.40797e-07
7.77434e-07
8.86118e-07
9.57415e-07
1.21408e-06
9.0856e-07
7.79435e-07
7.30476e-07
7.19921e-07
7.12451e-07
7.1434e-07
7.11929e-07
7.13112e-07
7.11941e-07
7.12746e-07
7.12774e-07
7.12777e-07
7.13061e-07
7.13616e-07
7.16531e-07
7.31212e-07
7.6471e-07
8.62331e-07
9.33255e-07
1.17204e-06
8.83851e-07
7.6636e-07
7.21465e-07
7.11778e-07
7.04872e-07
7.06577e-07
7.04358e-07
7.05486e-07
7.04398e-07
7.05139e-07
7.05198e-07
7.0518e-07
7.05477e-07
7.06021e-07
7.08785e-07
7.22384e-07
7.52953e-07
8.39796e-07
9.10101e-07
1.12405e-06
8.59791e-07
7.53811e-07
7.12849e-07
7.03638e-07
6.97605e-07
6.99217e-07
6.97099e-07
6.98229e-07
6.9717e-07
6.97879e-07
6.97968e-07
6.97928e-07
6.98244e-07
6.98776e-07
7.01415e-07
7.13963e-07
7.41853e-07
8.19697e-07
8.87807e-07
1.07829e-06
8.36077e-07
7.41492e-07
7.043e-07
6.9598e-07
6.90308e-07
6.91737e-07
6.89806e-07
6.90845e-07
6.89912e-07
6.90436e-07
6.90587e-07
6.90499e-07
6.90875e-07
6.91402e-07
6.93836e-07
7.05617e-07
7.30806e-07
8.00847e-07
8.66189e-07
1.03025e-06
8.1332e-07
7.29142e-07
6.95518e-07
6.88069e-07
6.82691e-07
6.8414e-07
6.82194e-07
6.83301e-07
6.82336e-07
6.82851e-07
6.83034e-07
6.82919e-07
6.83324e-07
6.8384e-07
6.86146e-07
6.97039e-07
7.19196e-07
7.82845e-07
8.45063e-07
9.81007e-07
7.90937e-07
7.16621e-07
6.86327e-07
6.79715e-07
6.74604e-07
6.76079e-07
6.74117e-07
6.75286e-07
6.74293e-07
6.74792e-07
6.75005e-07
6.74865e-07
6.75294e-07
6.75798e-07
6.77966e-07
6.88029e-07
7.08054e-07
7.654e-07
8.24289e-07
9.36051e-07
7.69101e-07
7.03984e-07
6.76814e-07
6.70962e-07
6.6619e-07
6.6763e-07
6.65728e-07
6.66899e-07
6.65925e-07
6.6639e-07
6.66622e-07
6.66466e-07
6.66898e-07
6.67382e-07
6.69406e-07
6.78622e-07
6.96678e-07
7.48386e-07
8.03881e-07
8.93579e-07
7.48328e-07
6.91734e-07
6.67613e-07
6.6236e-07
6.58189e-07
6.59399e-07
6.57781e-07
6.58792e-07
6.5797e-07
6.58352e-07
6.58573e-07
6.58429e-07
6.58816e-07
6.59259e-07
6.61133e-07
6.69362e-07
6.85674e-07
7.32117e-07
7.84239e-07
6.52517e-07
6.52664e-07
6.52589e-07
6.52838e-07
6.53195e-07
6.54914e-07
6.6181e-07
6.76692e-07
7.17804e-07
7.66597e-07
)
;

boundaryField
{
    fuel
    {
        type            fixedValue;
        value           nonuniform 0();
    }
    wall
    {
        type            zeroGradient;
    }
    outlet
    {
        type            zeroGradient;
    }
    frontAndBack
    {
        type            empty;
    }
    procBoundary0to1
    {
        type            processor;
        value           nonuniform List<scalar> 
21
(
8.55553e-07
7.2995e-07
6.81321e-07
6.60447e-07
6.5548e-07
6.52506e-07
6.53048e-07
6.52206e-07
6.52702e-07
6.52321e-07
6.52321e-07
6.52705e-07
6.52669e-07
6.52765e-07
6.52725e-07
6.52902e-07
6.54469e-07
6.59391e-07
6.73284e-07
7.08348e-07
7.53771e-07
)
;
    }
    procBoundary0to2
    {
        type            processor;
        value           nonuniform List<scalar> 
12
(
7.65687e-07
1.31749e-06
1.01397e-06
8.41588e-07
7.76769e-07
7.63341e-07
7.52575e-07
7.55817e-07
7.52052e-07
7.53752e-07
7.51918e-07
7.51918e-07
)
;
    }
    procBoundary0to3
    {
        type            processor;
        value           nonuniform List<scalar> 10(7.82743e-07 7.8237e-07 7.82914e-07 7.83135e-07 7.83644e-07 7.87209e-07 8.09361e-07 8.65746e-07 1.04928e-06 1.12398e-06);
    }
}


// ************************************************************************* //
