/*--------------------------------*- C++ -*----------------------------------*\
| =========                 |                                                 |
| \\      /  F ield         | OpenFOAM: The Open Source CFD Toolbox           |
|  \\    /   O peration     | Version:  dev                                   |
|   \\  /    A nd           | Web:      www.OpenFOAM.org                      |
|    \\/     M anipulation  |                                                 |
\*---------------------------------------------------------------------------*/
FoamFile
{
    version     2.0;
    format      ascii;
    class       volScalarField;
    location    "0.115";
    object      c-C6H7;
}
// * * * * * * * * * * * * * * * * * * * * * * * * * * * * * * * * * * * * * //

dimensions      [0 0 0 0 0 0 0];

internalField   nonuniform List<scalar> 
50
(
3.346e-12
4.80005e-12
4.92595e-12
4.27097e-12
3.30909e-12
2.36403e-12
1.6009e-12
1.04357e-12
6.64508e-13
4.15266e-13
2.56039e-13
1.56538e-13
9.5549e-14
5.78079e-14
3.4921e-14
2.10178e-14
1.26319e-14
7.58357e-15
4.54813e-15
2.72393e-15
1.63724e-15
9.8444e-16
5.89116e-16
3.53913e-16
2.12489e-16
1.27765e-16
7.65899e-17
4.61078e-17
2.77567e-17
1.66996e-17
1.00671e-17
6.11969e-18
3.72974e-18
2.2897e-18
1.42128e-18
8.95665e-19
5.75872e-19
3.79848e-19
2.58429e-19
1.82136e-19
1.33276e-19
1.01214e-19
7.95394e-20
6.43792e-20
5.33787e-20
4.50962e-20
3.86389e-20
3.3444e-20
2.91468e-20
2.55e-20
)
;

boundaryField
{
    wall
    {
        type            zeroGradient;
    }
    fuel
    {
        type            fixedValue;
        value           uniform 0;
    }
    outlet
    {
        type            inletOutlet;
        inletValue      nonuniform 0();
        value           nonuniform 0();
    }
    procBoundary0to1
    {
        type            processor;
        value           uniform 2.24756e-20;
    }
}


// ************************************************************************* //
