/*--------------------------------*- C++ -*----------------------------------*\
| =========                 |                                                 |
| \\      /  F ield         | OpenFOAM: The Open Source CFD Toolbox           |
|  \\    /   O peration     | Version:  dev                                   |
|   \\  /    A nd           | Web:      www.OpenFOAM.org                      |
|    \\/     M anipulation  |                                                 |
\*---------------------------------------------------------------------------*/
FoamFile
{
    version     2.0;
    format      ascii;
    class       volScalarField;
    location    "0.115";
    object      C4H2;
}
// * * * * * * * * * * * * * * * * * * * * * * * * * * * * * * * * * * * * * //

dimensions      [0 0 0 0 0 0 0];

internalField   nonuniform List<scalar> 
250
(
0.000233008
0.000234158
0.00023289
0.00023513
0.000232167
0.000240449
0.000240055
0.000282137
0.000315887
0.000495623
0.000224388
0.000225438
0.000224186
0.000226273
0.00022357
0.000231164
0.000230957
0.000269129
0.000300653
0.000466284
0.000304731
0.00029577
0.000245585
0.000226024
0.000218641
0.000217131
0.000216986
0.000216949
0.000217317
0.000217274
0.000216595
0.000217542
0.000216336
0.000218268
0.000215815
0.000222749
0.000222694
0.000257626
0.000286071
0.000437336
0.000296272
0.000280506
0.000236005
0.000218324
0.000211486
0.000210058
0.000209899
0.000209824
0.000210169
0.000210125
0.000209543
0.000210392
0.00020925
0.000211029
0.000208814
0.000215132
0.000215186
0.000246994
0.000271797
0.000409429
0.000286567
0.000266044
0.000227212
0.000211292
0.000204979
0.000203639
0.000203472
0.000203368
0.000203684
0.000203639
0.000203139
0.000203899
0.000202832
0.000204465
0.000202469
0.00020823
0.000208342
0.00023719
0.000259101
0.00038165
0.000276134
0.000253916
0.000219095
0.000204829
0.00019902
0.000197771
0.000197599
0.000197472
0.000197761
0.000197712
0.00019728
0.000197965
0.000196972
0.000198473
0.000196671
0.000201952
0.000202061
0.000228134
0.000246749
0.000354225
0.000265313
0.000242204
0.000211557
0.000198824
0.000193499
0.000192342
0.000192169
0.000192022
0.000192285
0.000192229
0.000191854
0.000192481
0.000191554
0.000192943
0.000191305
0.000196205
0.000196237
0.000219737
0.000236008
0.000329487
0.000254374
0.000231609
0.000204492
0.000193152
0.000188284
0.000187229
0.000187059
0.000186895
0.000187137
0.000187071
0.000186743
0.000187327
0.000186454
0.000187753
0.000186244
0.000190256
0.00019057
0.000211891
0.000225915
0.000306828
0.000243482
0.000221645
0.000197783
0.000187681
0.00018318
0.000182138
0.000181966
0.000181756
0.000181974
0.000181882
0.000181615
0.000182167
0.000181342
0.000182584
0.000181183
0.000185049
0.000185233
0.000204491
0.000216516
0.000285627
0.000232725
0.000212183
0.00019109
0.000182295
0.000178183
0.00017723
0.000177064
0.000176834
0.000177042
0.000176933
0.000176695
0.000177235
0.000176435
0.000177639
0.000176302
0.000179931
0.000179937
0.000197421
0.00020686
0.000268113
0.000222133
0.000203091
0.00018463
0.000176863
0.000173115
0.000172231
0.000172073
0.000171821
0.000172024
0.000171896
0.00017168
0.000172221
0.000171429
0.000172622
0.000171315
0.000174771
0.000174553
0.000189856
0.000198126
0.000251832
0.000211687
0.000194224
0.000178091
0.000171257
0.000167838
0.000167019
0.000166872
0.000166597
0.0001668
0.000166653
0.00016645
0.000167006
0.000166204
0.000167409
0.000166102
0.00016944
0.00016897
0.000182892
0.00018956
0.000236624
0.000201335
0.000185445
0.000171357
0.000165365
0.000162242
0.000161485
0.000161354
0.000161055
0.000161263
0.000161094
0.000160899
0.000161479
0.000160656
0.00016189
0.000160559
0.000163822
0.000163084
0.000175824
0.000181036
0.000222292
0.000154929
0.000155542
0.000154685
0.000155964
0.000154588
0.000157809
0.000156797
0.000168535
0.000172435
0.00020863
)
;

boundaryField
{
    fuel
    {
        type            fixedValue;
        value           nonuniform 0();
    }
    wall
    {
        type            zeroGradient;
    }
    outlet
    {
        type            zeroGradient;
    }
    frontAndBack
    {
        type            empty;
    }
    procBoundary0to1
    {
        type            processor;
        value           nonuniform List<scalar> 
21
(
0.000191001
0.000176621
0.000164321
0.000159086
0.000156228
0.00015553
0.000155418
0.000155095
0.000155313
0.000155121
0.000155121
0.000148431
0.000149088
0.000148184
0.00014952
0.000148082
0.000151289
0.000150001
0.000160903
0.000163628
0.000195434
)
;
    }
    procBoundary0to2
    {
        type            processor;
        value           nonuniform List<scalar> 
12
(
0.000233947
0.000311629
0.000311068
0.000255945
0.000234475
0.000226541
0.000224953
0.000224828
0.000224845
0.00022522
0.000225184
0.000225184
)
;
    }
    procBoundary0to3
    {
        type            processor;
        value           nonuniform List<scalar> 10(0.000242538 0.000243776 0.00024253 0.000244916 0.000241687 0.000250662 0.00025005 0.000295484 0.000334448 0.000524511);
    }
}


// ************************************************************************* //
