/*--------------------------------*- C++ -*----------------------------------*\
| =========                 |                                                 |
| \\      /  F ield         | OpenFOAM: The Open Source CFD Toolbox           |
|  \\    /   O peration     | Version:  dev                                   |
|   \\  /    A nd           | Web:      www.OpenFOAM.org                      |
|    \\/     M anipulation  |                                                 |
\*---------------------------------------------------------------------------*/
FoamFile
{
    version     2.0;
    format      ascii;
    class       volScalarField;
    location    "0.115";
    object      OH;
}
// * * * * * * * * * * * * * * * * * * * * * * * * * * * * * * * * * * * * * //

dimensions      [0 0 0 0 0 0 0];

internalField   nonuniform List<scalar> 
250
(
2.62594e-05
2.64417e-05
2.6233e-05
2.66157e-05
2.61515e-05
2.70276e-05
2.56476e-05
2.55286e-05
1.81076e-05
1.26885e-05
2.46716e-05
2.48673e-05
2.46342e-05
2.50528e-05
2.4555e-05
2.55047e-05
2.41028e-05
2.42159e-05
1.73397e-05
1.15449e-05
7.25341e-06
1.55018e-05
2.13933e-05
2.31041e-05
2.31297e-05
2.31292e-05
2.31169e-05
2.30421e-05
2.30986e-05
2.30491e-05
2.29688e-05
2.31772e-05
2.29223e-05
2.3374e-05
2.28449e-05
2.38663e-05
2.24466e-05
2.28583e-05
1.64857e-05
1.06592e-05
7.48824e-06
1.4939e-05
1.99613e-05
2.13871e-05
2.1342e-05
2.13298e-05
2.13155e-05
2.12315e-05
2.12916e-05
2.12364e-05
2.11573e-05
2.1377e-05
2.11035e-05
2.15837e-05
2.10276e-05
2.21158e-05
2.06842e-05
2.13905e-05
1.55067e-05
9.95945e-06
7.65616e-06
1.41892e-05
1.84091e-05
1.95624e-05
1.94547e-05
1.94319e-05
1.94164e-05
1.93253e-05
1.93884e-05
1.93287e-05
1.92497e-05
1.94788e-05
1.91905e-05
1.96928e-05
1.91162e-05
2.02622e-05
1.88276e-05
1.98121e-05
1.44713e-05
9.3594e-06
7.71678e-06
1.33424e-05
1.67433e-05
1.76463e-05
1.74868e-05
1.74552e-05
1.74394e-05
1.73435e-05
1.74088e-05
1.73457e-05
1.72668e-05
1.75022e-05
1.72041e-05
1.77199e-05
1.71315e-05
1.83232e-05
1.6897e-05
1.81274e-05
1.32741e-05
8.80138e-06
7.63203e-06
1.22939e-05
1.49853e-05
1.56638e-05
1.54651e-05
1.5428e-05
1.54128e-05
1.53146e-05
1.53815e-05
1.53163e-05
1.52378e-05
1.54757e-05
1.51734e-05
1.56924e-05
1.51029e-05
1.63291e-05
1.49228e-05
1.63493e-05
1.20512e-05
8.2751e-06
7.37719e-06
1.11294e-05
1.31674e-05
1.36489e-05
1.34192e-05
1.33878e-05
1.3374e-05
1.32767e-05
1.3344e-05
1.32785e-05
1.32012e-05
1.34368e-05
1.31371e-05
1.3647e-05
1.30686e-05
1.40898e-05
1.28788e-05
1.45e-05
1.07373e-05
7.72148e-06
6.94277e-06
9.84657e-06
1.13326e-05
1.16434e-05
1.13691e-05
1.13131e-05
1.12993e-05
1.11949e-05
1.12577e-05
1.11883e-05
1.11233e-05
1.13488e-05
1.10626e-05
1.15533e-05
1.1005e-05
1.20494e-05
1.09185e-05
1.26157e-05
9.38174e-06
7.09236e-06
6.33914e-06
8.4884e-06
9.47415e-06
9.69851e-06
9.42074e-06
9.37439e-06
9.36295e-06
9.26468e-06
9.32448e-06
9.25822e-06
9.19803e-06
9.40927e-06
9.14142e-06
9.59667e-06
9.08936e-06
1.0063e-05
9.03239e-06
1.07422e-05
7.90228e-06
6.4483e-06
5.59665e-06
7.10939e-06
7.74111e-06
7.86485e-06
7.60403e-06
7.56157e-06
7.55283e-06
7.46303e-06
7.51831e-06
7.45706e-06
7.40303e-06
7.59495e-06
7.35177e-06
7.76119e-06
7.30588e-06
8.18262e-06
7.2701e-06
8.75759e-06
6.53884e-06
5.72761e-06
4.7622e-06
5.76605e-06
6.13432e-06
6.18976e-06
5.95723e-06
5.9191e-06
5.91311e-06
5.83383e-06
5.88317e-06
5.82856e-06
5.78175e-06
5.95022e-06
5.73687e-06
6.09236e-06
5.69764e-06
6.45785e-06
5.677e-06
7.03262e-06
5.24598e-06
4.94536e-06
3.89272e-06
4.51324e-06
4.69893e-06
4.71235e-06
4.51484e-06
4.48212e-06
4.47874e-06
4.41133e-06
4.45371e-06
4.40689e-06
4.3679e-06
4.5103e-06
4.33009e-06
4.62698e-06
4.29773e-06
4.93029e-06
4.28726e-06
5.46406e-06
4.06645e-06
4.12911e-06
3.18126e-06
3.29681e-06
3.15073e-06
3.38842e-06
3.12509e-06
3.62844e-06
3.12086e-06
4.09189e-06
3.03465e-06
3.31622e-06
)
;

boundaryField
{
    fuel
    {
        type            fixedValue;
        value           nonuniform 0();
    }
    wall
    {
        type            zeroGradient;
    }
    outlet
    {
        type            zeroGradient;
    }
    frontAndBack
    {
        type            empty;
    }
    procBoundary0to1
    {
        type            processor;
        value           nonuniform List<scalar> 
21
(
3.0464e-06
3.39707e-06
3.46734e-06
3.45848e-06
3.29889e-06
3.27207e-06
3.27098e-06
3.21593e-06
3.25093e-06
3.21235e-06
3.21235e-06
2.22539e-06
2.31524e-06
2.20186e-06
2.38376e-06
2.18244e-06
2.56411e-06
2.18159e-06
2.94093e-06
2.17206e-06
2.54812e-06
)
;
    }
    procBoundary0to2
    {
        type            processor;
        value           nonuniform List<scalar> 
12
(
2.63498e-05
6.98241e-06
1.58843e-05
2.26921e-05
2.47045e-05
2.48063e-05
2.48183e-05
2.48088e-05
2.47452e-05
2.4797e-05
2.4755e-05
2.4755e-05
)
;
    }
    procBoundary0to3
    {
        type            processor;
        value           nonuniform List<scalar> 10(2.77313e-05 2.78997e-05 2.77174e-05 2.80629e-05 2.76327e-05 2.84352e-05 2.708e-05 2.66901e-05 1.89193e-05 1.41633e-05);
    }
}


// ************************************************************************* //
