/*--------------------------------*- C++ -*----------------------------------*\
| =========                 |                                                 |
| \\      /  F ield         | OpenFOAM: The Open Source CFD Toolbox           |
|  \\    /   O peration     | Version:  dev                                   |
|   \\  /    A nd           | Web:      www.OpenFOAM.org                      |
|    \\/     M anipulation  |                                                 |
\*---------------------------------------------------------------------------*/
FoamFile
{
    version     2.0;
    format      ascii;
    class       volScalarField;
    location    "0.195";
    object      A1-;
}
// * * * * * * * * * * * * * * * * * * * * * * * * * * * * * * * * * * * * * //

dimensions      [0 0 0 0 0 0 0];

internalField   nonuniform List<scalar> 
250
(
2.95505e-07
2.95938e-07
2.96117e-07
2.96418e-07
2.96852e-07
2.99914e-07
3.16305e-07
3.63375e-07
6.14719e-07
5.09116e-07
2.82863e-07
2.83256e-07
2.8333e-07
2.83715e-07
2.84171e-07
2.86994e-07
3.02092e-07
3.43275e-07
5.5277e-07
4.9212e-07
2.09756e-06
5.84077e-07
3.50949e-07
2.8364e-07
2.80732e-07
2.70486e-07
2.74148e-07
2.70866e-07
2.72222e-07
2.70859e-07
2.71511e-07
2.71869e-07
2.71876e-07
2.72323e-07
2.72787e-07
2.7537e-07
2.8925e-07
3.24996e-07
4.99225e-07
4.72205e-07
1.90262e-06
5.38149e-07
3.32406e-07
2.72034e-07
2.69519e-07
2.60176e-07
2.63505e-07
2.60467e-07
2.61755e-07
2.60488e-07
2.61087e-07
2.61423e-07
2.61386e-07
2.61886e-07
2.6235e-07
2.64703e-07
2.77445e-07
3.08208e-07
4.49532e-07
4.49207e-07
1.69575e-06
4.9216e-07
3.1479e-07
2.60884e-07
2.59003e-07
2.50288e-07
2.53434e-07
2.50521e-07
2.51798e-07
2.50575e-07
2.51134e-07
2.51463e-07
2.51394e-07
2.5195e-07
2.52413e-07
2.54562e-07
2.66249e-07
2.92507e-07
4.03772e-07
4.23636e-07
1.46992e-06
4.4268e-07
2.97703e-07
2.49617e-07
2.48673e-07
2.40238e-07
2.43385e-07
2.40447e-07
2.41793e-07
2.40546e-07
2.41086e-07
2.41421e-07
2.41322e-07
2.41952e-07
2.42415e-07
2.44389e-07
2.55128e-07
2.77376e-07
3.68121e-07
3.96371e-07
1.24244e-06
3.97296e-07
2.8065e-07
2.37563e-07
2.37931e-07
2.29346e-07
2.32709e-07
2.29581e-07
2.31086e-07
2.29741e-07
2.30284e-07
2.30632e-07
2.30509e-07
2.31233e-07
2.31699e-07
2.33531e-07
2.43441e-07
2.62145e-07
3.35289e-07
3.67969e-07
1.02522e-06
3.53239e-07
2.63032e-07
2.24024e-07
2.25334e-07
2.16912e-07
2.20719e-07
2.17242e-07
2.18996e-07
2.17479e-07
2.18051e-07
2.184e-07
2.18273e-07
2.19107e-07
2.19576e-07
2.21306e-07
2.30478e-07
2.46116e-07
3.05784e-07
3.38775e-07
8.42327e-07
3.10855e-07
2.44234e-07
2.08427e-07
2.11436e-07
2.02331e-07
2.06338e-07
2.02355e-07
2.04474e-07
2.02705e-07
2.03294e-07
2.041e-07
2.03518e-07
2.04551e-07
2.0503e-07
2.06527e-07
2.15592e-07
2.28183e-07
2.77343e-07
3.08816e-07
6.77895e-07
2.67526e-07
2.23259e-07
1.90425e-07
1.95143e-07
1.85265e-07
1.89858e-07
1.85367e-07
1.87834e-07
1.85817e-07
1.86455e-07
1.8735e-07
1.86679e-07
1.87842e-07
1.88317e-07
1.89688e-07
1.98322e-07
2.07144e-07
2.49026e-07
2.77951e-07
5.39788e-07
2.28245e-07
2.00297e-07
1.70069e-07
1.76313e-07
1.65765e-07
1.70875e-07
1.65942e-07
1.68721e-07
1.66486e-07
1.67166e-07
1.68144e-07
1.67385e-07
1.68652e-07
1.69112e-07
1.70341e-07
1.78557e-07
1.85191e-07
2.20259e-07
2.46067e-07
4.1766e-07
1.90988e-07
1.75665e-07
1.47881e-07
1.5525e-07
1.44353e-07
1.49798e-07
1.44599e-07
1.47585e-07
1.45214e-07
1.45915e-07
1.4694e-07
1.46121e-07
1.47441e-07
1.47872e-07
1.48944e-07
1.56653e-07
1.6138e-07
1.90875e-07
2.13306e-07
3.19157e-07
1.56236e-07
1.50039e-07
1.24802e-07
1.32735e-07
1.21971e-07
1.27476e-07
1.22265e-07
1.25306e-07
1.22914e-07
1.23606e-07
1.24628e-07
1.23794e-07
1.25098e-07
1.25485e-07
1.2639e-07
1.33437e-07
1.36587e-07
1.61267e-07
1.80232e-07
1.01397e-07
1.02365e-07
1.01562e-07
1.02782e-07
1.03115e-07
1.03849e-07
1.10068e-07
1.11983e-07
1.32303e-07
1.47831e-07
)
;

boundaryField
{
    fuel
    {
        type            fixedValue;
        value           nonuniform 0();
    }
    wall
    {
        type            zeroGradient;
    }
    outlet
    {
        type            zeroGradient;
    }
    frontAndBack
    {
        type            empty;
    }
    procBoundary0to1
    {
        type            processor;
        value           nonuniform List<scalar> 
21
(
2.3845e-07
1.24603e-07
1.24359e-07
1.02009e-07
1.09895e-07
9.97929e-08
1.05056e-07
1.00108e-07
1.03031e-07
1.00749e-07
1.00749e-07
8.04498e-08
8.13204e-08
8.05898e-08
8.16691e-08
8.19421e-08
8.25134e-08
8.77842e-08
8.87917e-08
1.05087e-07
1.17322e-07
)
;
    }
    procBoundary0to2
    {
        type            processor;
        value           nonuniform List<scalar> 
12
(
2.94723e-07
2.2717e-06
6.36808e-07
3.70712e-07
2.9616e-07
2.93043e-07
2.81691e-07
2.85803e-07
2.82186e-07
2.83648e-07
2.8215e-07
2.8215e-07
)
;
    }
    procBoundary0to3
    {
        type            processor;
        value           nonuniform List<scalar> 10(3.09717e-07 3.102e-07 3.10527e-07 3.10714e-07 3.11103e-07 3.14411e-07 3.32147e-07 3.88016e-07 6.85458e-07 5.23874e-07);
    }
}


// ************************************************************************* //
