/*--------------------------------*- C++ -*----------------------------------*\
| =========                 |                                                 |
| \\      /  F ield         | OpenFOAM: The Open Source CFD Toolbox           |
|  \\    /   O peration     | Version:  dev                                   |
|   \\  /    A nd           | Web:      www.OpenFOAM.org                      |
|    \\/     M anipulation  |                                                 |
\*---------------------------------------------------------------------------*/
FoamFile
{
    version     2.0;
    format      ascii;
    class       volScalarField;
    location    "0.195";
    object      A1C2H*;
}
// * * * * * * * * * * * * * * * * * * * * * * * * * * * * * * * * * * * * * //

dimensions      [0 0 0 0 0 0 0];

internalField   nonuniform List<scalar> 
250
(
3.25414e-09
3.2618e-09
3.26415e-09
3.26972e-09
3.27675e-09
3.32516e-09
3.58582e-09
4.29231e-09
8.19398e-09
6.35385e-09
3.04328e-09
3.05009e-09
3.05075e-09
3.05758e-09
3.0648e-09
3.10846e-09
3.34408e-09
3.9523e-09
7.14478e-09
6.10554e-09
3.29687e-08
7.30332e-09
4.059e-09
3.0335e-09
3.00351e-09
2.84018e-09
2.89983e-09
2.84652e-09
2.86887e-09
2.84662e-09
2.85698e-09
2.86309e-09
2.86271e-09
2.87036e-09
2.87754e-09
2.91668e-09
3.12945e-09
3.6496e-09
6.26074e-09
5.80336e-09
2.88139e-08
6.53439e-09
3.74656e-09
2.84617e-09
2.82079e-09
2.67488e-09
2.72794e-09
2.67972e-09
2.70041e-09
2.68021e-09
2.68952e-09
2.6951e-09
2.69411e-09
2.70234e-09
2.70936e-09
2.74434e-09
2.93621e-09
3.3779e-09
5.46069e-09
5.44988e-09
2.47241e-08
5.80311e-09
3.45936e-09
2.67214e-09
2.65392e-09
2.52144e-09
2.56995e-09
2.52522e-09
2.54496e-09
2.52613e-09
2.53457e-09
2.5398e-09
2.53845e-09
2.54721e-09
2.55402e-09
2.58536e-09
2.75807e-09
3.13071e-09
4.74281e-09
5.05737e-09
2.05591e-08
5.05431e-09
3.19123e-09
2.5042e-09
2.4963e-09
2.37271e-09
2.41892e-09
2.37593e-09
2.39559e-09
2.37734e-09
2.38514e-09
2.39019e-09
2.38859e-09
2.39795e-09
2.40455e-09
2.4328e-09
2.58814e-09
2.90076e-09
4.19878e-09
4.64308e-09
1.6638e-08
4.40035e-09
2.93548e-09
2.33475e-09
2.34101e-09
2.22115e-09
2.26747e-09
2.22442e-09
2.24493e-09
2.22646e-09
2.23389e-09
2.2388e-09
2.23707e-09
2.24716e-09
2.25356e-09
2.27925e-09
2.4189e-09
2.67958e-09
3.71229e-09
4.21888e-09
1.3132e-08
3.79491e-09
2.68475e-09
2.15651e-09
2.17014e-09
2.0596e-09
2.10848e-09
2.06377e-09
2.08596e-09
2.06656e-09
2.0739e-09
2.07843e-09
2.07691e-09
2.08778e-09
2.09398e-09
2.11769e-09
2.24279e-09
2.45922e-09
3.29017e-09
3.7934e-09
1.03531e-08
3.23941e-09
2.43228e-09
1.9642e-09
1.99479e-09
1.88252e-09
1.93031e-09
1.88251e-09
1.90752e-09
1.88641e-09
1.89345e-09
1.90327e-09
1.89636e-09
1.90899e-09
1.91504e-09
1.93507e-09
2.05363e-09
2.22694e-09
2.89974e-09
3.37049e-09
7.99134e-09
2.69773e-09
2.16688e-09
1.75528e-09
1.8021e-09
1.68753e-09
1.73898e-09
1.6883e-09
1.7157e-09
1.69307e-09
1.70022e-09
1.71046e-09
1.70301e-09
1.71639e-09
1.72213e-09
1.73996e-09
1.84772e-09
1.97032e-09
2.5291e-09
2.95145e-09
6.11202e-09
2.22996e-09
1.89283e-09
1.53145e-09
1.5919e-09
1.47634e-09
1.53053e-09
1.47782e-09
1.5071e-09
1.48334e-09
1.49055e-09
1.50111e-09
1.49314e-09
1.50695e-09
1.51227e-09
1.52772e-09
1.62522e-09
1.71796e-09
2.17149e-09
2.53749e-09
4.53423e-09
1.80655e-09
1.61477e-09
1.29896e-09
1.36849e-09
1.25512e-09
1.31015e-09
1.25722e-09
1.28728e-09
1.26322e-09
1.27029e-09
1.28083e-09
1.27263e-09
1.28632e-09
1.29108e-09
1.30408e-09
1.39092e-09
1.45789e-09
1.82491e-09
2.13223e-09
3.32452e-09
1.42932e-09
1.33992e-09
1.06746e-09
1.14034e-09
1.03351e-09
1.0868e-09
1.036e-09
1.06537e-09
1.04212e-09
1.04879e-09
1.05884e-09
1.05083e-09
1.06376e-09
1.06785e-09
1.07839e-09
1.15378e-09
1.19956e-09
1.49327e-09
1.74303e-09
8.36891e-10
8.46024e-10
8.38598e-10
8.50185e-10
8.53555e-10
8.61752e-10
9.25027e-10
9.54279e-10
1.1846e-09
1.38039e-09
)
;

boundaryField
{
    fuel
    {
        type            fixedValue;
        value           nonuniform 0();
    }
    wall
    {
        type            zeroGradient;
    }
    outlet
    {
        type            zeroGradient;
    }
    frontAndBack
    {
        type            empty;
    }
    procBoundary0to1
    {
        type            processor;
        value           nonuniform List<scalar> 
21
(
2.38073e-09
1.10112e-09
1.07724e-09
8.47955e-10
9.18413e-10
8.22415e-10
8.7138e-10
8.25048e-10
8.52207e-10
8.30891e-10
8.30891e-10
6.44408e-10
6.52302e-10
6.45789e-10
6.55627e-10
6.58279e-10
6.64383e-10
7.15462e-10
7.32571e-10
9.0809e-10
1.05543e-09
)
;
    }
    procBoundary0to2
    {
        type            processor;
        value           nonuniform List<scalar> 
12
(
3.24125e-09
3.70136e-08
8.23658e-09
4.40206e-09
3.24052e-09
3.20805e-09
3.02378e-09
3.09184e-09
3.03208e-09
3.05659e-09
3.03172e-09
3.03172e-09
)
;
    }
    procBoundary0to3
    {
        type            processor;
        value           nonuniform List<scalar> 10(3.49488e-09 3.50357e-09 3.50841e-09 3.51214e-09 3.51861e-09 3.57214e-09 3.85991e-09 4.71888e-09 9.42463e-09 6.55365e-09);
    }
}


// ************************************************************************* //
