/*--------------------------------*- C++ -*----------------------------------*\
| =========                 |                                                 |
| \\      /  F ield         | OpenFOAM: The Open Source CFD Toolbox           |
|  \\    /   O peration     | Version:  dev                                   |
|   \\  /    A nd           | Web:      www.OpenFOAM.org                      |
|    \\/     M anipulation  |                                                 |
\*---------------------------------------------------------------------------*/
FoamFile
{
    version     2.0;
    format      ascii;
    class       volScalarField;
    location    "0.195";
    object      A2R5;
}
// * * * * * * * * * * * * * * * * * * * * * * * * * * * * * * * * * * * * * //

dimensions      [0 0 0 0 0 0 0];

internalField   nonuniform List<scalar> 
250
(
6.94042e-08
6.94992e-08
6.95614e-08
6.96042e-08
6.97375e-08
7.07257e-08
7.63506e-08
9.59135e-08
1.85711e-07
2.04245e-07
6.65439e-08
6.66264e-08
6.66657e-08
6.67255e-08
6.68629e-08
6.77877e-08
7.30363e-08
9.05808e-08
1.67963e-07
1.91987e-07
3.75442e-07
1.53389e-07
9.43961e-08
6.95404e-08
6.6666e-08
6.38895e-08
6.46892e-08
6.39505e-08
6.42316e-08
6.39263e-08
6.40891e-08
6.41586e-08
6.41854e-08
6.42539e-08
6.43912e-08
6.52509e-08
7.01394e-08
8.58511e-08
1.52698e-07
1.8004e-07
3.56723e-07
1.44403e-07
9.01181e-08
6.71671e-08
6.43395e-08
6.18822e-08
6.25452e-08
6.19155e-08
6.21495e-08
6.18915e-08
6.20352e-08
6.20919e-08
6.2114e-08
6.21845e-08
6.23191e-08
6.31159e-08
6.76546e-08
8.1718e-08
1.38672e-07
1.6867e-07
3.3493e-07
1.35861e-07
8.62432e-08
6.51949e-08
6.24122e-08
6.02708e-08
6.07985e-08
6.02785e-08
6.04625e-08
6.02527e-08
6.03759e-08
6.04199e-08
6.04431e-08
6.05105e-08
6.06408e-08
6.13822e-08
6.55742e-08
7.81804e-08
1.25995e-07
1.58107e-07
3.09384e-07
1.2709e-07
8.27849e-08
6.36144e-08
6.08793e-08
5.90436e-08
5.944e-08
5.90281e-08
5.9161e-08
5.8999e-08
5.91009e-08
5.91323e-08
5.91602e-08
5.92213e-08
5.93465e-08
6.00413e-08
6.38898e-08
7.52296e-08
1.16549e-07
1.48541e-07
2.82191e-07
1.19484e-07
7.97521e-08
6.24087e-08
5.97304e-08
5.81823e-08
5.84547e-08
5.81465e-08
5.8229e-08
5.81132e-08
5.81935e-08
5.82124e-08
5.82477e-08
5.83003e-08
5.84202e-08
5.90778e-08
6.25865e-08
7.28332e-08
1.08473e-07
1.40004e-07
2.54957e-07
1.12538e-07
7.71391e-08
6.15512e-08
5.88871e-08
5.76601e-08
5.78196e-08
5.76075e-08
5.76425e-08
5.75697e-08
5.76293e-08
5.76352e-08
5.76797e-08
5.77227e-08
5.78375e-08
5.84685e-08
6.164e-08
7.09482e-08
1.02008e-07
1.3248e-07
2.31038e-07
1.06297e-07
7.49285e-08
6.10079e-08
5.84202e-08
5.74405e-08
5.74902e-08
5.73659e-08
5.73577e-08
5.73241e-08
5.73632e-08
5.73665e-08
5.74104e-08
5.74453e-08
5.75553e-08
5.81563e-08
6.10256e-08
6.9476e-08
9.66938e-08
1.25896e-07
2.08642e-07
1.00347e-07
7.30414e-08
6.07329e-08
5.82418e-08
5.74776e-08
5.7443e-08
5.7391e-08
5.73469e-08
5.73457e-08
5.73678e-08
5.7362e-08
5.74123e-08
5.74388e-08
5.75443e-08
5.81185e-08
6.07005e-08
6.8334e-08
9.2358e-08
1.20148e-07
1.8896e-07
9.53624e-08
7.14779e-08
6.06722e-08
5.83018e-08
5.7717e-08
5.76168e-08
5.76211e-08
5.75495e-08
5.75736e-08
5.75817e-08
5.75689e-08
5.76233e-08
5.76432e-08
5.77446e-08
5.82904e-08
6.06118e-08
6.7576e-08
8.88257e-08
1.15105e-07
1.70541e-07
9.09597e-08
7.02056e-08
6.07676e-08
5.85429e-08
5.80993e-08
5.79532e-08
5.79971e-08
5.79073e-08
5.7949e-08
5.79463e-08
5.79289e-08
5.7985e-08
5.80002e-08
5.80977e-08
5.86134e-08
6.06997e-08
6.70439e-08
8.59217e-08
1.10623e-07
1.5464e-07
8.70702e-08
6.91697e-08
6.09606e-08
5.89048e-08
5.85655e-08
5.83926e-08
5.84598e-08
5.83607e-08
5.84126e-08
5.84025e-08
5.83826e-08
5.84381e-08
5.84506e-08
5.85442e-08
5.90278e-08
6.09024e-08
6.66634e-08
8.34849e-08
1.06558e-07
5.88956e-08
5.88752e-08
5.89282e-08
5.89398e-08
5.90292e-08
5.94788e-08
6.11618e-08
6.63675e-08
8.13744e-08
1.02776e-07
)
;

boundaryField
{
    fuel
    {
        type            fixedValue;
        value           nonuniform 0();
    }
    wall
    {
        type            zeroGradient;
    }
    outlet
    {
        type            zeroGradient;
    }
    frontAndBack
    {
        type            empty;
    }
    procBoundary0to1
    {
        type            processor;
        value           nonuniform List<scalar> 
21
(
1.40469e-07
8.36286e-08
6.83068e-08
6.11981e-08
5.93293e-08
5.90617e-08
5.88789e-08
5.89553e-08
5.8855e-08
5.89105e-08
5.89105e-08
5.93809e-08
5.93615e-08
5.94104e-08
5.94224e-08
5.95072e-08
5.99212e-08
6.14289e-08
6.61017e-08
7.94768e-08
9.9168e-08
)
;
    }
    procBoundary0to2
    {
        type            processor;
        value           nonuniform List<scalar> 
12
(
6.92088e-08
3.90053e-07
1.64291e-07
9.90609e-08
7.23174e-08
6.93945e-08
6.63001e-08
6.72369e-08
6.63914e-08
6.67153e-08
6.63644e-08
6.63644e-08
)
;
    }
    procBoundary0to3
    {
        type            processor;
        value           nonuniform List<scalar> 10(7.26753e-08 7.27815e-08 7.28787e-08 7.28957e-08 7.30196e-08 7.40705e-08 8.00838e-08 1.02524e-07 2.05976e-07 2.16452e-07);
    }
}


// ************************************************************************* //
