/*--------------------------------*- C++ -*----------------------------------*\
| =========                 |                                                 |
| \\      /  F ield         | OpenFOAM: The Open Source CFD Toolbox           |
|  \\    /   O peration     | Version:  dev                                   |
|   \\  /    A nd           | Web:      www.OpenFOAM.org                      |
|    \\/     M anipulation  |                                                 |
\*---------------------------------------------------------------------------*/
FoamFile
{
    version     2.0;
    format      ascii;
    class       volScalarField;
    location    "0.195";
    object      C;
}
// * * * * * * * * * * * * * * * * * * * * * * * * * * * * * * * * * * * * * //

dimensions      [0 0 0 0 0 0 0];

internalField   nonuniform List<scalar> 
250
(
2.89722e-09
2.94176e-09
2.88847e-09
2.9995e-09
2.86812e-09
3.11688e-09
2.75348e-09
2.75466e-09
1.28986e-09
7.27388e-10
2.48932e-09
2.53336e-09
2.47994e-09
2.58995e-09
2.46181e-09
2.70582e-09
2.36793e-09
2.41818e-09
1.15674e-09
5.81909e-10
2.02765e-10
9.24336e-10
1.82968e-09
2.18505e-09
2.14646e-09
2.14116e-09
2.13399e-09
2.11417e-09
2.12246e-09
2.10858e-09
2.09238e-09
2.13484e-09
2.0827e-09
2.18845e-09
2.06662e-09
2.30342e-09
1.99211e-09
2.09812e-09
1.01179e-09
4.76862e-10
2.10024e-10
8.50225e-10
1.54718e-09
1.81496e-09
1.76618e-09
1.76053e-09
1.75327e-09
1.73399e-09
1.74285e-09
1.72934e-09
1.71437e-09
1.75414e-09
1.70474e-09
1.80346e-09
1.69067e-09
1.91465e-09
1.63371e-09
1.78273e-09
8.71679e-10
3.98796e-10
2.1432e-10
7.51963e-10
1.27089e-09
1.46529e-09
1.41162e-09
1.40592e-09
1.39873e-09
1.381e-09
1.38988e-09
1.37718e-09
1.36376e-09
1.39973e-09
1.35455e-09
1.4439e-09
1.34247e-09
1.54836e-09
1.30066e-09
1.47769e-09
7.32871e-10
3.3771e-10
2.12441e-10
6.49415e-10
1.00914e-09
1.14451e-09
1.09116e-09
1.08566e-09
1.07863e-09
1.06339e-09
1.07177e-09
1.06033e-09
1.0487e-09
1.07984e-09
1.04027e-09
1.11841e-09
1.03013e-09
1.21346e-09
1.00065e-09
1.18955e-09
5.89683e-10
2.82417e-10
2.0179e-10
5.34506e-10
7.70362e-10
8.60549e-10
8.11987e-10
8.0689e-10
8.00007e-10
7.88013e-10
7.95479e-10
7.85668e-10
7.75966e-10
8.01492e-10
7.68619e-10
8.34486e-10
7.60335e-10
9.18336e-10
7.4014e-10
9.25494e-10
4.63864e-10
2.34516e-10
1.81741e-10
4.21155e-10
5.62026e-10
6.19485e-10
5.7917e-10
5.74539e-10
5.67673e-10
5.59471e-10
5.65705e-10
5.57782e-10
5.50002e-10
5.69382e-10
5.43934e-10
5.97318e-10
5.37342e-10
6.48545e-10
5.2335e-10
6.92296e-10
3.49947e-10
1.90783e-10
1.53792e-10
3.14352e-10
3.89453e-10
4.24572e-10
3.87177e-10
3.84315e-10
3.83257e-10
3.71861e-10
3.77069e-10
3.70277e-10
3.65077e-10
3.85058e-10
3.60647e-10
4.01281e-10
3.56228e-10
4.45891e-10
3.52171e-10
4.95352e-10
2.52387e-10
1.49315e-10
1.21369e-10
2.21006e-10
2.55078e-10
2.7565e-10
2.48265e-10
2.46061e-10
2.45012e-10
2.37172e-10
2.41014e-10
2.36079e-10
2.32437e-10
2.46653e-10
2.29246e-10
2.58612e-10
2.26167e-10
2.90596e-10
2.24334e-10
3.37657e-10
1.67305e-10
1.14787e-10
8.87847e-11
1.45579e-10
1.57178e-10
1.6866e-10
1.50041e-10
1.48498e-10
1.47615e-10
1.42587e-10
1.45232e-10
1.41884e-10
1.39484e-10
1.48923e-10
1.37322e-10
1.57079e-10
1.35301e-10
1.78538e-10
1.34598e-10
2.08231e-10
1.06804e-10
8.40073e-11
5.9915e-11
8.9422e-11
9.07513e-11
9.68125e-11
8.50872e-11
8.41011e-11
8.34718e-11
8.04482e-11
8.21401e-11
8.00265e-11
7.85509e-11
8.43945e-11
7.71832e-11
8.94949e-11
7.59423e-11
1.02917e-10
7.57706e-11
1.24543e-10
6.39389e-11
5.77753e-11
3.71776e-11
5.10329e-11
4.89372e-11
5.1947e-11
4.51279e-11
4.45518e-11
4.41598e-11
4.24587e-11
4.34606e-11
4.22223e-11
4.13819e-11
4.47425e-11
4.05791e-11
4.76711e-11
3.98703e-11
5.54519e-11
3.98972e-11
6.96455e-11
3.57291e-11
3.729e-11
2.03569e-11
2.21447e-11
1.99218e-11
2.36922e-11
1.95468e-11
2.78537e-11
1.96126e-11
3.62742e-11
1.85691e-11
2.23576e-11
)
;

boundaryField
{
    fuel
    {
        type            fixedValue;
        value           nonuniform 0();
    }
    wall
    {
        type            zeroGradient;
    }
    outlet
    {
        type            zeroGradient;
    }
    frontAndBack
    {
        type            empty;
    }
    procBoundary0to1
    {
        type            processor;
        value           nonuniform List<scalar> 
21
(
2.11681e-11
2.69904e-11
2.4591e-11
2.59946e-11
2.23411e-11
2.20328e-11
2.18135e-11
2.09218e-11
2.14699e-11
2.0798e-11
2.0798e-11
9.34792e-12
1.02252e-11
9.1309e-12
1.09801e-11
8.94746e-12
1.30284e-11
8.99729e-12
1.75615e-11
8.95879e-12
1.23915e-11
)
;
    }
    procBoundary0to2
    {
        type            processor;
        value           nonuniform List<scalar> 
12
(
2.91499e-09
1.96259e-10
9.74138e-10
2.11054e-09
2.56676e-09
2.54399e-09
2.53927e-09
2.53245e-09
2.51315e-09
2.52021e-09
2.50647e-09
2.50647e-09
)
;
    }
    procBoundary0to3
    {
        type            processor;
        value           nonuniform List<scalar> 10(3.30921e-09 3.35363e-09 3.30141e-09 3.41054e-09 3.27866e-09 3.52484e-09 3.14365e-09 3.07422e-09 1.45149e-09 9.43163e-10);
    }
}


// ************************************************************************* //
