/*--------------------------------*- C++ -*----------------------------------*\
| =========                 |                                                 |
| \\      /  F ield         | OpenFOAM: The Open Source CFD Toolbox           |
|  \\    /   O peration     | Version:  dev                                   |
|   \\  /    A nd           | Web:      www.OpenFOAM.org                      |
|    \\/     M anipulation  |                                                 |
\*---------------------------------------------------------------------------*/
FoamFile
{
    version     2.0;
    format      ascii;
    class       volScalarField;
    location    "0.195";
    object      C6H;
}
// * * * * * * * * * * * * * * * * * * * * * * * * * * * * * * * * * * * * * //

dimensions      [0 0 0 0 0 0 0];

internalField   nonuniform List<scalar> 
250
(
1.04268e-10
1.04868e-10
1.04727e-10
1.05272e-10
1.05568e-10
1.06905e-10
1.13766e-10
1.14442e-10
1.04383e-10
3.25773e-11
9.16608e-11
9.2201e-11
9.19986e-11
9.26076e-11
9.29094e-11
9.40712e-11
1.00393e-10
1.01537e-10
9.59495e-11
3.59173e-11
1.07585e-10
8.66905e-11
1.00978e-10
8.17067e-11
8.69332e-11
7.8909e-11
8.25641e-11
7.93374e-11
8.08709e-11
7.94642e-11
7.9995e-11
8.04816e-11
8.02492e-11
8.08894e-11
8.1185e-11
8.2185e-11
8.79672e-11
8.93355e-11
8.74474e-11
3.84834e-11
8.95616e-11
7.54299e-11
8.76664e-11
7.05766e-11
7.54728e-11
6.81778e-11
7.15234e-11
6.85379e-11
6.99957e-11
6.86888e-11
6.91713e-11
6.96084e-11
6.93689e-11
7.00145e-11
7.02951e-11
7.11488e-11
7.63835e-11
7.77997e-11
7.81837e-11
3.99455e-11
7.47214e-11
6.48992e-11
7.5353e-11
6.02333e-11
6.48319e-11
5.82061e-11
6.12674e-11
5.85192e-11
5.98936e-11
5.86861e-11
5.91205e-11
5.95094e-11
5.92792e-11
5.991e-11
6.01694e-11
6.08961e-11
6.55701e-11
6.69292e-11
6.8258e-11
4.00921e-11
6.14994e-11
5.43049e-11
6.39602e-11
5.06501e-11
5.49629e-11
4.89588e-11
5.1753e-11
4.92417e-11
5.05253e-11
4.94177e-11
4.98052e-11
5.01444e-11
4.99357e-11
5.05352e-11
5.07693e-11
5.13876e-11
5.54911e-11
5.67426e-11
5.94811e-11
3.88784e-11
5.00624e-11
4.51696e-11
5.34582e-11
4.18219e-11
4.58635e-11
4.0433e-11
4.29697e-11
4.07005e-11
4.18835e-11
4.08789e-11
4.12209e-11
4.15062e-11
4.13296e-11
4.18837e-11
4.20895e-11
4.26169e-11
4.61442e-11
4.72708e-11
5.05876e-11
3.63644e-11
4.02258e-11
3.68284e-11
4.38444e-11
3.37715e-11
3.70115e-11
3.26564e-11
3.49435e-11
3.29255e-11
3.39957e-11
3.30992e-11
3.33978e-11
3.36189e-11
3.34889e-11
3.39837e-11
3.41594e-11
3.46145e-11
3.7558e-11
3.85769e-11
4.22152e-11
3.2757e-11
3.24049e-11
2.93409e-11
3.51461e-11
2.6565e-11
2.94497e-11
2.56837e-11
2.74988e-11
2.57405e-11
2.67005e-11
2.59119e-11
2.61508e-11
2.65312e-11
2.6227e-11
2.66892e-11
2.68375e-11
2.71545e-11
2.97957e-11
3.05361e-11
3.4253e-11
2.83596e-11
2.55355e-11
2.23337e-11
2.72381e-11
2.02609e-11
2.27466e-11
1.95829e-11
2.11257e-11
1.96419e-11
2.04643e-11
1.97959e-11
1.99933e-11
2.03092e-11
2.00554e-11
2.04441e-11
2.05627e-11
2.08162e-11
2.29385e-11
2.30986e-11
2.69143e-11
2.35397e-11
1.9795e-11
1.66576e-11
2.03988e-11
1.49115e-11
1.69717e-11
1.44072e-11
1.56729e-11
1.4464e-11
1.51439e-11
1.45966e-11
1.47545e-11
1.50081e-11
1.48031e-11
1.51179e-11
1.52089e-11
1.5403e-11
1.70555e-11
1.71594e-11
2.04019e-11
1.86787e-11
1.47142e-11
1.19572e-11
1.47254e-11
1.05412e-11
1.21722e-11
1.01803e-11
1.1175e-11
1.02307e-11
1.07691e-11
1.03393e-11
1.04608e-11
1.06566e-11
1.04971e-11
1.0741e-11
1.08076e-11
1.09492e-11
1.21877e-11
1.22403e-11
1.4847e-11
1.41218e-11
1.06272e-11
8.21602e-12
1.0203e-11
7.12543e-12
8.35223e-12
6.87921e-12
7.62274e-12
6.92071e-12
7.32587e-12
7.00476e-12
7.09383e-12
7.23833e-12
7.11978e-12
7.29927e-12
7.34569e-12
7.44354e-12
8.3309e-12
8.3458e-12
1.03219e-11
1.01363e-11
4.58209e-12
4.68371e-12
4.59984e-12
4.72474e-12
4.75533e-12
4.81916e-12
5.42333e-12
5.41572e-12
6.8233e-12
6.88245e-12
)
;

boundaryField
{
    fuel
    {
        type            fixedValue;
        value           nonuniform 0();
    }
    wall
    {
        type            zeroGradient;
    }
    outlet
    {
        type            zeroGradient;
    }
    frontAndBack
    {
        type            empty;
    }
    procBoundary0to1
    {
        type            processor;
        value           nonuniform List<scalar> 
21
(
7.32946e-12
5.37882e-12
6.74402e-12
4.58727e-12
5.45847e-12
4.42766e-12
4.95347e-12
4.45913e-12
4.74742e-12
4.5203e-12
4.5203e-12
2.80699e-12
2.87471e-12
2.81857e-12
2.90037e-12
2.9194e-12
2.95852e-12
3.34743e-12
3.33009e-12
4.26827e-12
4.40267e-12
)
;
    }
    procBoundary0to2
    {
        type            processor;
        value           nonuniform List<scalar> 
12
(
1.03636e-10
1.30026e-10
1.01092e-10
1.1529e-10
9.37268e-11
9.92843e-11
9.04704e-11
9.44697e-11
9.09869e-11
9.25943e-11
9.10803e-11
9.10803e-11
)
;
    }
    procBoundary0to3
    {
        type            processor;
        value           nonuniform List<scalar> 10(1.17944e-10 1.18609e-10 1.18575e-10 1.19012e-10 1.19285e-10 1.20807e-10 1.282e-10 1.29683e-10 1.12706e-10 2.87775e-11);
    }
}


// ************************************************************************* //
