/*--------------------------------*- C++ -*----------------------------------*\
| =========                 |                                                 |
| \\      /  F ield         | OpenFOAM: The Open Source CFD Toolbox           |
|  \\    /   O peration     | Version:  dev                                   |
|   \\  /    A nd           | Web:      www.OpenFOAM.org                      |
|    \\/     M anipulation  |                                                 |
\*---------------------------------------------------------------------------*/
FoamFile
{
    version     2.0;
    format      ascii;
    class       volScalarField;
    location    "0.195";
    object      H2C4O;
}
// * * * * * * * * * * * * * * * * * * * * * * * * * * * * * * * * * * * * * //

dimensions      [0 0 0 0 0 0 0];

internalField   nonuniform List<scalar> 
250
(
1.16132e-06
1.16331e-06
1.16365e-06
1.1651e-06
1.16673e-06
1.17753e-06
1.23313e-06
1.3409e-06
1.71438e-06
1.62806e-06
1.11038e-06
1.11219e-06
1.11215e-06
1.11395e-06
1.11564e-06
1.12561e-06
1.17747e-06
1.27624e-06
1.61171e-06
1.59208e-06
2.39645e-06
1.47865e-06
1.29012e-06
1.10177e-06
1.10021e-06
1.06011e-06
1.07529e-06
1.06186e-06
1.06758e-06
1.06192e-06
1.0645e-06
1.06616e-06
1.06589e-06
1.06791e-06
1.06961e-06
1.07875e-06
1.12699e-06
1.21688e-06
1.51881e-06
1.54552e-06
2.22107e-06
1.39723e-06
1.22794e-06
1.05733e-06
1.05556e-06
1.01922e-06
1.03283e-06
1.02061e-06
1.02589e-06
1.02074e-06
1.02308e-06
1.02459e-06
1.02421e-06
1.02636e-06
1.02803e-06
1.03639e-06
1.08111e-06
1.16238e-06
1.42804e-06
1.4916e-06
2.05327e-06
1.32188e-06
1.1708e-06
1.01683e-06
1.01507e-06
9.82096e-07
9.94332e-07
9.83179e-07
9.88074e-07
9.83369e-07
9.85469e-07
9.86848e-07
9.86431e-07
9.88658e-07
9.90281e-07
9.97953e-07
1.03917e-06
1.11235e-06
1.34e-06
1.43319e-06
1.88354e-06
1.24579e-06
1.11819e-06
9.79577e-07
9.78132e-07
9.48027e-07
9.59116e-07
9.48889e-07
9.53445e-07
9.49126e-07
9.51e-07
9.52254e-07
9.51857e-07
9.54121e-07
9.55685e-07
9.6277e-07
1.00054e-06
1.06632e-06
1.26879e-06
1.37282e-06
1.72188e-06
1.17968e-06
1.06949e-06
9.44837e-07
9.44097e-07
9.16279e-07
9.26474e-07
9.1701e-07
9.21296e-07
9.1729e-07
9.18959e-07
9.20081e-07
9.1975e-07
9.22029e-07
9.23528e-07
9.30137e-07
9.64534e-07
1.02363e-06
1.20162e-06
1.31183e-06
1.57275e-06
1.11808e-06
1.024e-06
9.11802e-07
9.10017e-07
8.86067e-07
8.9566e-07
8.86784e-07
8.90878e-07
8.87108e-07
8.88603e-07
8.8956e-07
8.89353e-07
8.91626e-07
8.9306e-07
8.99323e-07
9.30375e-07
9.83584e-07
1.14119e-06
1.25111e-06
1.44836e-06
1.06045e-06
9.80901e-07
8.79716e-07
8.78959e-07
8.56582e-07
8.64883e-07
8.56378e-07
8.60452e-07
8.56797e-07
8.58074e-07
8.59884e-07
8.58801e-07
8.61233e-07
8.62615e-07
8.68236e-07
8.97341e-07
9.44311e-07
1.0843e-06
1.19101e-06
1.33474e-06
1.00209e-06
9.38302e-07
8.47734e-07
8.48213e-07
8.2702e-07
8.3508e-07
8.2681e-07
8.3088e-07
8.27296e-07
8.28456e-07
8.30245e-07
8.29163e-07
8.31609e-07
8.32927e-07
8.3819e-07
8.64642e-07
9.03802e-07
1.03009e-06
1.13155e-06
1.2351e-06
9.48836e-07
8.96256e-07
8.15025e-07
8.16946e-07
7.96561e-07
8.04577e-07
7.96367e-07
8.00532e-07
7.96935e-07
7.98016e-07
7.99818e-07
7.98701e-07
8.01175e-07
8.02429e-07
8.07319e-07
8.3145e-07
8.65839e-07
9.77659e-07
1.07247e-06
1.13997e-06
8.96618e-07
8.54292e-07
7.80804e-07
7.84333e-07
7.64415e-07
7.72569e-07
7.64264e-07
7.68615e-07
7.64929e-07
7.65965e-07
7.67807e-07
7.66628e-07
7.69139e-07
7.70328e-07
7.74832e-07
7.96938e-07
8.26794e-07
9.25962e-07
1.01332e-06
1.05412e-06
8.44467e-07
8.11532e-07
7.4431e-07
7.49568e-07
7.29829e-07
7.38278e-07
7.29742e-07
7.34356e-07
7.30516e-07
7.31539e-07
7.33446e-07
7.3218e-07
7.34733e-07
7.35856e-07
7.39965e-07
7.60316e-07
7.85903e-07
8.73975e-07
9.53506e-07
6.93962e-07
6.95959e-07
6.94584e-07
6.97182e-07
6.98239e-07
7.01949e-07
7.2079e-07
7.42379e-07
8.20708e-07
8.92351e-07
)
;

boundaryField
{
    fuel
    {
        type            fixedValue;
        value           nonuniform 0();
    }
    wall
    {
        type            zeroGradient;
    }
    outlet
    {
        type            zeroGradient;
    }
    frontAndBack
    {
        type            empty;
    }
    procBoundary0to1
    {
        type            processor;
        value           nonuniform List<scalar> 
21
(
9.72281e-07
7.9139e-07
7.66925e-07
7.0477e-07
7.11847e-07
6.92035e-07
7.00921e-07
6.92033e-07
6.96976e-07
6.92927e-07
6.92927e-07
6.52389e-07
6.54501e-07
6.52996e-07
6.55642e-07
6.56634e-07
6.59944e-07
6.77506e-07
6.95363e-07
7.65138e-07
8.29044e-07
)
;
    }
    procBoundary0to2
    {
        type            processor;
        value           nonuniform List<scalar> 
12
(
1.15825e-06
2.57636e-06
1.581e-06
1.35778e-06
1.15076e-06
1.14962e-06
1.10539e-06
1.12234e-06
1.1076e-06
1.11375e-06
1.10755e-06
1.10755e-06
)
;
    }
    procBoundary0to3
    {
        type            processor;
        value           nonuniform List<scalar> 10(1.21792e-06 1.22009e-06 1.221e-06 1.22197e-06 1.22346e-06 1.23509e-06 1.29451e-06 1.41933e-06 1.82694e-06 1.64982e-06);
    }
}


// ************************************************************************* //
