/*--------------------------------*- C++ -*----------------------------------*\
| =========                 |                                                 |
| \\      /  F ield         | OpenFOAM: The Open Source CFD Toolbox           |
|  \\    /   O peration     | Version:  dev                                   |
|   \\  /    A nd           | Web:      www.OpenFOAM.org                      |
|    \\/     M anipulation  |                                                 |
\*---------------------------------------------------------------------------*/
FoamFile
{
    version     2.0;
    format      ascii;
    class       volScalarField;
    location    "0.195";
    object      HCCOH;
}
// * * * * * * * * * * * * * * * * * * * * * * * * * * * * * * * * * * * * * //

dimensions      [0 0 0 0 0 0 0];

internalField   nonuniform List<scalar> 
50
(
1.25196e-05
1.90155e-05
2.00194e-05
1.87271e-05
1.65211e-05
1.40614e-05
1.16828e-05
9.52969e-06
7.66153e-06
6.08555e-06
4.78913e-06
3.73955e-06
2.90867e-06
2.24844e-06
1.72775e-06
1.32236e-06
1.00818e-06
7.65913e-07
5.81681e-07
4.40787e-07
3.33444e-07
2.51929e-07
1.8963e-07
1.43005e-07
1.07829e-07
8.13336e-08
6.12899e-08
4.616e-08
3.48903e-08
2.63798e-08
1.99437e-08
1.50977e-08
1.14797e-08
8.724e-09
6.64217e-09
5.06704e-09
3.87319e-09
2.96667e-09
2.277e-09
1.75128e-09
1.34974e-09
1.04243e-09
8.0677e-10
6.25681e-10
4.86245e-10
3.78652e-10
2.95435e-10
2.30888e-10
1.80622e-10
1.41231e-10
)
;

boundaryField
{
    wall
    {
        type            zeroGradient;
    }
    fuel
    {
        type            fixedValue;
        value           uniform 0;
    }
    outlet
    {
        type            inletOutlet;
        inletValue      nonuniform 0();
        value           nonuniform 0();
    }
    procBoundary0to1
    {
        type            processor;
        value           uniform 1.10603e-10;
    }
}


// ************************************************************************* //
