/*--------------------------------*- C++ -*----------------------------------*\
| =========                 |                                                 |
| \\      /  F ield         | OpenFOAM: The Open Source CFD Toolbox           |
|  \\    /   O peration     | Version:  dev                                   |
|   \\  /    A nd           | Web:      www.OpenFOAM.org                      |
|    \\/     M anipulation  |                                                 |
\*---------------------------------------------------------------------------*/
FoamFile
{
    version     2.0;
    format      ascii;
    class       volScalarField;
    location    "0.195";
    object      HO2;
}
// * * * * * * * * * * * * * * * * * * * * * * * * * * * * * * * * * * * * * //

dimensions      [0 0 0 0 0 0 0];

internalField   nonuniform List<scalar> 
50
(
7.57693e-08
1.06857e-07
1.11153e-07
1.05106e-07
9.52108e-08
8.41729e-08
7.25922e-08
6.11492e-08
5.1178e-08
4.27517e-08
3.58206e-08
3.03422e-08
2.61696e-08
2.30148e-08
2.06815e-08
1.89798e-08
1.77302e-08
1.68125e-08
1.61393e-08
1.56318e-08
1.52387e-08
1.49228e-08
1.4655e-08
1.44215e-08
1.42071e-08
1.40029e-08
1.38021e-08
1.36012e-08
1.34005e-08
1.31957e-08
1.29858e-08
1.27715e-08
1.25551e-08
1.23325e-08
1.2106e-08
1.18762e-08
1.16434e-08
1.1408e-08
1.11705e-08
1.09313e-08
1.06909e-08
1.04497e-08
1.02081e-08
9.96643e-09
9.72508e-09
9.48438e-09
9.24465e-09
9.00617e-09
8.76922e-09
8.53405e-09
)
;

boundaryField
{
    wall
    {
        type            zeroGradient;
    }
    fuel
    {
        type            fixedValue;
        value           uniform 0;
    }
    outlet
    {
        type            inletOutlet;
        inletValue      nonuniform 0();
        value           nonuniform 0();
    }
    procBoundary0to1
    {
        type            processor;
        value           uniform 8.30092e-09;
    }
}


// ************************************************************************* //
