/*--------------------------------*- C++ -*----------------------------------*\
| =========                 |                                                 |
| \\      /  F ield         | OpenFOAM: The Open Source CFD Toolbox           |
|  \\    /   O peration     | Version:  dev                                   |
|   \\  /    A nd           | Web:      www.OpenFOAM.org                      |
|    \\/     M anipulation  |                                                 |
\*---------------------------------------------------------------------------*/
FoamFile
{
    version     2.0;
    format      ascii;
    class       volScalarField;
    location    "0.195";
    object      n-A1C2H2;
}
// * * * * * * * * * * * * * * * * * * * * * * * * * * * * * * * * * * * * * //

dimensions      [0 0 0 0 0 0 0];

internalField   nonuniform List<scalar> 
250
(
1.30394e-11
1.3074e-11
1.30255e-11
1.3146e-11
1.29961e-11
1.35466e-11
1.40714e-11
1.97021e-11
4.46125e-11
2.66421e-10
1.27212e-11
1.27437e-11
1.27103e-11
1.27982e-11
1.26897e-11
1.314e-11
1.36935e-11
1.87169e-11
4.1499e-11
2.54807e-10
6.37256e-11
3.51163e-11
1.67702e-11
1.35413e-11
1.27217e-11
1.25569e-11
1.25397e-11
1.25575e-11
1.25405e-11
1.25629e-11
1.25335e-11
1.25443e-11
1.25263e-11
1.25811e-11
1.25138e-11
1.28684e-11
1.34506e-11
1.79343e-11
3.83006e-11
2.3703e-10
5.42516e-11
3.12348e-11
1.62371e-11
1.33794e-11
1.26398e-11
1.24864e-11
1.24704e-11
1.24887e-11
1.24706e-11
1.24936e-11
1.24712e-11
1.24708e-11
1.24681e-11
1.24906e-11
1.24632e-11
1.27256e-11
1.3337e-11
1.73067e-11
3.5388e-11
2.15131e-10
4.68795e-11
2.79617e-11
1.58728e-11
1.33429e-11
1.26769e-11
1.25346e-11
1.25202e-11
1.25388e-11
1.2519e-11
1.25427e-11
1.2527e-11
1.25163e-11
1.25281e-11
1.25207e-11
1.25301e-11
1.27068e-11
1.33441e-11
1.68305e-11
3.26956e-11
1.90965e-10
4.10829e-11
2.56517e-11
1.56635e-11
1.34211e-11
1.28231e-11
1.26907e-11
1.26782e-11
1.26965e-11
1.26748e-11
1.26991e-11
1.26895e-11
1.26698e-11
1.26945e-11
1.2661e-11
1.27026e-11
1.28039e-11
1.34594e-11
1.64973e-11
3.00996e-11
1.63912e-10
3.64994e-11
2.37992e-11
1.55881e-11
1.3598e-11
1.30625e-11
1.29386e-11
1.29277e-11
1.29452e-11
1.29218e-11
1.29465e-11
1.2942e-11
1.2915e-11
1.29502e-11
1.28956e-11
1.29633e-11
1.30031e-11
1.36642e-11
1.62946e-11
2.79605e-11
1.38304e-10
3.28766e-11
2.24158e-11
1.56194e-11
1.38517e-11
1.33724e-11
1.32554e-11
1.32459e-11
1.32617e-11
1.32373e-11
1.32619e-11
1.32612e-11
1.32293e-11
1.32715e-11
1.32027e-11
1.32881e-11
1.32998e-11
1.39336e-11
1.6204e-11
2.61e-11
1.15107e-10
3.00165e-11
2.13661e-11
1.57239e-11
1.41555e-11
1.37325e-11
1.36209e-11
1.36044e-11
1.3627e-11
1.3602e-11
1.36268e-11
1.36276e-11
1.35848e-11
1.36384e-11
1.35645e-11
1.36563e-11
1.36343e-11
1.42383e-11
1.62022e-11
2.45144e-11
9.44471e-11
2.77584e-11
2.05707e-11
1.58676e-11
1.44796e-11
1.40941e-11
1.39891e-11
1.39741e-11
1.39916e-11
1.39675e-11
1.39905e-11
1.39924e-11
1.39529e-11
1.4003e-11
1.39331e-11
1.40215e-11
1.39949e-11
1.45498e-11
1.62625e-11
2.30461e-11
7.87095e-11
2.59715e-11
1.99637e-11
1.60235e-11
1.48003e-11
1.44459e-11
1.43476e-11
1.43332e-11
1.43457e-11
1.43234e-11
1.4344e-11
1.4346e-11
1.43122e-11
1.43555e-11
1.42968e-11
1.43733e-11
1.43573e-11
1.48483e-11
1.63457e-11
2.18889e-11
6.55853e-11
2.4558e-11
1.95012e-11
1.61829e-11
1.51103e-11
1.47837e-11
1.46924e-11
1.46787e-11
1.46868e-11
1.46665e-11
1.46852e-11
1.46868e-11
1.4659e-11
1.46947e-11
1.46493e-11
1.47111e-11
1.47123e-11
1.5134e-11
1.6451e-11
2.09271e-11
5.47654e-11
2.34631e-11
1.91749e-11
1.63703e-11
1.54331e-11
1.51362e-11
1.50525e-11
1.50401e-11
1.50458e-11
1.50266e-11
1.50449e-11
1.50463e-11
1.50218e-11
1.50532e-11
1.5016e-11
1.50684e-11
1.50803e-11
1.54414e-11
1.65911e-11
2.01757e-11
4.61975e-11
1.55088e-11
1.54802e-11
1.55164e-11
1.54731e-11
1.55318e-11
1.55308e-11
1.58582e-11
1.68228e-11
1.96978e-11
3.9513e-11
)
;

boundaryField
{
    fuel
    {
        type            fixedValue;
        value           nonuniform 0();
    }
    wall
    {
        type            zeroGradient;
    }
    outlet
    {
        type            zeroGradient;
    }
    frontAndBack
    {
        type            empty;
    }
    procBoundary0to1
    {
        type            processor;
        value           nonuniform List<scalar> 
21
(
2.26913e-11
1.90281e-11
1.6661e-11
1.58422e-11
1.55834e-11
1.55081e-11
1.54984e-11
1.55054e-11
1.54846e-11
1.55062e-11
1.55062e-11
1.62337e-11
1.61892e-11
1.62453e-11
1.61718e-11
1.62638e-11
1.62075e-11
1.65484e-11
1.72727e-11
1.96314e-11
3.45367e-11
)
;
    }
    procBoundary0to2
    {
        type            processor;
        value           nonuniform List<scalar> 
12
(
1.30827e-11
7.6126e-11
3.95457e-11
1.74829e-11
1.38349e-11
1.29299e-11
1.2753e-11
1.27352e-11
1.27525e-11
1.27356e-11
1.27577e-11
1.27577e-11
)
;
    }
    procBoundary0to3
    {
        type            processor;
        value           nonuniform List<scalar> 10(1.34932e-11 1.35401e-11 1.34773e-11 1.36292e-11 1.34382e-11 1.40869e-11 1.45891e-11 2.08021e-11 4.83856e-11 2.70027e-10);
    }
}


// ************************************************************************* //
