/*--------------------------------*- C++ -*----------------------------------*\
| =========                 |                                                 |
| \\      /  F ield         | OpenFOAM: The Open Source CFD Toolbox           |
|  \\    /   O peration     | Version:  dev                                   |
|   \\  /    A nd           | Web:      www.OpenFOAM.org                      |
|    \\/     M anipulation  |                                                 |
\*---------------------------------------------------------------------------*/
FoamFile
{
    version     2.0;
    format      ascii;
    class       volScalarField;
    location    "0.195";
    object      P2;
}
// * * * * * * * * * * * * * * * * * * * * * * * * * * * * * * * * * * * * * //

dimensions      [0 0 0 0 0 0 0];

internalField   nonuniform List<scalar> 
250
(
1.85078e-10
1.8484e-10
1.85462e-10
1.8504e-10
1.85364e-10
1.89147e-10
2.10577e-10
3.24271e-10
1.65443e-09
3.87755e-09
1.84504e-10
1.84179e-10
1.84769e-10
1.84261e-10
1.84576e-10
1.88145e-10
2.0753e-10
3.07787e-10
1.3314e-09
3.21812e-09
3.7145e-08
1.59576e-09
3.29869e-10
2.11495e-10
1.91026e-10
1.87928e-10
1.86875e-10
1.87696e-10
1.86796e-10
1.87332e-10
1.87438e-10
1.87012e-10
1.87618e-10
1.86978e-10
1.87268e-10
1.90641e-10
2.0818e-10
2.97472e-10
1.09565e-09
2.65884e-09
3.41139e-08
1.47054e-09
3.24187e-10
2.17726e-10
1.95654e-10
1.95094e-10
1.92758e-10
1.9467e-10
1.93188e-10
1.94213e-10
1.94154e-10
1.93615e-10
1.94274e-10
1.93458e-10
1.93715e-10
1.9692e-10
2.12751e-10
2.93177e-10
9.13795e-10
2.2013e-09
2.99955e-08
1.34814e-09
3.23383e-10
2.28308e-10
2.04281e-10
2.06446e-10
2.02702e-10
2.058e-10
2.03664e-10
2.05225e-10
2.04986e-10
2.04329e-10
2.05063e-10
2.04036e-10
2.04255e-10
2.07333e-10
2.21544e-10
2.94912e-10
7.77784e-10
1.83982e-09
2.50305e-08
1.22258e-09
3.27638e-10
2.43532e-10
2.17239e-10
2.22315e-10
2.17045e-10
2.21403e-10
2.18553e-10
2.20691e-10
2.20256e-10
2.19491e-10
2.20304e-10
2.19039e-10
2.19224e-10
2.22214e-10
2.34885e-10
3.02724e-10
6.94717e-10
1.56359e-09
1.99822e-08
1.11599e-09
3.37104e-10
2.6355e-10
2.34792e-10
2.42895e-10
2.36024e-10
2.41666e-10
2.38075e-10
2.40803e-10
2.40166e-10
2.39317e-10
2.40193e-10
2.38684e-10
2.38843e-10
2.41777e-10
2.53011e-10
3.16469e-10
6.39227e-10
1.35865e-09
1.53924e-08
1.02374e-09
3.51689e-10
2.88218e-10
2.58683e-10
2.68088e-10
2.59638e-10
2.66496e-10
2.62195e-10
2.65482e-10
2.64648e-10
2.63755e-10
2.64658e-10
2.6293e-10
2.63079e-10
2.65982e-10
2.75921e-10
3.35765e-10
6.0767e-10
1.2111e-09
1.18385e-08
9.47778e-10
3.70977e-10
3.16857e-10
2.85631e-10
2.97321e-10
2.8849e-10
2.96452e-10
2.91436e-10
2.95255e-10
2.94328e-10
2.92315e-10
2.94316e-10
2.9223e-10
2.92369e-10
2.95569e-10
3.03239e-10
3.60601e-10
5.93043e-10
1.1082e-09
8.96267e-09
8.82918e-10
3.94757e-10
3.48274e-10
3.16128e-10
3.29421e-10
3.19753e-10
3.28373e-10
3.2295e-10
3.27082e-10
3.2605e-10
3.23919e-10
3.26027e-10
3.23823e-10
3.23993e-10
3.27204e-10
3.33943e-10
3.90854e-10
5.90956e-10
1.03869e-09
6.81526e-09
8.33444e-10
4.21201e-10
3.80726e-10
3.48714e-10
3.62679e-10
3.52684e-10
3.6149e-10
3.55936e-10
3.60165e-10
3.59094e-10
3.56942e-10
3.59068e-10
3.56848e-10
3.5707e-10
3.60281e-10
3.66442e-10
4.2061e-10
5.97124e-10
9.92701e-10
5.12846e-09
7.92574e-10
4.47763e-10
4.12106e-10
3.81434e-10
3.95017e-10
3.85294e-10
3.93755e-10
3.88385e-10
3.92472e-10
3.91436e-10
3.89355e-10
3.9141e-10
3.89286e-10
3.89576e-10
3.92759e-10
3.98695e-10
4.4981e-10
6.07534e-10
9.6164e-10
3.91146e-09
7.57528e-10
4.72313e-10
4.4031e-10
4.12127e-10
4.24341e-10
4.15464e-10
4.23084e-10
4.18201e-10
4.21918e-10
4.20988e-10
4.19056e-10
4.20961e-10
4.19034e-10
4.19397e-10
4.22508e-10
4.28503e-10
4.76148e-10
6.18468e-10
9.38183e-10
4.46001e-10
4.44269e-10
4.45965e-10
4.44307e-10
4.44736e-10
4.4772e-10
4.53934e-10
4.97681e-10
6.26818e-10
9.1653e-10
)
;

boundaryField
{
    fuel
    {
        type            fixedValue;
        value           nonuniform 0();
    }
    wall
    {
        type            zeroGradient;
    }
    outlet
    {
        type            zeroGradient;
    }
    frontAndBack
    {
        type            empty;
    }
    procBoundary0to1
    {
        type            processor;
        value           nonuniform List<scalar> 
21
(
3.00593e-09
7.2583e-10
4.93048e-10
4.63633e-10
4.38831e-10
4.48935e-10
4.41346e-10
4.47759e-10
4.43593e-10
4.46771e-10
4.46771e-10
4.65405e-10
4.63892e-10
4.65352e-10
4.6399e-10
4.64469e-10
4.67266e-10
4.73703e-10
5.13213e-10
6.30461e-10
8.92704e-10
)
;
    }
    procBoundary0to2
    {
        type            processor;
        value           nonuniform List<scalar> 
12
(
1.84684e-10
3.85277e-08
1.73947e-09
3.40243e-10
2.09296e-10
1.90081e-10
1.84601e-10
1.84724e-10
1.84542e-10
1.84152e-10
1.84248e-10
1.84248e-10
)
;
    }
    procBoundary0to3
    {
        type            processor;
        value           nonuniform List<scalar> 10(1.88989e-10 1.88823e-10 1.8953e-10 1.89152e-10 1.89462e-10 1.93491e-10 2.17193e-10 3.49754e-10 2.08846e-09 4.6264e-09);
    }
}


// ************************************************************************* //
