/*--------------------------------*- C++ -*----------------------------------*\
| =========                 |                                                 |
| \\      /  F ield         | OpenFOAM: The Open Source CFD Toolbox           |
|  \\    /   O peration     | Version:  dev                                   |
|   \\  /    A nd           | Web:      www.OpenFOAM.org                      |
|    \\/     M anipulation  |                                                 |
\*---------------------------------------------------------------------------*/
FoamFile
{
    version     2.0;
    format      ascii;
    class       surfaceScalarField;
    location    "0.195";
    object      phi;
}
// * * * * * * * * * * * * * * * * * * * * * * * * * * * * * * * * * * * * * //

dimensions      [1 0 -1 0 0 0 0];

internalField   nonuniform List<scalar> 
466
(
1.27343e-07
6.02747e-06
2.70965e-07
6.39864e-06
4.2766e-07
5.85535e-06
5.66827e-07
6.68794e-06
7.32066e-07
5.69942e-06
8.65652e-07
7.09183e-06
1.07622e-06
6.2117e-06
1.16791e-06
6.9346e-06
1.54184e-06
9.56924e-06
6.88775e-06
1.32709e-07
5.87e-06
2.82217e-07
6.24916e-06
4.43018e-07
5.69374e-06
5.89371e-07
6.54159e-06
7.58042e-07
5.53045e-06
9.00644e-07
6.94833e-06
1.11397e-06
6.00181e-06
1.214e-06
6.83162e-06
1.59095e-06
9.22649e-06
6.95969e-06
-1.45934e-06
7.52172e-06
-1.29506e-06
7.20718e-06
-1.12585e-06
6.21543e-06
-9.72784e-07
6.22108e-06
-8.1487e-07
5.80227e-06
-6.56348e-07
5.84239e-06
-5.00118e-07
5.86151e-06
-3.40501e-07
5.81113e-06
-1.82125e-07
5.82272e-06
-2.35078e-08
5.88906e-06
1.3791e-07
5.70785e-06
2.93251e-07
6.0939e-06
4.5812e-07
5.52796e-06
6.11552e-07
6.38835e-06
7.83586e-07
5.35807e-06
9.34933e-07
6.79603e-06
1.15073e-06
5.78984e-06
1.25922e-06
6.71893e-06
1.6381e-06
8.86948e-06
7.00803e-06
-1.51355e-06
7.2965e-06
-1.33848e-06
7.02135e-06
-1.16217e-06
6.03611e-06
-1.00252e-06
6.05963e-06
-8.39781e-07
5.63893e-06
-6.76027e-07
5.67804e-06
-5.14798e-07
5.69954e-06
-3.50247e-07
5.64622e-06
-1.86939e-07
5.6587e-06
-2.30296e-08
5.72492e-06
1.42961e-07
5.54104e-06
3.04099e-07
5.93292e-06
4.73004e-07
5.35802e-06
6.33423e-07
6.22838e-06
8.08768e-07
5.18234e-06
9.68626e-07
6.63519e-06
1.18673e-06
5.57599e-06
1.30365e-06
6.59631e-06
1.6839e-06
8.51486e-06
7.02945e-06
-1.56715e-06
7.06685e-06
-1.38162e-06
6.82472e-06
-1.19853e-06
5.8499e-06
-1.03233e-06
5.89148e-06
-8.64767e-07
5.47075e-06
-6.95796e-07
5.50841e-06
-5.29536e-07
5.53244e-06
-3.60078e-07
5.47638e-06
-1.91839e-07
5.48968e-06
-2.26576e-08
5.55555e-06
1.47883e-07
5.3696e-06
3.148e-07
5.76626e-06
4.87716e-07
5.18394e-06
6.55055e-07
6.06181e-06
8.33663e-07
5.00329e-06
1.00184e-06
6.46597e-06
1.22212e-06
5.36042e-06
1.34763e-06
6.46341e-06
1.72887e-06
8.15982e-06
7.02201e-06
-1.62011e-06
6.83281e-06
-1.42443e-06
6.6178e-06
-1.235e-06
5.65725e-06
-1.06226e-06
5.71666e-06
-8.89883e-07
5.29772e-06
-7.15705e-07
5.3335e-06
-5.44367e-07
5.36017e-06
-3.70012e-07
5.30165e-06
-1.96828e-07
5.31563e-06
-2.23799e-08
5.38095e-06
1.52701e-07
5.19352e-06
3.25401e-07
5.59394e-06
5.02312e-07
5.00572e-06
6.76526e-07
5.88874e-06
8.58363e-07
4.82094e-06
1.03471e-06
6.28852e-06
1.25711e-06
5.14322e-06
1.39153e-06
6.31975e-06
1.77372e-06
7.80316e-06
6.98289e-06
-1.67272e-06
6.59445e-06
-1.46723e-06
6.40113e-06
-1.2717e-06
5.4585e-06
-1.09241e-06
5.53514e-06
-9.15192e-07
5.11985e-06
-7.35812e-07
5.15329e-06
-5.59328e-07
5.18272e-06
-3.8007e-07
5.12198e-06
-2.01911e-07
5.1365e-06
-2.21832e-08
5.20109e-06
1.57441e-07
5.01277e-06
3.35958e-07
5.41594e-06
5.16859e-07
4.82332e-06
6.97928e-07
5.70911e-06
8.82972e-07
4.63526e-06
1.06738e-06
6.10293e-06
1.29188e-06
4.92444e-06
1.43527e-06
6.16514e-06
1.8184e-06
7.44571e-06
6.90953e-06
-1.72507e-06
6.35157e-06
-1.51009e-06
6.17515e-06
-1.30877e-06
5.25432e-06
-1.12287e-06
5.34685e-06
-9.40779e-07
4.93708e-06
-7.56191e-07
4.96775e-06
-5.74473e-07
5.00004e-06
-3.90278e-07
4.93733e-06
-2.07095e-07
4.95218e-06
-2.20535e-08
5.01592e-06
1.62124e-07
4.82729e-06
3.46545e-07
5.23222e-06
5.31432e-07
4.63669e-06
7.19377e-07
5.52258e-06
9.07915e-07
4.44591e-06
1.10035e-06
5.90895e-06
1.32665e-06
4.70438e-06
1.4792e-06
5.9993e-06
1.86346e-06
7.08916e-06
6.8024e-06
-1.77743e-06
6.10393e-06
-1.55329e-06
5.94028e-06
-1.34639e-06
5.04565e-06
-1.15396e-06
5.15187e-06
-9.67026e-07
4.74924e-06
-7.77038e-07
4.77698e-06
-5.89947e-07
4.81207e-06
-4.00799e-07
4.74792e-06
-2.12461e-07
4.76279e-06
-2.19844e-08
4.82556e-06
1.66775e-07
4.63723e-06
3.57292e-07
5.04261e-06
5.46284e-07
4.4458e-06
7.4124e-07
5.32895e-06
9.32895e-07
4.25323e-06
1.13327e-06
5.70699e-06
1.36165e-06
4.4828e-06
1.52353e-06
5.82187e-06
1.9093e-06
6.73251e-06
6.6628e-06
-1.83012e-06
5.85123e-06
-1.59709e-06
5.69684e-06
-1.38477e-06
4.83251e-06
-1.18553e-06
4.94993e-06
-9.93577e-07
4.55633e-06
-7.98268e-07
4.58076e-06
-6.05693e-07
4.61868e-06
-4.11457e-07
4.55339e-06
-2.1791e-07
4.56802e-06
-2.19468e-08
4.62975e-06
1.71466e-07
4.44231e-06
3.68138e-07
4.84709e-06
5.61236e-07
4.25048e-06
7.63302e-07
5.12812e-06
9.58195e-07
4.05704e-06
1.16662e-06
5.49696e-06
1.39716e-06
4.25963e-06
1.56897e-06
5.6321e-06
1.95638e-06
6.37705e-06
6.49408e-06
-1.88351e-06
5.59308e-06
-1.64184e-06
5.44501e-06
-1.42415e-06
4.61483e-06
-1.21796e-06
4.74085e-06
-1.02084e-06
4.35823e-06
-8.20123e-07
4.37903e-06
-6.21877e-07
4.41964e-06
-4.22422e-07
4.35364e-06
-2.23523e-07
4.36773e-06
-2.19329e-08
4.42837e-06
1.76242e-07
4.24243e-06
3.79253e-07
4.64551e-06
5.76544e-07
4.05064e-06
7.85932e-07
4.92034e-06
9.84099e-07
3.85731e-06
1.20069e-06
5.2788e-06
1.43418e-06
4.03411e-06
1.6158e-06
5.43164e-06
2.00454e-06
6.02269e-06
6.29825e-06
-1.93805e-06
5.32904e-06
-1.68792e-06
5.18491e-06
-1.46489e-06
4.39242e-06
-1.25153e-06
4.52439e-06
-1.04905e-06
4.15475e-06
-8.42784e-07
4.17166e-06
-6.38638e-07
4.21467e-06
-4.3378e-07
4.14851e-06
-2.29342e-07
4.16175e-06
-2.19276e-08
4.22128e-06
1.8116e-07
4.03745e-06
3.90769e-07
4.43765e-06
5.92357e-07
3.84616e-06
8.09353e-07
4.70561e-06
1.01086e-06
3.65394e-06
1.23582e-06
5.05234e-06
1.47181e-06
3.8067e-06
1.66352e-06
5.21885e-06
2.05471e-06
5.66904e-06
6.0721e-06
-1.99435e-06
-1.73586e-06
-1.50739e-06
-1.2866e-06
-1.07849e-06
-8.66487e-07
-6.56152e-07
-4.45641e-07
-2.3542e-07
-2.1916e-08
1.86289e-07
3.82715e-06
4.0284e-07
4.22323e-06
6.08861e-07
3.63687e-06
8.33835e-07
4.48368e-06
1.0388e-06
3.4468e-06
1.27243e-06
4.81734e-06
1.51112e-06
3.57723e-06
1.71317e-06
4.99339e-06
2.10729e-06
5.31621e-06
5.82137e-06
1.91707e-07
4.15658e-07
6.26285e-07
8.59724e-07
1.06831e-06
1.31104e-06
1.55266e-06
1.76539e-06
2.16312e-06
)
;

boundaryField
{
    fuel
    {
        type            calculated;
        value           nonuniform 0();
    }
    wall
    {
        type            calculated;
        value           nonuniform 0();
    }
    outlet
    {
        type            calculated;
        value           nonuniform List<scalar> 
25
(
1.63791e-06
1.69913e-06
1.75986e-06
1.82017e-06
1.88021e-06
1.94014e-06
2.00022e-06
2.06074e-06
2.12212e-06
2.18486e-06
2.24963e-06
1.60565e-06
1.66816e-06
1.72867e-06
1.7879e-06
1.84639e-06
1.90471e-06
1.96295e-06
2.02157e-06
2.08108e-06
2.14109e-06
2.20245e-06
2.26568e-06
2.33133e-06
2.40029e-06
)
;
    }
    frontAndBack
    {
        type            empty;
        value           nonuniform 0();
    }
    procBoundary0to1
    {
        type            processor;
        value           nonuniform List<scalar> 
21
(
5.05856e-06
4.91653e-06
4.16499e-06
4.30027e-06
3.94564e-06
3.95846e-06
4.00345e-06
3.93779e-06
3.94984e-06
4.00824e-06
2.1885e-08
3.61125e-06
4.00184e-06
3.42256e-06
4.25408e-06
3.23566e-06
4.57341e-06
3.34554e-06
4.75486e-06
4.96401e-06
5.54657e-06
)
;
    }
    procBoundary0to2
    {
        type            processor;
        value           nonuniform List<scalar> 
12
(
2.48189e-08
-7.74205e-06
-7.38166e-06
-6.38755e-06
-6.37581e-06
-5.96073e-06
-6.00145e-06
-6.01838e-06
-5.97109e-06
-5.98175e-06
2.41019e-08
-6.04792e-06
)
;
    }
    procBoundary0to3
    {
        type            processor;
        value           nonuniform List<scalar> 10(-6.18021e-06 -6.54227e-06 -6.01273e-06 -6.82715e-06 -5.86491e-06 -7.22606e-06 -6.4192e-06 -7.0271e-06 -9.90967e-06 -6.79639e-06);
    }
}


// ************************************************************************* //
