/*--------------------------------*- C++ -*----------------------------------*\
| =========                 |                                                 |
| \\      /  F ield         | OpenFOAM: The Open Source CFD Toolbox           |
|  \\    /   O peration     | Version:  dev                                   |
|   \\  /    A nd           | Web:      www.OpenFOAM.org                      |
|    \\/     M anipulation  |                                                 |
\*---------------------------------------------------------------------------*/
FoamFile
{
    version     2.0;
    format      ascii;
    class       volScalarField;
    location    "0.14";
    object      A1C2H3;
}
// * * * * * * * * * * * * * * * * * * * * * * * * * * * * * * * * * * * * * //

dimensions      [0 0 0 0 0 0 0];

internalField   nonuniform List<scalar> 
50
(
2.08094e-21
1.96344e-21
1.85565e-21
1.7561e-21
1.66385e-21
1.57815e-21
1.49838e-21
1.43011e-21
1.36739e-21
1.30608e-21
1.248e-21
1.1942e-21
1.14425e-21
1.0976e-21
1.05373e-21
1.01603e-21
9.80858e-22
9.46367e-22
9.1552e-22
8.86931e-22
8.59532e-22
8.32256e-22
8.09222e-22
7.88026e-22
7.68488e-22
7.5041e-22
7.34115e-22
7.19553e-22
7.06682e-22
6.94259e-22
6.83248e-22
6.74113e-22
6.66993e-22
6.60558e-22
6.55436e-22
6.51185e-22
6.47769e-22
6.45008e-22
6.42628e-22
6.40079e-22
6.37274e-22
6.34625e-22
6.30964e-22
6.25907e-22
6.2005e-22
6.13045e-22
6.04415e-22
5.93995e-22
5.81603e-22
5.6703e-22
)
;

boundaryField
{
    wall
    {
        type            zeroGradient;
    }
    fuel
    {
        type            fixedValue;
        value           nonuniform 0();
    }
    outlet
    {
        type            inletOutlet;
        inletValue      nonuniform 0();
        value           nonuniform 0();
    }
    procBoundary2to1
    {
        type            processor;
        value           uniform 2.21655e-21;
    }
    procBoundary2to3
    {
        type            processor;
        value           uniform 5.51401e-22;
    }
}


// ************************************************************************* //
