/*--------------------------------*- C++ -*----------------------------------*\
| =========                 |                                                 |
| \\      /  F ield         | OpenFOAM: The Open Source CFD Toolbox           |
|  \\    /   O peration     | Version:  dev                                   |
|   \\  /    A nd           | Web:      www.OpenFOAM.org                      |
|    \\/     M anipulation  |                                                 |
\*---------------------------------------------------------------------------*/
FoamFile
{
    version     2.0;
    format      ascii;
    class       volScalarField;
    location    "0.14";
    object      A2C2HB;
}
// * * * * * * * * * * * * * * * * * * * * * * * * * * * * * * * * * * * * * //

dimensions      [0 0 0 0 0 0 0];

internalField   nonuniform List<scalar> 
50
(
1.87238e-20
1.7185e-20
1.58097e-20
1.4573e-20
1.34568e-20
1.24462e-20
1.15285e-20
1.07576e-20
1.00635e-20
9.4004e-21
8.78524e-21
8.2255e-21
7.71374e-21
7.24227e-21
6.804e-21
6.42844e-21
6.0794e-21
5.73916e-21
5.43398e-21
5.14972e-21
4.87613e-21
4.60256e-21
4.36676e-21
4.14514e-21
3.93579e-21
3.73668e-21
3.55033e-21
3.37578e-21
3.2125e-21
3.04618e-21
2.88777e-21
2.74165e-21
2.61289e-21
2.48322e-21
2.36394e-21
2.24992e-21
2.1427e-21
2.04186e-21
1.94643e-21
1.8491e-21
1.75516e-21
1.67625e-21
1.5965e-21
1.51755e-21
1.44699e-21
1.38329e-21
1.32252e-21
1.26484e-21
1.21004e-21
1.15753e-21
)
;

boundaryField
{
    wall
    {
        type            zeroGradient;
    }
    fuel
    {
        type            fixedValue;
        value           nonuniform 0();
    }
    outlet
    {
        type            inletOutlet;
        inletValue      nonuniform 0();
        value           nonuniform 0();
    }
    procBoundary2to1
    {
        type            processor;
        value           uniform 2.05469e-20;
    }
    procBoundary2to3
    {
        type            processor;
        value           uniform 1.10938e-21;
    }
}


// ************************************************************************* //
