/*--------------------------------*- C++ -*----------------------------------*\
| =========                 |                                                 |
| \\      /  F ield         | OpenFOAM: The Open Source CFD Toolbox           |
|  \\    /   O peration     | Version:  dev                                   |
|   \\  /    A nd           | Web:      www.OpenFOAM.org                      |
|    \\/     M anipulation  |                                                 |
\*---------------------------------------------------------------------------*/
FoamFile
{
    version     2.0;
    format      ascii;
    class       volScalarField;
    location    "0.14";
    object      c-C6H7;
}
// * * * * * * * * * * * * * * * * * * * * * * * * * * * * * * * * * * * * * //

dimensions      [0 0 0 0 0 0 0];

internalField   nonuniform List<scalar> 
50
(
2.27966e-22
2.17441e-22
2.07791e-22
1.98926e-22
1.90781e-22
1.83303e-22
1.76453e-22
1.70728e-22
1.65592e-22
1.60678e-22
1.5615e-22
1.52098e-22
1.48486e-22
1.45266e-22
1.42401e-22
1.40124e-22
1.3817e-22
1.36417e-22
1.3505e-22
1.33987e-22
1.33172e-22
1.32583e-22
1.32367e-22
1.32443e-22
1.32799e-22
1.33423e-22
1.34321e-22
1.35488e-22
1.36909e-22
1.3867e-22
1.40707e-22
1.43004e-22
1.45399e-22
1.4813e-22
1.51001e-22
1.54073e-22
1.57304e-22
1.60677e-22
1.64177e-22
1.68023e-22
1.72057e-22
1.75845e-22
1.79928e-22
1.84232e-22
1.88513e-22
1.92703e-22
1.97034e-22
2.01485e-22
2.06066e-22
2.10835e-22
)
;

boundaryField
{
    wall
    {
        type            zeroGradient;
    }
    fuel
    {
        type            fixedValue;
        value           nonuniform 0();
    }
    outlet
    {
        type            inletOutlet;
        inletValue      nonuniform 0();
        value           nonuniform 0();
    }
    procBoundary2to1
    {
        type            processor;
        value           uniform 2.40038e-22;
    }
    procBoundary2to3
    {
        type            processor;
        value           uniform 2.15767e-22;
    }
}


// ************************************************************************* //
