/*--------------------------------*- C++ -*----------------------------------*\
| =========                 |                                                 |
| \\      /  F ield         | OpenFOAM: The Open Source CFD Toolbox           |
|  \\    /   O peration     | Version:  dev                                   |
|   \\  /    A nd           | Web:      www.OpenFOAM.org                      |
|    \\/     M anipulation  |                                                 |
\*---------------------------------------------------------------------------*/
FoamFile
{
    version     2.0;
    format      ascii;
    class       volScalarField;
    location    "0.14";
    object      c-C6H4;
}
// * * * * * * * * * * * * * * * * * * * * * * * * * * * * * * * * * * * * * //

dimensions      [0 0 0 0 0 0 0];

internalField   nonuniform List<scalar> 
50
(
4.86104e-18
4.47732e-18
4.12701e-18
3.80598e-18
3.51137e-18
3.24066e-18
2.99145e-18
2.77919e-18
2.58572e-18
2.39912e-18
2.22454e-18
2.06448e-18
1.91723e-18
1.78103e-18
1.65415e-18
1.54518e-18
1.444e-18
1.3458e-18
1.25804e-18
1.17676e-18
1.09917e-18
1.02237e-18
9.56596e-19
8.95267e-19
8.37835e-19
7.83704e-19
7.334e-19
6.86576e-19
6.43026e-19
5.98993e-19
5.57205e-19
5.18584e-19
4.84481e-19
4.50119e-19
4.18378e-19
3.87908e-19
3.59081e-19
3.31792e-19
3.0583e-19
2.79261e-19
2.5351e-19
2.31736e-19
2.09723e-19
1.87981e-19
1.68565e-19
1.5114e-19
1.34675e-19
1.19272e-19
1.04927e-19
9.15155e-20
)
;

boundaryField
{
    wall
    {
        type            zeroGradient;
    }
    fuel
    {
        type            fixedValue;
        value           nonuniform 0();
    }
    outlet
    {
        type            inletOutlet;
        inletValue      nonuniform 0();
        value           nonuniform 0();
    }
    procBoundary2to1
    {
        type            processor;
        value           uniform 5.29811e-18;
    }
    procBoundary2to3
    {
        type            processor;
        value           uniform 7.94716e-20;
    }
}


// ************************************************************************* //
