/*--------------------------------*- C++ -*----------------------------------*\
| =========                 |                                                 |
| \\      /  F ield         | OpenFOAM: The Open Source CFD Toolbox           |
|  \\    /   O peration     | Version:  dev                                   |
|   \\  /    A nd           | Web:      www.OpenFOAM.org                      |
|    \\/     M anipulation  |                                                 |
\*---------------------------------------------------------------------------*/
FoamFile
{
    version     2.0;
    format      ascii;
    class       volScalarField;
    location    "0.14";
    object      C4H;
}
// * * * * * * * * * * * * * * * * * * * * * * * * * * * * * * * * * * * * * //

dimensions      [0 0 0 0 0 0 0];

internalField   nonuniform List<scalar> 
250
(
1.66919e-10
3.55714e-07
4.0536e-07
4.0873e-07
4.09597e-07
4.08772e-07
4.0979e-07
4.0874e-07
4.09404e-07
2.60877e-10
3.33438e-07
3.66509e-07
3.67913e-07
3.68112e-07
3.67845e-07
3.67593e-07
3.67931e-07
3.67563e-07
2.12572e-10
2.09723e-07
2.30995e-07
2.31398e-07
2.31231e-07
2.30995e-07
2.30912e-07
2.31009e-07
2.30967e-07
1.70293e-10
1.30453e-07
1.44665e-07
1.4462e-07
1.44406e-07
1.44038e-07
1.4407e-07
1.44074e-07
1.44128e-07
1.74614e-10
8.8171e-08
9.77322e-08
9.71605e-08
9.71183e-08
9.65549e-08
9.67133e-08
9.66579e-08
9.67384e-08
2.54399e-10
6.24247e-08
7.18628e-08
7.12153e-08
7.15003e-08
7.0698e-08
7.10298e-08
7.08945e-08
7.09611e-08
5.19717e-10
5.00759e-08
5.75299e-08
5.62453e-08
5.69776e-08
5.60987e-08
5.63132e-08
5.61466e-08
5.64548e-08
1.27496e-09
4.2649e-08
4.89293e-08
4.71609e-08
4.73696e-08
4.65577e-08
4.70063e-08
4.64803e-08
4.67658e-08
3.26167e-09
3.73961e-08
4.26097e-08
4.1212e-08
4.18068e-08
4.08371e-08
4.12744e-08
4.08486e-08
4.11182e-08
7.84974e-09
3.32649e-08
3.85472e-08
3.64675e-08
3.72943e-08
3.62201e-08
3.67149e-08
3.6278e-08
3.65425e-08
1.65147e-08
2.9842e-08
3.51751e-08
3.27842e-08
3.37557e-08
3.26316e-08
3.31342e-08
3.27046e-08
3.29625e-08
3.2786e-08
2.85746e-08
2.73371e-08
3.22179e-08
2.97825e-08
3.08314e-08
2.96861e-08
3.01677e-08
2.97595e-08
3.00167e-08
2.98465e-08
3.96221e-08
2.48098e-08
2.96582e-08
2.72153e-08
2.83066e-08
2.71585e-08
2.75967e-08
2.72245e-08
2.74837e-08
2.73185e-08
4.63991e-08
2.23143e-08
2.73713e-08
2.495e-08
2.60613e-08
2.49242e-08
2.52944e-08
2.49771e-08
2.52401e-08
2.50804e-08
4.79411e-08
2.00062e-08
2.52886e-08
2.29111e-08
2.40258e-08
2.2912e-08
2.34718e-08
2.29455e-08
2.32141e-08
2.30605e-08
4.51658e-08
1.81474e-08
2.33679e-08
2.10516e-08
2.21567e-08
2.10732e-08
2.1625e-08
2.10822e-08
2.13609e-08
2.1214e-08
3.97885e-08
1.65347e-08
2.15783e-08
1.93387e-08
2.04243e-08
1.93768e-08
1.98917e-08
1.93545e-08
1.96501e-08
1.951e-08
3.34432e-08
1.51109e-08
1.98956e-08
1.77482e-08
1.88067e-08
1.78008e-08
1.82834e-08
1.77357e-08
1.80595e-08
1.79261e-08
2.72652e-08
1.37513e-08
1.83002e-08
1.62619e-08
1.72862e-08
1.63277e-08
1.67798e-08
1.63864e-08
1.65716e-08
1.64444e-08
2.18553e-08
1.26032e-08
1.69908e-08
1.48737e-08
1.58471e-08
1.49429e-08
1.53623e-08
1.49732e-08
1.51704e-08
1.50499e-08
1.74133e-08
1.15088e-08
1.57182e-08
1.35908e-08
1.44752e-08
1.36333e-08
1.40176e-08
1.36289e-08
1.38421e-08
1.37292e-08
1.39123e-08
1.04609e-08
1.44112e-08
1.24645e-08
1.31538e-08
1.23855e-08
1.27313e-08
1.24801e-08
1.25724e-08
1.24684e-08
1.12211e-08
9.51672e-09
1.31507e-08
1.13847e-08
1.20384e-08
1.13121e-08
1.16406e-08
1.13935e-08
1.14912e-08
1.13898e-08
9.17924e-09
8.65302e-09
1.19251e-08
1.027e-08
1.09295e-08
1.02058e-08
1.0523e-08
1.02741e-08
1.03754e-08
1.02756e-08
7.63627e-09
7.84649e-09
1.07258e-08
9.2751e-09
9.90337e-09
9.21802e-09
9.5183e-09
9.27659e-09
9.37857e-09
9.28229e-09
6.46215e-09
7.07617e-09
9.69698e-09
8.31879e-09
8.91742e-09
8.26837e-09
8.55289e-09
8.31875e-09
8.4204e-09
8.32766e-09
)
;

boundaryField
{
    fuel
    {
        type            fixedValue;
        value           uniform 0;
    }
    wall
    {
        type            zeroGradient;
    }
    outlet
    {
        type            zeroGradient;
    }
    frontAndBack
    {
        type            empty;
    }
    procBoundary2to0
    {
        type            processor;
        value           nonuniform List<scalar> 
12
(
9.3119e-09
5.56239e-09
6.38652e-09
8.70193e-09
7.39858e-09
7.96823e-09
7.35371e-09
7.62347e-09
7.3971e-09
7.49782e-09
8.35675e-09
7.40854e-09
)
;
    }
    procBoundary2to3
    {
        type            processor;
        value           nonuniform List<scalar> 
25
(
4.09737e-07
3.67636e-07
2.30961e-07
1.44063e-07
9.6633e-08
7.08295e-08
5.63036e-08
4.66085e-08
4.09496e-08
3.63653e-08
3.63653e-08
3.28701e-08
2.99279e-08
2.73972e-08
2.51556e-08
2.31314e-08
2.12799e-08
1.95703e-08
1.79802e-08
1.64919e-08
1.50906e-08
1.37635e-08
1.24971e-08
1.14182e-08
1.03047e-08
)
;
    }
}


// ************************************************************************* //
