/*--------------------------------*- C++ -*----------------------------------*\
| =========                 |                                                 |
| \\      /  F ield         | OpenFOAM: The Open Source CFD Toolbox           |
|  \\    /   O peration     | Version:  dev                                   |
|   \\  /    A nd           | Web:      www.OpenFOAM.org                      |
|    \\/     M anipulation  |                                                 |
\*---------------------------------------------------------------------------*/
FoamFile
{
    version     2.0;
    format      ascii;
    class       volScalarField;
    location    "0.14";
    object      C5H4O;
}
// * * * * * * * * * * * * * * * * * * * * * * * * * * * * * * * * * * * * * //

dimensions      [0 0 0 0 0 0 0];

internalField   nonuniform List<scalar> 
250
(
2.30788e-08
3.68877e-07
3.34702e-07
3.30219e-07
3.28895e-07
3.28697e-07
3.28861e-07
3.28655e-07
3.28848e-07
2.84093e-08
1.88478e-07
1.68082e-07
1.65365e-07
1.64399e-07
1.64235e-07
1.64209e-07
1.64236e-07
1.64246e-07
3.17736e-08
9.22567e-08
8.01755e-08
7.84807e-08
7.77465e-08
7.77289e-08
7.76675e-08
7.77166e-08
7.77041e-08
3.35119e-08
4.9176e-08
4.16119e-08
4.03503e-08
3.98104e-08
3.97542e-08
3.97348e-08
3.97555e-08
3.97591e-08
3.46093e-08
2.99043e-08
2.45709e-08
2.3391e-08
2.30237e-08
2.28977e-08
2.29267e-08
2.29235e-08
2.29349e-08
3.58375e-08
1.93054e-08
1.62704e-08
1.51904e-08
1.49826e-08
1.47828e-08
1.48676e-08
1.4837e-08
1.48451e-08
3.55626e-08
1.44579e-08
1.19626e-08
1.07629e-08
1.07129e-08
1.04941e-08
1.05454e-08
1.05051e-08
1.05821e-08
3.00834e-08
1.16329e-08
9.4527e-09
8.16083e-09
7.97217e-09
7.78032e-09
7.89673e-09
7.75536e-09
7.82405e-09
1.89515e-08
9.74598e-09
7.63042e-09
6.49098e-09
6.41356e-09
6.187e-09
6.29703e-09
6.18669e-09
6.24852e-09
9.42151e-09
8.43574e-09
6.48472e-09
5.19603e-09
5.18146e-09
4.93992e-09
5.06107e-09
4.95225e-09
5.00886e-09
4.80708e-09
7.52924e-09
5.56624e-09
4.24245e-09
4.26316e-09
4.02433e-09
4.14176e-09
4.04066e-09
4.09088e-09
4.05726e-09
3.10916e-09
6.97113e-09
4.8025e-09
3.52523e-09
3.56091e-09
3.33387e-09
3.43915e-09
3.35044e-09
3.3953e-09
3.3648e-09
2.82225e-09
6.47903e-09
4.18667e-09
2.97121e-09
3.01164e-09
2.80125e-09
2.8887e-09
2.81642e-09
2.85648e-09
2.82919e-09
3.21409e-09
6.03046e-09
3.67971e-09
2.53607e-09
2.57541e-09
2.38409e-09
2.44871e-09
2.397e-09
2.43272e-09
2.40864e-09
4.06818e-09
5.62821e-09
3.25702e-09
2.19045e-09
2.22521e-09
2.05402e-09
2.14067e-09
2.06395e-09
2.09583e-09
2.07487e-09
5.31193e-09
5.30184e-09
2.9013e-09
1.91357e-09
1.94184e-09
1.7902e-09
1.86633e-09
1.79672e-09
1.82582e-09
1.80778e-09
6.86347e-09
5.00851e-09
2.5991e-09
1.69011e-09
1.71109e-09
1.57784e-09
1.64102e-09
1.58024e-09
1.60796e-09
1.59261e-09
8.58083e-09
4.73021e-09
2.33952e-09
1.50848e-09
1.52223e-09
1.40594e-09
1.45859e-09
1.40297e-09
1.43126e-09
1.41832e-09
1.02812e-08
4.43663e-09
2.11391e-09
1.35996e-09
1.36698e-09
1.26623e-09
1.31006e-09
1.27465e-09
1.28741e-09
1.27655e-09
1.17819e-08
4.16546e-09
1.9456e-09
1.23869e-09
1.23888e-09
1.15242e-09
1.18845e-09
1.15755e-09
1.16991e-09
1.16094e-09
1.29365e-08
3.87978e-09
1.79687e-09
1.14195e-09
1.13279e-09
1.05972e-09
1.0887e-09
1.06121e-09
1.07383e-09
1.0666e-09
1.3658e-08
3.58508e-09
1.65797e-09
1.06952e-09
1.04451e-09
9.84448e-10
1.00688e-09
9.91576e-10
9.95318e-10
9.89746e-10
1.39218e-08
3.30676e-09
1.53721e-09
1.01099e-09
9.8188e-10
9.31139e-10
9.4927e-10
9.36845e-10
9.40036e-10
9.35513e-10
1.37569e-08
3.04765e-09
1.43212e-09
9.60991e-10
9.30269e-10
8.86586e-10
9.00867e-10
8.90935e-10
8.93447e-10
8.89921e-10
1.32312e-08
2.80915e-09
1.34088e-09
9.26755e-10
8.92624e-10
8.56981e-10
8.67604e-10
8.60293e-10
8.61989e-10
8.59448e-10
1.24341e-08
2.59217e-09
1.27435e-09
9.03665e-10
8.66133e-10
8.38088e-10
8.45323e-10
8.40523e-10
8.41324e-10
8.39739e-10
)
;

boundaryField
{
    fuel
    {
        type            fixedValue;
        value           uniform 0;
    }
    wall
    {
        type            zeroGradient;
    }
    outlet
    {
        type            zeroGradient;
    }
    frontAndBack
    {
        type            empty;
    }
    procBoundary2to0
    {
        type            processor;
        value           nonuniform List<scalar> 
12
(
8.60833e-10
1.14475e-08
2.41102e-09
1.22074e-09
8.91098e-10
8.50162e-10
8.29327e-10
8.33392e-10
8.31003e-10
8.30857e-10
8.40899e-10
8.30203e-10
)
;
    }
    procBoundary2to3
    {
        type            processor;
        value           nonuniform List<scalar> 
25
(
3.28952e-07
1.6429e-07
7.77192e-08
3.97513e-08
2.29132e-08
1.48156e-08
1.05477e-08
7.78909e-09
6.21183e-09
4.97214e-09
4.97214e-09
4.07061e-09
3.37753e-09
2.84085e-09
2.41908e-09
2.08406e-09
1.81575e-09
1.59943e-09
1.42406e-09
1.2813e-09
1.16477e-09
1.06959e-09
9.91974e-10
9.37375e-10
8.91511e-10
)
;
    }
}


// ************************************************************************* //
