/*--------------------------------*- C++ -*----------------------------------*\
| =========                 |                                                 |
| \\      /  F ield         | OpenFOAM: The Open Source CFD Toolbox           |
|  \\    /   O peration     | Version:  dev                                   |
|   \\  /    A nd           | Web:      www.OpenFOAM.org                      |
|    \\/     M anipulation  |                                                 |
\*---------------------------------------------------------------------------*/
FoamFile
{
    version     2.0;
    format      ascii;
    class       volScalarField;
    location    "0.14";
    object      CH2(S);
}
// * * * * * * * * * * * * * * * * * * * * * * * * * * * * * * * * * * * * * //

dimensions      [0 0 0 0 0 0 0];

internalField   nonuniform List<scalar> 
250
(
1.31503e-09
2.17243e-06
2.27663e-06
2.28492e-06
2.28681e-06
2.2868e-06
2.28724e-06
2.28688e-06
2.28669e-06
5.73938e-09
1.28688e-06
1.33178e-06
1.33966e-06
1.33967e-06
1.34084e-06
1.33921e-06
1.34095e-06
1.3393e-06
5.27871e-09
6.0977e-07
6.30852e-07
6.38762e-07
6.37685e-07
6.38619e-07
6.3786e-07
6.38519e-07
6.38041e-07
2.78494e-09
2.92759e-07
3.04552e-07
3.11378e-07
3.10208e-07
3.10744e-07
3.10423e-07
3.1067e-07
3.10542e-07
1.65185e-09
1.58598e-07
1.6549e-07
1.70447e-07
1.69758e-07
1.69835e-07
1.69843e-07
1.69886e-07
1.69867e-07
1.47187e-09
9.31077e-08
1.03902e-07
1.08218e-07
1.08235e-07
1.07872e-07
1.082e-07
1.08099e-07
1.08058e-07
2.13937e-09
6.69304e-08
7.58061e-08
7.86749e-08
7.94945e-08
7.90621e-08
7.91115e-08
7.90434e-08
7.93958e-08
4.15413e-09
5.36656e-08
6.17757e-08
6.37704e-08
6.38491e-08
6.35573e-08
6.39704e-08
6.33634e-08
6.36487e-08
8.98687e-09
4.57474e-08
5.32764e-08
5.56726e-08
5.63751e-08
5.59043e-08
5.62343e-08
5.58537e-08
5.60897e-08
1.90741e-08
4.04115e-08
4.86882e-08
5.03707e-08
5.14448e-08
5.08757e-08
5.12415e-08
5.08979e-08
5.11068e-08
3.65046e-08
3.65007e-08
4.54353e-08
4.68996e-08
4.82105e-08
4.75985e-08
4.79677e-08
4.7647e-08
4.78403e-08
4.77028e-08
5.89076e-08
3.38341e-08
4.28929e-08
4.43922e-08
4.58559e-08
4.5218e-08
4.55758e-08
4.52728e-08
4.54649e-08
4.53379e-08
7.6919e-08
3.12442e-08
4.08317e-08
4.23708e-08
4.39508e-08
4.32887e-08
4.36256e-08
4.33407e-08
4.35406e-08
4.3416e-08
8.42338e-08
2.87203e-08
3.90333e-08
4.05959e-08
4.22731e-08
4.15834e-08
4.18853e-08
4.16268e-08
4.18408e-08
4.17154e-08
8.08879e-08
2.63914e-08
3.73862e-08
3.89433e-08
4.07046e-08
3.99835e-08
4.04533e-08
4.00125e-08
4.0246e-08
4.01177e-08
7.08633e-08
2.4518e-08
3.58284e-08
3.73438e-08
3.91787e-08
3.84199e-08
3.89126e-08
3.84288e-08
3.86894e-08
3.85568e-08
5.84625e-08
2.28985e-08
3.43199e-08
3.57553e-08
3.76539e-08
3.68522e-08
3.73492e-08
3.68324e-08
3.713e-08
3.69921e-08
4.65616e-08
2.14802e-08
3.28304e-08
3.41481e-08
3.61012e-08
3.52531e-08
3.57613e-08
3.51893e-08
3.554e-08
3.53955e-08
3.64852e-08
2.01356e-08
3.13334e-08
3.25008e-08
3.44967e-08
3.36015e-08
3.4124e-08
3.3676e-08
3.38975e-08
3.37452e-08
2.85362e-08
1.89995e-08
3.00187e-08
3.08057e-08
3.28189e-08
3.18794e-08
3.24138e-08
3.19212e-08
3.21822e-08
3.20225e-08
2.25129e-08
1.79053e-08
2.86451e-08
2.90716e-08
3.10458e-08
3.00701e-08
3.06116e-08
3.00674e-08
3.03756e-08
3.02098e-08
1.8048e-08
1.68258e-08
2.71202e-08
2.73909e-08
2.91505e-08
2.81553e-08
2.86955e-08
2.83095e-08
2.84568e-08
2.82874e-08
1.47684e-08
1.58014e-08
2.55203e-08
2.56201e-08
2.73791e-08
2.63324e-08
2.68954e-08
2.6472e-08
2.66479e-08
2.64671e-08
1.23587e-08
1.47955e-08
2.38211e-08
2.36149e-08
2.54375e-08
2.42633e-08
2.48614e-08
2.43887e-08
2.45909e-08
2.43961e-08
1.05746e-08
1.37732e-08
2.20018e-08
2.16629e-08
2.34689e-08
2.22451e-08
2.28599e-08
2.23602e-08
2.25816e-08
2.23783e-08
9.22794e-09
1.27024e-08
2.02979e-08
1.96334e-08
2.14126e-08
2.01454e-08
2.07735e-08
2.02518e-08
2.0489e-08
2.02788e-08
)
;

boundaryField
{
    fuel
    {
        type            fixedValue;
        value           uniform 0;
    }
    wall
    {
        type            zeroGradient;
    }
    outlet
    {
        type            zeroGradient;
    }
    frontAndBack
    {
        type            empty;
    }
    procBoundary2to0
    {
        type            processor;
        value           nonuniform List<scalar> 
12
(
2.24359e-08
8.17671e-09
1.16565e-08
1.85083e-08
1.75427e-08
1.92806e-08
1.79814e-08
1.86173e-08
1.80797e-08
1.83295e-08
2.03395e-08
1.81143e-08
)
;
    }
    procBoundary2to3
    {
        type            processor;
        value           nonuniform List<scalar> 
25
(
2.28716e-06
1.33954e-06
6.38169e-07
3.10533e-07
1.69776e-07
1.07931e-07
7.92538e-08
6.35161e-08
5.59545e-08
5.09679e-08
5.09679e-08
4.77714e-08
4.54006e-08
4.34764e-08
4.17745e-08
4.01759e-08
3.86139e-08
3.70475e-08
3.54485e-08
3.37951e-08
3.20689e-08
3.02529e-08
2.8328e-08
2.65125e-08
2.44481e-08
)
;
    }
}


// ************************************************************************* //
