/*--------------------------------*- C++ -*----------------------------------*\
| =========                 |                                                 |
| \\      /  F ield         | OpenFOAM: The Open Source CFD Toolbox           |
|  \\    /   O peration     | Version:  dev                                   |
|   \\  /    A nd           | Web:      www.OpenFOAM.org                      |
|    \\/     M anipulation  |                                                 |
\*---------------------------------------------------------------------------*/
FoamFile
{
    version     2.0;
    format      ascii;
    class       volScalarField;
    location    "0.14";
    object      CH2OH;
}
// * * * * * * * * * * * * * * * * * * * * * * * * * * * * * * * * * * * * * //

dimensions      [0 0 0 0 0 0 0];

internalField   nonuniform List<scalar> 
250
(
7.49835e-09
1.34735e-06
1.37255e-06
1.3748e-06
1.37512e-06
1.3749e-06
1.37526e-06
1.37489e-06
1.37504e-06
8.67532e-08
7.69406e-07
7.72608e-07
7.75539e-07
7.75016e-07
7.75087e-07
7.7421e-07
7.75299e-07
7.74292e-07
6.80155e-08
3.62848e-07
3.62379e-07
3.65574e-07
3.64607e-07
3.65028e-07
3.64586e-07
3.64994e-07
3.64707e-07
3.09316e-08
1.74268e-07
1.74096e-07
1.77057e-07
1.76145e-07
1.76416e-07
1.76222e-07
1.76378e-07
1.763e-07
1.42898e-08
9.42259e-08
9.40079e-08
9.61327e-08
9.55591e-08
9.55789e-08
9.55767e-08
9.56102e-08
9.55964e-08
9.17525e-09
5.4972e-08
5.85362e-08
6.04127e-08
6.0278e-08
6.00465e-08
6.02313e-08
6.01786e-08
6.01526e-08
8.5344e-09
3.9251e-08
4.23704e-08
4.34637e-08
4.38029e-08
4.35328e-08
4.35591e-08
4.35221e-08
4.37229e-08
9.88813e-09
3.12975e-08
3.43152e-08
3.49191e-08
3.48343e-08
3.46461e-08
3.48808e-08
3.45344e-08
3.46966e-08
1.27924e-08
2.65908e-08
2.94512e-08
3.02796e-08
3.05479e-08
3.02574e-08
3.04445e-08
3.02274e-08
3.03612e-08
1.74517e-08
2.34823e-08
2.68422e-08
2.72444e-08
2.77169e-08
2.73708e-08
2.75777e-08
2.73822e-08
2.74998e-08
2.41307e-08
2.12704e-08
2.50066e-08
2.52655e-08
2.58631e-08
2.5494e-08
2.57013e-08
2.55201e-08
2.56279e-08
2.55505e-08
3.20513e-08
1.98012e-08
2.35853e-08
2.38485e-08
2.45224e-08
2.41409e-08
2.43395e-08
2.41705e-08
2.42762e-08
2.42058e-08
3.84606e-08
1.8398e-08
2.24448e-08
2.27206e-08
2.34496e-08
2.30581e-08
2.3242e-08
2.3086e-08
2.31944e-08
2.31262e-08
4.11669e-08
1.70403e-08
2.14591e-08
2.17451e-08
2.25186e-08
2.21162e-08
2.22776e-08
2.21394e-08
2.22538e-08
2.21861e-08
4.00291e-08
1.57874e-08
2.05637e-08
2.08508e-08
2.1662e-08
2.12479e-08
2.14989e-08
2.12632e-08
2.13864e-08
2.13181e-08
3.62676e-08
1.4775e-08
1.97229e-08
1.99986e-08
2.08423e-08
2.04142e-08
2.06743e-08
2.04186e-08
2.05545e-08
2.04849e-08
3.133e-08
1.38938e-08
1.89137e-08
1.91648e-08
2.00367e-08
1.95926e-08
1.98513e-08
1.95816e-08
1.97354e-08
1.96641e-08
2.62938e-08
1.31134e-08
1.81194e-08
1.83329e-08
1.92293e-08
1.87681e-08
1.90291e-08
1.87339e-08
1.89139e-08
1.88402e-08
2.17558e-08
1.23628e-08
1.73259e-08
1.74913e-08
1.84075e-08
1.79295e-08
1.81944e-08
1.79669e-08
1.80782e-08
1.80017e-08
1.79486e-08
1.17218e-08
1.66365e-08
1.66354e-08
1.75602e-08
1.70669e-08
1.73347e-08
1.70874e-08
1.72176e-08
1.71383e-08
1.48877e-08
1.10962e-08
1.59218e-08
1.57706e-08
1.66754e-08
1.61712e-08
1.64396e-08
1.61686e-08
1.63219e-08
1.62404e-08
1.24886e-08
1.04737e-08
1.51328e-08
1.49407e-08
1.57389e-08
1.52319e-08
1.54973e-08
1.5308e-08
1.53795e-08
1.52969e-08
1.06322e-08
9.88057e-09
1.43104e-08
1.40721e-08
1.48736e-08
1.43464e-08
1.46214e-08
1.44154e-08
1.45002e-08
1.44125e-08
9.19937e-09
9.29786e-09
1.34416e-08
1.30903e-08
1.39299e-08
1.33434e-08
1.36349e-08
1.34053e-08
1.35028e-08
1.34085e-08
8.08722e-09
8.70702e-09
1.25148e-08
1.21373e-08
1.29766e-08
1.23678e-08
1.26675e-08
1.24247e-08
1.25317e-08
1.24331e-08
7.20886e-09
8.09048e-09
1.16519e-08
1.11444e-08
1.19806e-08
1.13506e-08
1.16578e-08
1.14034e-08
1.15186e-08
1.14162e-08
)
;

boundaryField
{
    fuel
    {
        type            fixedValue;
        value           uniform 0;
    }
    wall
    {
        type            zeroGradient;
    }
    outlet
    {
        type            zeroGradient;
    }
    frontAndBack
    {
        type            empty;
    }
    procBoundary2to0
    {
        type            processor;
        value           nonuniform List<scalar> 
12
(
1.24614e-08
6.4895e-09
7.49098e-09
1.0746e-08
1.01161e-08
1.09443e-08
1.02959e-08
1.06093e-08
1.03451e-08
1.04674e-08
1.14463e-08
1.03618e-08
)
;
    }
    procBoundary2to3
    {
        type            processor;
        value           nonuniform List<scalar> 
25
(
1.37527e-06
7.74425e-07
3.64782e-07
1.76296e-07
9.55446e-08
6.00803e-08
4.36419e-08
3.4621e-08
3.02843e-08
2.74208e-08
2.74208e-08
2.5589e-08
2.42403e-08
2.31592e-08
2.22181e-08
2.13493e-08
2.05153e-08
1.96933e-08
1.88679e-08
1.80275e-08
1.71621e-08
1.62621e-08
1.53171e-08
1.44348e-08
1.34339e-08
)
;
    }
}


// ************************************************************************* //
