/*--------------------------------*- C++ -*----------------------------------*\
| =========                 |                                                 |
| \\      /  F ield         | OpenFOAM: The Open Source CFD Toolbox           |
|  \\    /   O peration     | Version:  dev                                   |
|   \\  /    A nd           | Web:      www.OpenFOAM.org                      |
|    \\/     M anipulation  |                                                 |
\*---------------------------------------------------------------------------*/
FoamFile
{
    version     2.0;
    format      ascii;
    class       volScalarField;
    location    "0.14";
    object      CO;
}
// * * * * * * * * * * * * * * * * * * * * * * * * * * * * * * * * * * * * * //

dimensions      [0 0 0 0 0 0 0];

internalField   nonuniform List<scalar> 
250
(
0.0119365
0.132466
0.135403
0.135797
0.135848
0.135854
0.135857
0.135856
0.135857
0.0328045
0.154282
0.157491
0.15796
0.158029
0.158037
0.15804
0.15804
0.15804
0.0542392
0.159283
0.163309
0.163939
0.164039
0.164051
0.164057
0.164057
0.164056
0.0748273
0.160929
0.16582
0.166634
0.16677
0.166787
0.166797
0.166797
0.166794
0.093502
0.161729
0.16737
0.168367
0.168541
0.168566
0.168581
0.168579
0.168573
0.109591
0.162292
0.168533
0.169705
0.169918
0.169954
0.16997
0.169963
0.169957
0.1229
0.162809
0.169496
0.170834
0.171104
0.171139
0.171186
0.171173
0.171166
0.133618
0.163351
0.17044
0.171828
0.172161
0.172206
0.172246
0.172236
0.17223
0.142133
0.163946
0.17123
0.172875
0.173141
0.173181
0.173205
0.173212
0.173208
0.148884
0.164603
0.172058
0.173716
0.174077
0.174128
0.17414
0.174162
0.174162
0.154247
0.165322
0.172896
0.174598
0.175003
0.175061
0.175079
0.175095
0.175098
0.175118
0.158491
0.166093
0.173607
0.175438
0.175884
0.175949
0.175987
0.175982
0.175986
0.176004
0.161805
0.166897
0.174342
0.176244
0.176726
0.176798
0.176753
0.17683
0.176833
0.176847
0.164369
0.167812
0.17511
0.177019
0.177532
0.177611
0.177573
0.177644
0.17764
0.17765
0.166363
0.168689
0.175774
0.177764
0.178304
0.178389
0.178372
0.178425
0.17841
0.178417
0.167945
0.169749
0.176511
0.178482
0.179041
0.179131
0.179129
0.179175
0.179146
0.179149
0.169231
0.170798
0.177249
0.179174
0.179743
0.179837
0.179844
0.179895
0.179846
0.179846
0.170309
0.171744
0.177968
0.179843
0.180408
0.180505
0.180518
0.180584
0.180511
0.18051
0.171245
0.172705
0.178665
0.180498
0.181037
0.181135
0.181151
0.181157
0.18114
0.181138
0.172088
0.173659
0.179334
0.181067
0.181628
0.181725
0.181743
0.18176
0.181732
0.18173
0.172873
0.174596
0.179971
0.181591
0.18218
0.182275
0.182294
0.182326
0.182284
0.182284
0.173621
0.175533
0.180574
0.182124
0.182694
0.182785
0.182802
0.18279
0.182796
0.182797
0.174346
0.176464
0.181139
0.182558
0.183112
0.183195
0.183211
0.183204
0.183209
0.183212
0.175051
0.17731
0.181667
0.182967
0.183484
0.18359
0.183606
0.183604
0.183607
0.183612
0.175736
0.17809
0.182096
0.183316
0.183807
0.183908
0.183923
0.183924
0.183927
0.183932
0.176398
0.178805
0.18248
0.183618
0.184081
0.184175
0.18419
0.184192
0.184195
0.184201
)
;

boundaryField
{
    fuel
    {
        type            fixedValue;
        value           uniform 0;
    }
    wall
    {
        type            zeroGradient;
    }
    outlet
    {
        type            zeroGradient;
    }
    frontAndBack
    {
        type            empty;
    }
    procBoundary2to0
    {
        type            processor;
        value           nonuniform List<scalar> 
12
(
0.183944
0.177075
0.179448
0.182813
0.183871
0.184304
0.184392
0.184405
0.184409
0.184412
0.184211
0.184418
)
;
    }
    procBoundary2to3
    {
        type            processor;
        value           nonuniform List<scalar> 
25
(
0.135857
0.158041
0.164057
0.166797
0.168578
0.169964
0.171177
0.172244
0.173222
0.17418
0.17418
0.175097
0.175987
0.176837
0.177648
0.178423
0.179161
0.179863
0.18053
0.18116
0.181752
0.182305
0.182816
0.183228
0.183626
)
;
    }
}


// ************************************************************************* //
