/*--------------------------------*- C++ -*----------------------------------*\
| =========                 |                                                 |
| \\      /  F ield         | OpenFOAM: The Open Source CFD Toolbox           |
|  \\    /   O peration     | Version:  dev                                   |
|   \\  /    A nd           | Web:      www.OpenFOAM.org                      |
|    \\/     M anipulation  |                                                 |
\*---------------------------------------------------------------------------*/
FoamFile
{
    version     2.0;
    format      ascii;
    class       volScalarField;
    location    "0.14";
    object      HCCOH;
}
// * * * * * * * * * * * * * * * * * * * * * * * * * * * * * * * * * * * * * //

dimensions      [0 0 0 0 0 0 0];

internalField   nonuniform List<scalar> 
50
(
5.62411e-14
5.20673e-14
4.8175e-14
4.45338e-14
4.11309e-14
3.79566e-14
3.49993e-14
3.2455e-14
3.01145e-14
2.7837e-14
2.56879e-14
2.37012e-14
2.18589e-14
2.01418e-14
1.85319e-14
1.71415e-14
1.58441e-14
1.45804e-14
1.34488e-14
1.23998e-14
1.13995e-14
1.04131e-14
9.57393e-15
8.79854e-15
8.08063e-15
7.41352e-15
6.80424e-15
6.2485e-15
5.74327e-15
5.2462e-15
4.78917e-15
4.38148e-15
4.03458e-15
3.69876e-15
3.40089e-15
3.12683e-15
2.87837e-15
2.65291e-15
2.44718e-15
2.24543e-15
2.05762e-15
1.90378e-15
1.75327e-15
1.6088e-15
1.48198e-15
1.36974e-15
1.26441e-15
1.16601e-15
1.074e-15
9.87195e-16
)
;

boundaryField
{
    wall
    {
        type            zeroGradient;
    }
    fuel
    {
        type            fixedValue;
        value           nonuniform 0();
    }
    outlet
    {
        type            inletOutlet;
        inletValue      nonuniform 0();
        value           nonuniform 0();
    }
    procBoundary2to1
    {
        type            processor;
        value           uniform 6.07997e-14;
    }
    procBoundary2to3
    {
        type            processor;
        value           uniform 9.07721e-16;
    }
}


// ************************************************************************* //
