/*--------------------------------*- C++ -*----------------------------------*\
| =========                 |                                                 |
| \\      /  F ield         | OpenFOAM: The Open Source CFD Toolbox           |
|  \\    /   O peration     | Version:  dev                                   |
|   \\  /    A nd           | Web:      www.OpenFOAM.org                      |
|    \\/     M anipulation  |                                                 |
\*---------------------------------------------------------------------------*/
FoamFile
{
    version     2.0;
    format      ascii;
    class       volScalarField;
    location    "0.14";
    object      i-A1C2H2;
}
// * * * * * * * * * * * * * * * * * * * * * * * * * * * * * * * * * * * * * //

dimensions      [0 0 0 0 0 0 0];

internalField   nonuniform List<scalar> 
250
(
1.40913e-08
6.61405e-09
6.11794e-09
6.04013e-09
6.01985e-09
6.02922e-09
6.01561e-09
6.03014e-09
6.01913e-09
1.0949e-08
3.24135e-09
2.93454e-09
2.88846e-09
2.87295e-09
2.87469e-09
2.87205e-09
2.87438e-09
2.87337e-09
6.54049e-09
1.57644e-09
1.38352e-09
1.35648e-09
1.34363e-09
1.34414e-09
1.34255e-09
1.34381e-09
1.34339e-09
3.38594e-09
8.20858e-10
6.99889e-10
6.80767e-10
6.70769e-10
6.70188e-10
6.69585e-10
6.70117e-10
6.70106e-10
1.67134e-09
4.75862e-10
3.93427e-10
3.76228e-10
3.6913e-10
3.67404e-10
3.67672e-10
3.67763e-10
3.67887e-10
8.04351e-10
2.85043e-10
2.43195e-10
2.28485e-10
2.24192e-10
2.21343e-10
2.22544e-10
2.22197e-10
2.22226e-10
3.8413e-10
1.99441e-10
1.65922e-10
1.49822e-10
1.48287e-10
1.45331e-10
1.45854e-10
1.454e-10
1.46602e-10
1.85372e-10
1.51917e-10
1.22229e-10
1.05255e-10
1.01423e-10
9.91396e-11
1.00673e-10
9.85926e-11
9.95973e-11
9.25564e-11
1.22485e-10
9.23425e-11
7.83977e-11
7.64583e-11
7.37898e-11
7.50794e-11
7.36515e-11
7.44866e-11
4.96369e-11
1.03795e-10
7.49769e-11
5.93977e-11
5.85044e-11
5.57648e-11
5.71112e-11
5.58305e-11
5.653e-11
3.05421e-11
9.20511e-11
6.23504e-11
4.67979e-11
4.64665e-11
4.38774e-11
4.51064e-11
4.40058e-11
4.45776e-11
4.42029e-11
2.34439e-11
8.54385e-11
5.28511e-11
3.82659e-11
3.81747e-11
3.58106e-11
3.68501e-11
3.59437e-11
3.64237e-11
3.61049e-11
2.35283e-11
8.01218e-11
4.58519e-11
3.22545e-11
3.2257e-11
3.01299e-11
3.09504e-11
3.02458e-11
3.06574e-11
3.03862e-11
2.91638e-11
7.55942e-11
4.0494e-11
2.78526e-11
2.78778e-11
2.59741e-11
2.65543e-11
2.60643e-11
2.64248e-11
2.61936e-11
4.10846e-11
7.16729e-11
3.62519e-11
2.45089e-11
2.45212e-11
2.28221e-11
2.36019e-11
2.28809e-11
2.32038e-11
2.30059e-11
6.08818e-11
6.85186e-11
3.27889e-11
2.18831e-11
2.18657e-11
2.03471e-11
2.10295e-11
2.03721e-11
2.06717e-11
2.05019e-11
8.95507e-11
6.56658e-11
2.98798e-11
1.97618e-11
1.97081e-11
1.83497e-11
1.89194e-11
1.83359e-11
1.8627e-11
1.84811e-11
1.261e-10
6.29206e-11
2.73707e-11
1.80089e-11
1.79182e-11
1.67045e-11
1.71863e-11
1.66421e-11
1.6942e-11
1.68165e-11
1.6724e-10
5.99513e-11
2.51576e-11
1.6538e-11
1.64108e-11
1.53312e-11
1.57403e-11
1.5384e-11
1.55344e-11
1.54266e-11
2.08145e-10
5.70971e-11
2.34665e-11
1.5301e-11
1.51293e-11
1.41775e-11
1.45209e-11
1.42022e-11
1.43491e-11
1.42576e-11
2.43816e-10
5.39367e-11
2.19286e-11
1.42829e-11
1.40342e-11
1.32084e-11
1.34901e-11
1.32015e-11
1.33494e-11
1.32738e-11
2.70405e-10
5.04836e-11
2.04474e-11
1.34975e-11
1.30969e-11
1.23999e-11
1.26219e-11
1.24573e-11
1.25099e-11
1.24502e-11
2.8586e-10
4.70142e-11
1.91196e-11
1.28472e-11
1.24136e-11
1.18124e-11
1.19943e-11
1.18584e-11
1.19029e-11
1.18537e-11
2.89926e-10
4.35855e-11
1.79331e-11
1.22842e-11
1.18403e-11
1.13157e-11
1.14599e-11
1.13504e-11
1.13848e-11
1.13463e-11
2.83743e-10
4.02512e-11
1.68827e-11
1.18941e-11
1.14169e-11
1.09833e-11
1.10891e-11
1.10086e-11
1.10317e-11
1.10043e-11
2.69327e-10
3.70605e-11
1.61006e-11
1.16334e-11
1.11196e-11
1.07757e-11
1.08439e-11
1.07926e-11
1.08034e-11
1.07873e-11
)
;

boundaryField
{
    fuel
    {
        type            fixedValue;
        value           uniform 0;
    }
    wall
    {
        type            zeroGradient;
    }
    outlet
    {
        type            zeroGradient;
    }
    frontAndBack
    {
        type            empty;
    }
    procBoundary2to0
    {
        type            processor;
        value           nonuniform List<scalar> 
12
(
1.10184e-11
2.48778e-10
3.42714e-11
1.54641e-11
1.15001e-11
1.09469e-11
1.06913e-11
1.07225e-11
1.07004e-11
1.06981e-11
1.07987e-11
1.06935e-11
)
;
    }
    procBoundary2to3
    {
        type            processor;
        value           nonuniform List<scalar> 
25
(
6.01699e-09
2.87348e-09
1.34352e-09
6.69943e-10
3.67521e-10
2.21757e-10
1.46082e-10
9.91097e-11
7.40082e-11
5.60878e-11
5.60878e-11
4.43524e-11
3.62414e-11
3.05059e-11
2.62972e-11
2.30954e-11
2.05791e-11
1.85474e-11
1.6873e-11
1.54739e-11
1.42962e-11
1.33041e-11
1.2473e-11
1.18728e-11
1.13626e-11
)
;
    }
}


// ************************************************************************* //
