/*--------------------------------*- C++ -*----------------------------------*\
| =========                 |                                                 |
| \\      /  F ield         | OpenFOAM: The Open Source CFD Toolbox           |
|  \\    /   O peration     | Version:  dev                                   |
|   \\  /    A nd           | Web:      www.OpenFOAM.org                      |
|    \\/     M anipulation  |                                                 |
\*---------------------------------------------------------------------------*/
FoamFile
{
    version     2.0;
    format      ascii;
    class       volScalarField;
    location    "0.14";
    object      T;
}
// * * * * * * * * * * * * * * * * * * * * * * * * * * * * * * * * * * * * * //

dimensions      [0 0 0 1 0 0 0];

internalField   nonuniform List<scalar> 
250
(
927.733
1733.8
1749.78
1750.74
1751.01
1751.01
1750.99
1751.01
1750.99
1185.14
1945.87
1965.56
1966.66
1967.03
1966.95
1966.99
1966.97
1966.97
1257.76
1998.76
2022.25
2023.65
2024.19
2024.08
2024.15
2024.1
2024.13
1297.25
2014.99
2040.95
2042.8
2043.55
2043.41
2043.5
2043.44
2043.48
1341.54
2020.82
2047.74
2050.14
2051.13
2050.97
2051.08
2051
2051.05
1399.96
2023.49
2049.98
2053.02
2054.24
2054.06
2054.19
2054.11
2054.17
1475.39
2024.67
2050.18
2053.93
2055.39
2055.19
2055.35
2055.24
2055.31
1569.19
2024.99
2049.38
2053.84
2055.54
2055.33
2055.51
2055.38
2055.47
1680.77
2024.26
2047.88
2053.2
2055.14
2054.92
2055.12
2054.97
2055.07
1804.7
2022.21
2046.23
2052.12
2054.33
2054.08
2054.32
2054.13
2054.26
1927.34
2018.83
2044.32
2050.78
2053.28
2052.98
2053.26
2053.04
2053.19
2053.09
2025.08
2015.14
2042.23
2049.25
2052.04
2051.69
2052.01
2051.75
2051.93
2051.82
2076.35
2010.47
2040.07
2047.57
2050.65
2050.24
2050.58
2050.29
2050.51
2050.38
2095.44
2005.08
2037.85
2045.74
2049.12
2048.62
2048.99
2048.66
2048.92
2048.78
2093.71
1999.48
2035.58
2043.74
2047.42
2046.81
2047.39
2046.84
2047.15
2046.99
2079.53
1994.49
2033.23
2041.55
2045.53
2044.79
2045.46
2044.8
2045.18
2044.99
2058.67
1989.86
2030.78
2039.13
2043.41
2042.52
2043.26
2042.49
2042.95
2042.74
2034.93
1985.58
2028.2
2036.43
2041.02
2039.94
2040.77
2039.87
2040.43
2040.18
2010.66
1981.4
2025.45
2033.39
2038.3
2036.99
2037.93
2037.12
2037.54
2037.26
1987.26
1977.67
2022.78
2029.97
2035.16
2033.61
2034.67
2033.7
2034.22
2033.9
1965.55
1973.99
2019.79
2026.11
2031.53
2029.71
2030.88
2029.75
2030.38
2030.01
1945.98
1970.23
2016.26
2021.96
2027.3
2025.18
2026.49
2025.53
2025.92
2025.5
1928.79
1966.45
2012.24
2017.18
2022.84
2020.33
2021.82
2020.68
2021.17
2020.68
1914.06
1962.5
2007.59
2011.33
2017.52
2014.38
2016.12
2014.73
2015.34
2014.76
1901.75
1958.17
2002.17
2004.92
2011.54
2007.87
2009.85
2008.22
2008.96
2008.29
1891.73
1953.21
1996.42
1997.52
2004.62
2000.33
2002.59
2000.69
2001.57
2000.8
)
;

boundaryField
{
    fuel
    {
        type            fixedValue;
        value           uniform 353;
    }
    wall
    {
        type            fixedValue;
        value           nonuniform 0();
    }
    outlet
    {
        type            inletOutlet;
        inletValue      uniform 353;
        value           nonuniform List<scalar> 
26
(
353
353
353
353
353
353
353
353
353
353
353
2041.64
2087.6
2102.47
2097.66
2081.36
2059.09
2034.45
2009.6
1985.85
1963.91
1944.2
1926.95
1912.21
1899.95
1890.01
)
;
    }
    frontAndBack
    {
        type            empty;
    }
    procBoundary2to0
    {
        type            processor;
        value           nonuniform List<scalar> 
12
(
2008.47
1883.78
1947.78
1989.74
1988.98
1996.61
1991.62
1994.2
1992
1993.04
2001.01
1992.15
)
;
    }
    procBoundary2to3
    {
        type            processor;
        value           nonuniform List<scalar> 
25
(
1750.96
1966.95
2024.1
2043.45
2051.02
2054.12
2055.26
2055.41
2055
2054.18
2054.18
2053.15
2051.88
2050.45
2048.85
2047.06
2045.07
2042.82
2040.26
2037.34
2033.98
2030.1
2025.59
2020.8
2014.91
)
;
    }
}


// ************************************************************************* //
