/*--------------------------------*- C++ -*----------------------------------*\
| =========                 |                                                 |
| \\      /  F ield         | OpenFOAM: The Open Source CFD Toolbox           |
|  \\    /   O peration     | Version:  dev                                   |
|   \\  /    A nd           | Web:      www.OpenFOAM.org                      |
|    \\/     M anipulation  |                                                 |
\*---------------------------------------------------------------------------*/
FoamFile
{
    version     2.0;
    format      ascii;
    class       volScalarField;
    location    "0.01";
    object      A1C2H3;
}
// * * * * * * * * * * * * * * * * * * * * * * * * * * * * * * * * * * * * * //

dimensions      [0 0 0 0 0 0 0];

internalField   nonuniform List<scalar> 
1989
(
3.41659e-08
3.29895e-08
3.20036e-08
3.12028e-08
3.06584e-08
3.01708e-08
2.97962e-08
2.94663e-08
2.91546e-08
2.89402e-08
2.87552e-08
2.86395e-08
2.85432e-08
2.85005e-08
2.84942e-08
2.85254e-08
2.86111e-08
2.87161e-08
2.88891e-08
2.90968e-08
2.93913e-08
2.97172e-08
3.00891e-08
3.05766e-08
3.1131e-08
3.19411e-08
3.29122e-08
3.41308e-08
3.5663e-08
3.79413e-08
4.09999e-08
4.61193e-08
5.25783e-08
6.19392e-08
7.28129e-08
8.49649e-08
9.55557e-08
1.03317e-07
1.07167e-07
1.06968e-07
1.04333e-07
9.78591e-08
8.83629e-08
7.70344e-08
6.65696e-08
5.73653e-08
5.08788e-08
4.57969e-08
4.26204e-08
4.02612e-08
3.8722e-08
3.75077e-08
3.65904e-08
3.57744e-08
3.51396e-08
3.46202e-08
3.42327e-08
3.38924e-08
3.35693e-08
3.33508e-08
3.31578e-08
3.30357e-08
3.29341e-08
3.289e-08
3.2883e-08
3.29155e-08
3.30047e-08
3.31154e-08
3.32951e-08
3.35068e-08
3.38111e-08
3.41465e-08
3.45283e-08
3.50502e-08
3.5697e-08
3.65206e-08
3.74745e-08
3.86868e-08
4.02511e-08
4.26463e-08
4.58687e-08
5.09887e-08
5.74976e-08
6.67591e-08
7.7243e-08
8.85569e-08
9.80137e-08
1.04427e-07
1.07001e-07
1.06333e-07
1.0502e-07
9.99546e-08
9.16738e-08
8.13098e-08
7.13538e-08
6.23846e-08
5.59219e-08
5.0792e-08
4.75765e-08
4.51492e-08
4.35905e-08
4.23511e-08
4.14013e-08
4.05869e-08
3.99427e-08
3.94243e-08
3.90236e-08
3.86759e-08
3.83473e-08
3.81257e-08
3.79259e-08
3.77994e-08
3.76935e-08
3.76484e-08
3.76409e-08
3.76742e-08
3.77658e-08
3.78805e-08
3.80657e-08
3.82797e-08
3.859e-08
3.89311e-08
3.93245e-08
3.98471e-08
4.05025e-08
4.13248e-08
4.22934e-08
4.35499e-08
4.51352e-08
4.75974e-08
5.08564e-08
5.60273e-08
6.25456e-08
7.15327e-08
8.15031e-08
9.18452e-08
1.00082e-07
1.05084e-07
1.06335e-07
1.05163e-07
1.05212e-07
1.01613e-07
9.46245e-08
8.53313e-08
7.60156e-08
6.74037e-08
6.10598e-08
5.5949e-08
5.27345e-08
5.02709e-08
4.87074e-08
4.74552e-08
4.64898e-08
4.56838e-08
4.50374e-08
4.45235e-08
4.41157e-08
4.37648e-08
4.3436e-08
4.32118e-08
4.30069e-08
4.2878e-08
4.27693e-08
4.27235e-08
4.27153e-08
4.27491e-08
4.28423e-08
4.29591e-08
4.3148e-08
4.33627e-08
4.36759e-08
4.40181e-08
4.44183e-08
4.49367e-08
4.55934e-08
4.64075e-08
4.73881e-08
4.86617e-08
5.02537e-08
5.27509e-08
5.60071e-08
6.11604e-08
6.75446e-08
7.61815e-08
8.55056e-08
9.47719e-08
1.01712e-07
1.05246e-07
1.05135e-07
1.03431e-07
1.04865e-07
1.02785e-07
9.71582e-08
8.90359e-08
8.05013e-08
7.23407e-08
6.6209e-08
6.11883e-08
5.80169e-08
5.55519e-08
5.39997e-08
5.27506e-08
5.17851e-08
5.09953e-08
5.03517e-08
4.98497e-08
4.94401e-08
4.90918e-08
4.87653e-08
4.85389e-08
4.8332e-08
4.82029e-08
4.80931e-08
4.80469e-08
4.80383e-08
4.80719e-08
4.81657e-08
4.82824e-08
4.84721e-08
4.86851e-08
4.90002e-08
4.93388e-08
4.97407e-08
5.02476e-08
5.09002e-08
5.16982e-08
5.26783e-08
5.39493e-08
5.55314e-08
5.80291e-08
6.12408e-08
6.63036e-08
7.247e-08
8.0653e-08
8.91892e-08
9.72798e-08
1.02855e-07
1.04869e-07
1.03372e-07
1.01116e-07
1.03939e-07
1.03421e-07
9.92173e-08
9.2354e-08
8.46802e-08
7.71083e-08
7.12786e-08
6.6421e-08
6.33357e-08
6.09058e-08
5.93825e-08
5.81532e-08
5.72033e-08
5.64357e-08
5.58051e-08
5.53186e-08
5.49139e-08
5.45739e-08
5.42516e-08
5.40363e-08
5.38278e-08
5.36956e-08
5.35833e-08
5.35365e-08
5.35273e-08
5.35608e-08
5.36571e-08
5.37754e-08
5.39704e-08
5.4181e-08
5.44798e-08
5.48104e-08
5.52072e-08
5.56997e-08
5.63373e-08
5.71129e-08
5.80776e-08
5.93283e-08
6.08819e-08
6.33436e-08
6.6468e-08
7.13659e-08
7.72266e-08
8.48148e-08
9.24848e-08
9.93116e-08
1.03461e-07
1.0391e-07
1.01026e-07
9.82135e-08
1.024e-07
1.03469e-07
1.00743e-07
9.52155e-08
8.84978e-08
8.1616e-08
7.61738e-08
7.15521e-08
6.85951e-08
6.62379e-08
6.47617e-08
6.35688e-08
6.26488e-08
6.19117e-08
6.13002e-08
6.08358e-08
6.04421e-08
6.01157e-08
5.97994e-08
5.9587e-08
5.93815e-08
5.92526e-08
5.91426e-08
5.90965e-08
5.90871e-08
5.91196e-08
5.92138e-08
5.93285e-08
5.95201e-08
5.97248e-08
6.00208e-08
6.03382e-08
6.0726e-08
6.11935e-08
6.18115e-08
6.25564e-08
6.34908e-08
6.47045e-08
6.62103e-08
6.85987e-08
7.1593e-08
7.6252e-08
8.17215e-08
8.86135e-08
9.53219e-08
1.00809e-07
1.03478e-07
1.0234e-07
9.80945e-08
9.46416e-08
1.00222e-07
1.0288e-07
1.01678e-07
9.7553e-08
9.18835e-08
8.57742e-08
8.07977e-08
7.6503e-08
7.36944e-08
7.14464e-08
7.00378e-08
6.88951e-08
6.80181e-08
6.73198e-08
6.67429e-08
6.63048e-08
6.59278e-08
6.56128e-08
6.53029e-08
6.50978e-08
6.48968e-08
6.47727e-08
6.46666e-08
6.46221e-08
6.46127e-08
6.46436e-08
6.47341e-08
6.4844e-08
6.50301e-08
6.52271e-08
6.55179e-08
6.58223e-08
6.61935e-08
6.66336e-08
6.72195e-08
6.79251e-08
6.88154e-08
6.99773e-08
7.1416e-08
7.36932e-08
7.65373e-08
8.0865e-08
8.58648e-08
9.19793e-08
9.76337e-08
1.01714e-07
1.02857e-07
1.00134e-07
9.44937e-08
9.05929e-08
9.73889e-08
1.01611e-07
1.01961e-07
9.92973e-08
9.4744e-08
8.9495e-08
8.5053e-08
8.11298e-08
7.85301e-08
7.64397e-08
7.51066e-08
7.40249e-08
7.3202e-08
7.25474e-08
7.20037e-08
7.15965e-08
7.12421e-08
7.09484e-08
7.06517e-08
7.04523e-08
7.02599e-08
7.01433e-08
7.00436e-08
7.00015e-08
6.99927e-08
7.00213e-08
7.01063e-08
7.0209e-08
7.03851e-08
7.05716e-08
7.08568e-08
7.11401e-08
7.14893e-08
7.18982e-08
7.24482e-08
7.31099e-08
7.39444e-08
7.50429e-08
7.64049e-08
7.85236e-08
8.11558e-08
8.51079e-08
8.95688e-08
9.48177e-08
9.93506e-08
1.01967e-07
1.01556e-07
9.72758e-08
9.04262e-08
8.60744e-08
9.3896e-08
9.96299e-08
1.01538e-07
1.0038e-07
9.70103e-08
9.26924e-08
8.88455e-08
8.53518e-08
8.29978e-08
8.10834e-08
7.98516e-08
7.88487e-08
7.80892e-08
7.74846e-08
7.69778e-08
7.6605e-08
7.62773e-08
7.60075e-08
7.5731e-08
7.55598e-08
7.53867e-08
7.52766e-08
7.51821e-08
7.51412e-08
7.51334e-08
7.51603e-08
7.5242e-08
7.53396e-08
7.55028e-08
7.56711e-08
7.59214e-08
7.6181e-08
7.65034e-08
7.6877e-08
7.73888e-08
7.79993e-08
7.87687e-08
7.97863e-08
8.10456e-08
8.29857e-08
8.53686e-08
8.88867e-08
9.2748e-08
9.70608e-08
1.00405e-07
1.01513e-07
9.95439e-08
9.37366e-08
8.58849e-08
8.11295e-08
8.98034e-08
9.69243e-08
1.00359e-07
1.00735e-07
9.86059e-08
9.52816e-08
9.20835e-08
8.90712e-08
8.69952e-08
8.52831e-08
8.41678e-08
8.32569e-08
8.2569e-08
8.20173e-08
8.15547e-08
8.12174e-08
8.09196e-08
8.06767e-08
8.04231e-08
8.02626e-08
8.01043e-08
8.00046e-08
7.99197e-08
7.98821e-08
7.98754e-08
7.98997e-08
7.99733e-08
8.00615e-08
8.02093e-08
8.03631e-08
8.05969e-08
8.08307e-08
8.1123e-08
8.14611e-08
8.19262e-08
8.24831e-08
8.3178e-08
8.41019e-08
8.52424e-08
8.6977e-08
8.9078e-08
9.211e-08
9.53177e-08
9.86323e-08
1.00731e-07
1.00303e-07
9.68075e-08
8.96296e-08
8.09221e-08
7.58505e-08
8.52164e-08
9.35085e-08
9.83911e-08
1.00301e-07
9.94553e-08
9.71789e-08
9.46769e-08
9.2192e-08
9.04219e-08
8.89362e-08
8.79508e-08
8.71426e-08
8.6531e-08
8.60394e-08
8.56221e-08
8.53216e-08
8.50563e-08
8.4841e-08
8.46154e-08
8.44706e-08
8.43283e-08
8.42386e-08
8.41639e-08
8.41298e-08
8.41238e-08
8.41461e-08
8.42107e-08
8.42899e-08
8.44224e-08
8.45607e-08
8.47698e-08
8.49764e-08
8.52363e-08
8.55365e-08
8.59546e-08
8.64501e-08
8.70666e-08
8.78849e-08
8.88927e-08
9.03973e-08
9.21881e-08
9.46879e-08
9.71947e-08
9.94568e-08
1.00267e-07
9.83049e-08
9.33622e-08
8.50229e-08
7.56287e-08
7.03178e-08
8.0166e-08
8.93956e-08
9.56182e-08
9.90257e-08
9.94865e-08
9.83019e-08
9.65373e-08
9.46197e-08
9.31799e-08
9.19423e-08
9.10979e-08
9.04012e-08
8.98682e-08
8.94382e-08
8.90708e-08
8.88086e-08
8.85776e-08
8.83913e-08
8.81948e-08
8.80686e-08
8.79447e-08
8.78656e-08
8.78017e-08
8.77712e-08
8.77661e-08
8.77866e-08
8.78417e-08
8.79118e-08
8.80275e-08
8.81483e-08
8.833e-08
8.85083e-08
8.87339e-08
8.89948e-08
8.93621e-08
8.97933e-08
9.03294e-08
9.1033e-08
9.18962e-08
9.31487e-08
9.46046e-08
9.65323e-08
9.82969e-08
9.94628e-08
9.89634e-08
9.55031e-08
8.92279e-08
7.99557e-08
7.00932e-08
6.46545e-08
7.47503e-08
8.47107e-08
9.20578e-08
9.68781e-08
9.8637e-08
9.85727e-08
9.75791e-08
9.62621e-08
9.51741e-08
9.42035e-08
9.35091e-08
9.29311e-08
9.24775e-08
9.21128e-08
9.17961e-08
9.15728e-08
9.13774e-08
9.1221e-08
9.10541e-08
9.09478e-08
9.08442e-08
9.0776e-08
9.0724e-08
9.06972e-08
9.06931e-08
9.07121e-08
9.07569e-08
9.08179e-08
9.09153e-08
9.10174e-08
9.11708e-08
9.13202e-08
9.15103e-08
9.17313e-08
9.20466e-08
9.24106e-08
9.28643e-08
9.34466e-08
9.41547e-08
9.51362e-08
9.62356e-08
9.75578e-08
9.85463e-08
9.85879e-08
9.67875e-08
9.19125e-08
8.45231e-08
7.45272e-08
6.4425e-08
5.89436e-08
6.90758e-08
7.9515e-08
8.77686e-08
9.38536e-08
9.68621e-08
9.79226e-08
9.77226e-08
9.70314e-08
9.63134e-08
9.56268e-08
9.50879e-08
9.46351e-08
9.42612e-08
9.39643e-08
9.36984e-08
9.35144e-08
9.33554e-08
9.3229e-08
9.30921e-08
9.30063e-08
9.29241e-08
9.28669e-08
9.28276e-08
9.28045e-08
9.28017e-08
9.28193e-08
9.28534e-08
9.29054e-08
9.29836e-08
9.30663e-08
9.31913e-08
9.33116e-08
9.34655e-08
9.36461e-08
9.39096e-08
9.42033e-08
9.45744e-08
9.50301e-08
9.55741e-08
9.6269e-08
9.69934e-08
9.7685e-08
9.7875e-08
9.67883e-08
9.37365e-08
8.76028e-08
7.93128e-08
6.88438e-08
5.87147e-08
5.32713e-08
6.32534e-08
7.3922e-08
8.28394e-08
8.99741e-08
9.41451e-08
9.6302e-08
9.69013e-08
9.68496e-08
9.65153e-08
9.6121e-08
9.57505e-08
9.54239e-08
9.51294e-08
9.49026e-08
9.46867e-08
9.45423e-08
9.442e-08
9.43228e-08
9.42173e-08
9.41514e-08
9.40913e-08
9.4045e-08
9.40191e-08
9.39995e-08
9.39983e-08
9.40148e-08
9.40377e-08
9.4081e-08
9.41394e-08
9.42033e-08
9.42987e-08
9.4391e-08
9.4508e-08
9.46483e-08
9.48604e-08
9.50816e-08
9.53703e-08
9.56947e-08
9.60682e-08
9.64646e-08
9.68002e-08
9.68475e-08
9.62338e-08
9.40482e-08
8.98334e-08
8.26563e-08
7.37103e-08
6.30152e-08
5.30533e-08
4.77278e-08
5.73943e-08
6.80567e-08
7.73754e-08
8.53294e-08
9.05074e-08
9.3691e-08
9.50714e-08
9.5657e-08
9.5713e-08
9.56185e-08
9.54174e-08
9.52216e-08
9.50063e-08
9.48512e-08
9.46848e-08
9.45793e-08
9.44951e-08
9.4426e-08
9.43513e-08
9.43053e-08
9.42676e-08
9.42319e-08
9.42197e-08
9.42037e-08
9.42042e-08
9.42199e-08
9.42313e-08
9.42664e-08
9.43049e-08
9.43505e-08
9.44157e-08
9.44814e-08
9.45607e-08
9.46614e-08
9.48225e-08
9.49696e-08
9.51759e-08
9.53656e-08
9.55649e-08
9.56565e-08
9.55967e-08
9.50022e-08
9.36034e-08
9.03897e-08
8.51688e-08
7.71804e-08
6.78404e-08
5.71505e-08
4.75197e-08
4.23753e-08
5.15845e-08
6.20489e-08
7.15074e-08
8.00183e-08
8.6014e-08
9.01097e-08
9.2224e-08
9.34239e-08
9.3866e-08
9.40697e-08
9.4038e-08
9.3975e-08
9.38389e-08
9.37566e-08
9.36387e-08
9.35715e-08
9.35262e-08
9.3484e-08
9.34398e-08
9.3413e-08
9.33976e-08
9.33722e-08
9.33739e-08
9.33612e-08
9.33636e-08
9.33786e-08
9.33786e-08
9.34058e-08
9.34246e-08
9.34522e-08
9.34882e-08
9.35283e-08
9.35692e-08
9.36309e-08
9.3742e-08
9.38139e-08
9.39378e-08
9.39908e-08
9.40156e-08
9.38043e-08
9.33534e-08
9.21406e-08
9.00048e-08
8.58788e-08
7.98423e-08
7.13061e-08
6.18325e-08
5.13442e-08
4.21861e-08
3.72771e-08
4.59423e-08
5.60258e-08
6.53773e-08
7.41798e-08
8.07735e-08
8.56249e-08
8.8395e-08
9.01628e-08
9.09712e-08
9.14608e-08
9.15953e-08
9.16646e-08
9.16069e-08
9.15979e-08
9.15277e-08
9.14985e-08
9.14914e-08
9.14748e-08
9.14604e-08
9.1452e-08
9.14582e-08
9.14425e-08
9.1458e-08
9.14485e-08
9.14528e-08
9.14674e-08
9.14561e-08
9.1476e-08
9.14756e-08
9.14856e-08
9.14938e-08
9.15091e-08
9.15124e-08
9.15356e-08
9.15973e-08
9.15938e-08
9.16361e-08
9.15532e-08
9.14067e-08
9.09052e-08
9.00833e-08
8.82992e-08
8.55053e-08
8.0625e-08
7.39932e-08
6.5175e-08
5.58133e-08
4.5697e-08
3.71148e-08
3.24979e-08
4.05012e-08
5.00873e-08
5.91282e-08
6.7973e-08
7.49309e-08
8.0349e-08
8.36583e-08
8.59368e-08
8.70722e-08
8.78231e-08
8.81173e-08
8.83143e-08
8.83332e-08
8.8397e-08
8.83734e-08
8.8381e-08
8.84107e-08
8.84183e-08
8.84318e-08
8.8441e-08
8.84676e-08
8.8461e-08
8.84897e-08
8.84832e-08
8.84894e-08
8.85036e-08
8.84815e-08
8.84946e-08
8.84761e-08
8.84693e-08
8.84513e-08
8.84432e-08
8.84106e-08
8.83965e-08
8.84101e-08
8.83317e-08
8.82945e-08
8.80804e-08
8.77698e-08
8.70031e-08
8.58498e-08
8.35514e-08
8.02181e-08
7.4774e-08
6.77808e-08
5.89287e-08
4.98871e-08
4.02461e-08
3.23639e-08
2.80734e-08
3.52659e-08
4.43701e-08
5.29005e-08
6.15653e-08
6.86561e-08
7.44326e-08
7.81779e-08
8.07932e-08
8.22332e-08
8.32398e-08
8.36825e-08
8.39979e-08
8.40898e-08
8.42268e-08
8.42474e-08
8.42888e-08
8.43516e-08
8.4381e-08
8.44201e-08
8.44458e-08
8.44911e-08
8.44927e-08
8.45335e-08
8.45298e-08
8.45377e-08
8.45517e-08
8.45196e-08
8.45264e-08
8.44914e-08
8.44688e-08
8.44267e-08
8.43972e-08
8.43322e-08
8.42842e-08
8.42523e-08
8.4099e-08
8.39863e-08
8.36509e-08
8.3188e-08
8.21623e-08
8.07006e-08
7.80637e-08
7.42939e-08
6.84961e-08
6.13724e-08
5.27048e-08
4.41811e-08
3.50473e-08
2.79395e-08
2.40816e-08
3.03373e-08
3.88229e-08
4.68199e-08
5.51208e-08
6.2129e-08
6.80512e-08
7.21152e-08
7.5001e-08
7.66611e-08
7.78504e-08
7.84194e-08
7.88382e-08
7.8997e-08
7.91864e-08
7.92465e-08
7.93229e-08
7.94212e-08
7.94759e-08
7.95385e-08
7.95792e-08
7.96407e-08
7.96496e-08
7.9701e-08
7.96999e-08
7.97092e-08
7.97229e-08
7.9682e-08
7.96832e-08
7.96338e-08
7.95969e-08
7.95329e-08
7.94798e-08
7.93773e-08
7.92921e-08
7.92229e-08
7.90155e-08
7.8834e-08
7.83927e-08
7.78005e-08
7.65896e-08
7.49051e-08
7.19978e-08
6.79076e-08
6.19711e-08
5.49327e-08
4.66353e-08
3.8628e-08
3.01738e-08
2.39502e-08
2.04554e-08
2.61388e-08
3.33358e-08
4.10175e-08
4.87774e-08
5.55253e-08
6.14252e-08
6.56294e-08
6.86833e-08
7.05047e-08
7.18265e-08
7.2496e-08
7.29987e-08
7.32158e-08
7.34645e-08
7.35604e-08
7.36642e-08
7.3788e-08
7.38597e-08
7.39409e-08
7.39942e-08
7.4069e-08
7.40839e-08
7.41441e-08
7.41451e-08
7.41556e-08
7.41689e-08
7.41208e-08
7.41171e-08
7.40559e-08
7.4007e-08
7.39251e-08
7.38556e-08
7.37275e-08
7.36154e-08
7.35096e-08
7.3242e-08
7.3001e-08
7.2474e-08
7.1779e-08
7.04334e-08
6.85865e-08
6.55103e-08
6.12817e-08
5.53747e-08
4.86006e-08
4.08412e-08
3.31597e-08
2.5994e-08
2.03335e-08
1.71784e-08
2.22464e-08
2.85296e-08
3.53051e-08
4.26801e-08
4.90026e-08
5.47642e-08
5.88976e-08
6.20395e-08
6.39639e-08
6.53628e-08
6.6106e-08
6.667e-08
6.69344e-08
6.72282e-08
6.73543e-08
6.74817e-08
6.76274e-08
6.77131e-08
6.78088e-08
6.78719e-08
6.79566e-08
6.79764e-08
6.8043e-08
6.80459e-08
6.80571e-08
6.807e-08
6.80164e-08
6.80087e-08
6.79387e-08
6.788e-08
6.77844e-08
6.77015e-08
6.75515e-08
6.74161e-08
6.72796e-08
6.69664e-08
6.66774e-08
6.60883e-08
6.53182e-08
6.38926e-08
6.19447e-08
5.8779e-08
5.46276e-08
4.88634e-08
4.25247e-08
3.51259e-08
2.83795e-08
2.21151e-08
1.70645e-08
1.42458e-08
1.87247e-08
2.42047e-08
3.01427e-08
3.67405e-08
4.26835e-08
4.81912e-08
5.21581e-08
5.52827e-08
5.72258e-08
5.86626e-08
5.94527e-08
6.00536e-08
6.03528e-08
6.06786e-08
6.08277e-08
6.09728e-08
6.11349e-08
6.1231e-08
6.13373e-08
6.14073e-08
6.14982e-08
6.15217e-08
6.15923e-08
6.15966e-08
6.16082e-08
6.16205e-08
6.15634e-08
6.15525e-08
6.14767e-08
6.1411e-08
6.13057e-08
6.12128e-08
6.10462e-08
6.08932e-08
6.0734e-08
6.03886e-08
6.00648e-08
5.94387e-08
5.86217e-08
5.71591e-08
5.51883e-08
5.20459e-08
4.80659e-08
4.25593e-08
3.65761e-08
2.9993e-08
2.40733e-08
1.86077e-08
1.41478e-08
1.16878e-08
1.55335e-08
2.03131e-08
2.5495e-08
3.12764e-08
3.66276e-08
4.18172e-08
4.55868e-08
4.85795e-08
5.04974e-08
5.19239e-08
5.27341e-08
5.33465e-08
5.3667e-08
5.40115e-08
5.41759e-08
5.43322e-08
5.45045e-08
5.46072e-08
5.47193e-08
5.47936e-08
5.48874e-08
5.49133e-08
5.49857e-08
5.49909e-08
5.50027e-08
5.50142e-08
5.49556e-08
5.49422e-08
5.48635e-08
5.47935e-08
5.46825e-08
5.45835e-08
5.44063e-08
5.42423e-08
5.40683e-08
5.37047e-08
5.33601e-08
5.27232e-08
5.18871e-08
5.04352e-08
4.84876e-08
4.54868e-08
4.17044e-08
3.64945e-08
3.11323e-08
2.53663e-08
2.01975e-08
1.54328e-08
1.16032e-08
9.43074e-09
1.27783e-08
1.68153e-08
2.13091e-08
2.63204e-08
3.1082e-08
3.57195e-08
3.92821e-08
4.20895e-08
4.39473e-08
4.5328e-08
4.61288e-08
4.67275e-08
4.70558e-08
4.74054e-08
4.75777e-08
4.77389e-08
4.79147e-08
4.802e-08
4.81349e-08
4.82109e-08
4.83046e-08
4.83321e-08
4.84041e-08
4.84099e-08
4.84216e-08
4.84321e-08
4.83737e-08
4.83585e-08
4.82795e-08
4.82074e-08
4.80941e-08
4.79925e-08
4.7811e-08
4.76426e-08
4.74618e-08
4.70934e-08
4.6742e-08
4.612e-08
4.52946e-08
4.38895e-08
4.20019e-08
3.92006e-08
3.55991e-08
3.09664e-08
2.61972e-08
2.11996e-08
1.67144e-08
1.26905e-08
9.36005e-09
7.47937e-09
1.03575e-08
1.37828e-08
1.7573e-08
2.18745e-08
2.60215e-08
3.00784e-08
3.34131e-08
3.59536e-08
3.77161e-08
3.89297e-08
3.97156e-08
4.02932e-08
4.06325e-08
4.09863e-08
4.11688e-08
4.13362e-08
4.15169e-08
4.16251e-08
4.17421e-08
4.18182e-08
4.19097e-08
4.1938e-08
4.20079e-08
4.20141e-08
4.20254e-08
4.20349e-08
4.1978e-08
4.19616e-08
4.18841e-08
4.18116e-08
4.16978e-08
4.1594e-08
4.14068e-08
4.12323e-08
4.10424e-08
4.067e-08
4.03084e-08
3.97088e-08
3.8898e-08
3.76616e-08
3.58729e-08
3.33321e-08
2.99734e-08
2.59211e-08
2.17704e-08
1.7474e-08
1.36955e-08
1.02802e-08
7.42265e-09
5.94884e-09
8.14383e-09
1.11421e-08
1.43208e-08
1.79405e-08
2.14982e-08
2.4989e-08
2.79402e-08
3.02756e-08
3.19156e-08
3.30038e-08
3.37557e-08
3.42843e-08
3.4612e-08
3.49498e-08
3.51275e-08
3.52893e-08
3.54629e-08
3.55675e-08
3.56791e-08
3.57529e-08
3.58391e-08
3.58669e-08
3.59328e-08
3.5939e-08
3.59497e-08
3.59581e-08
3.59044e-08
3.58877e-08
3.58144e-08
3.57444e-08
3.5635e-08
3.55351e-08
3.53544e-08
3.51862e-08
3.50025e-08
3.4647e-08
3.42986e-08
3.3751e-08
3.2973e-08
3.18662e-08
3.02064e-08
2.78575e-08
2.48991e-08
2.14109e-08
1.78526e-08
1.42378e-08
1.10682e-08
8.0788e-09
5.90281e-09
4.6434e-09
6.43989e-09
8.73482e-09
1.15054e-08
1.4512e-08
1.75238e-08
2.04546e-08
2.30417e-08
2.50792e-08
2.65658e-08
2.75603e-08
2.82576e-08
2.87435e-08
2.90515e-08
2.93646e-08
2.95311e-08
2.96831e-08
2.98454e-08
2.99434e-08
3.00453e-08
3.01152e-08
3.01938e-08
3.02203e-08
3.02808e-08
3.02867e-08
3.02966e-08
3.03039e-08
3.02546e-08
3.02381e-08
3.01712e-08
3.01057e-08
3.00038e-08
2.9911e-08
2.97417e-08
2.95841e-08
2.94125e-08
2.90835e-08
2.87568e-08
2.8251e-08
2.75369e-08
2.6524e-08
2.50133e-08
2.29799e-08
2.03782e-08
1.74496e-08
1.44376e-08
1.14361e-08
8.6711e-09
6.3882e-09
4.60514e-09
3.5547e-09
5.02001e-09
6.86884e-09
8.95822e-09
1.15703e-08
1.40877e-08
1.65498e-08
1.87061e-08
2.04603e-08
2.17888e-08
2.26608e-08
2.32728e-08
2.36877e-08
2.3976e-08
2.42618e-08
2.44187e-08
2.4563e-08
2.47161e-08
2.48091e-08
2.49036e-08
2.49701e-08
2.50413e-08
2.50667e-08
2.51217e-08
2.51275e-08
2.51366e-08
2.51428e-08
2.50978e-08
2.50817e-08
2.50211e-08
2.49601e-08
2.48636e-08
2.47764e-08
2.46163e-08
2.44668e-08
2.43051e-08
2.40055e-08
2.37005e-08
2.32696e-08
2.26399e-08
2.17522e-08
2.04027e-08
1.86482e-08
1.6486e-08
1.40271e-08
1.15062e-08
8.9e-09
6.81781e-09
4.97901e-09
3.52386e-09
2.68586e-09
3.83023e-09
5.33609e-09
6.98958e-09
8.95133e-09
1.11189e-08
1.31534e-08
1.49728e-08
1.6442e-08
1.75863e-08
1.8321e-08
1.88752e-08
1.92323e-08
1.94944e-08
1.97448e-08
1.98842e-08
2.00153e-08
2.01514e-08
2.0235e-08
2.0318e-08
2.03787e-08
2.04405e-08
2.04641e-08
2.05123e-08
2.05177e-08
2.05258e-08
2.05309e-08
2.04914e-08
2.04763e-08
2.04234e-08
2.03682e-08
2.02821e-08
2.0204e-08
2.00614e-08
1.99263e-08
1.97825e-08
1.95204e-08
1.92442e-08
1.88717e-08
1.83029e-08
1.75544e-08
1.63943e-08
1.49242e-08
1.30985e-08
1.10693e-08
8.89826e-09
6.9429e-09
5.29589e-09
3.79411e-09
2.66486e-09
1.99718e-09
2.87178e-09
4.07861e-09
5.36884e-09
6.91176e-09
8.57729e-09
1.02465e-08
1.17647e-08
1.29882e-08
1.39351e-08
1.45676e-08
1.50478e-08
1.53475e-08
1.55856e-08
1.57987e-08
1.59199e-08
1.60379e-08
1.61569e-08
1.62305e-08
1.63052e-08
1.6361e-08
1.64134e-08
1.64356e-08
1.64769e-08
1.64818e-08
1.64888e-08
1.64929e-08
1.64589e-08
1.64453e-08
1.63993e-08
1.63492e-08
1.62704e-08
1.62022e-08
1.60772e-08
1.59561e-08
1.58315e-08
1.56082e-08
1.53586e-08
1.50443e-08
1.45512e-08
1.3909e-08
1.29488e-08
1.17246e-08
1.01944e-08
8.5448e-09
6.85991e-09
5.34061e-09
4.04586e-09
2.84717e-09
1.97844e-09
1.44227e-09
2.16441e-09
3.02855e-09
4.07847e-09
5.24143e-09
6.52263e-09
7.86005e-09
9.06032e-09
1.01062e-08
1.08406e-08
1.13959e-08
1.17875e-08
1.20374e-08
1.22457e-08
1.24232e-08
1.25257e-08
1.26302e-08
1.27327e-08
1.27963e-08
1.28542e-08
1.2899e-08
1.2943e-08
1.29593e-08
1.29943e-08
1.29987e-08
1.30047e-08
1.30079e-08
1.29791e-08
1.29667e-08
1.29319e-08
1.28919e-08
1.28293e-08
1.27705e-08
1.26635e-08
1.25559e-08
1.24509e-08
1.22646e-08
1.20461e-08
1.17848e-08
1.13829e-08
1.08186e-08
1.00745e-08
9.02723e-09
7.82361e-09
6.49053e-09
5.20894e-09
4.0481e-09
3.00443e-09
2.14575e-09
1.42743e-09
1.02147e-09
1.58443e-09
2.2625e-09
3.01401e-09
3.94478e-09
4.91676e-09
5.91525e-09
6.85987e-09
7.686e-09
8.28202e-09
8.73579e-09
9.04912e-09
9.2639e-09
9.43988e-09
9.58972e-09
9.67919e-09
9.77033e-09
9.86263e-09
9.91761e-09
9.96931e-09
1.00096e-08
1.00469e-08
1.0062e-08
1.00913e-08
1.00952e-08
1.01003e-08
1.01027e-08
1.00786e-08
1.00675e-08
1.0038e-08
1.00013e-08
9.94513e-09
9.89447e-09
9.79955e-09
9.70453e-09
9.61298e-09
9.45596e-09
9.27117e-09
9.04663e-09
8.72533e-09
8.26386e-09
7.66141e-09
6.83248e-09
5.88824e-09
4.89062e-09
3.92057e-09
2.99052e-09
2.24424e-09
1.56941e-09
1.01046e-09
7.19202e-10
1.13792e-09
1.6489e-09
2.23705e-09
2.90317e-09
3.66056e-09
4.42551e-09
5.10504e-09
5.7732e-09
6.25365e-09
6.61542e-09
6.86214e-09
7.03785e-09
7.17999e-09
7.30403e-09
7.37684e-09
7.44737e-09
7.51884e-09
7.56175e-09
7.60228e-09
7.63613e-09
7.66506e-09
7.67808e-09
7.70041e-09
7.70383e-09
7.70799e-09
7.70969e-09
7.69169e-09
7.68196e-09
7.65804e-09
7.62839e-09
7.58374e-09
7.54449e-09
7.46747e-09
7.39707e-09
7.32289e-09
7.19301e-09
7.04331e-09
6.86036e-09
6.60694e-09
6.23869e-09
5.75441e-09
5.08293e-09
4.4063e-09
3.63783e-09
2.88715e-09
2.21936e-09
1.63454e-09
1.1263e-09
7.11417e-10
5.13472e-10
8.11832e-10
1.18726e-09
1.63285e-09
2.14943e-09
2.70583e-09
3.27492e-09
3.80246e-09
4.27533e-09
4.662e-09
4.9487e-09
5.14959e-09
5.29114e-09
5.40795e-09
5.51203e-09
5.57211e-09
5.63181e-09
5.69361e-09
5.72951e-09
5.76289e-09
5.79094e-09
5.81476e-09
5.82562e-09
5.8436e-09
5.84652e-09
5.84994e-09
5.85108e-09
5.83673e-09
5.8284e-09
5.80905e-09
5.78417e-09
5.74709e-09
5.71428e-09
5.64881e-09
5.5885e-09
5.52756e-09
5.41843e-09
5.2954e-09
5.14847e-09
4.94171e-09
4.64998e-09
4.2612e-09
3.78542e-09
3.26018e-09
2.68972e-09
2.13581e-09
1.61925e-09
1.17628e-09
8.02983e-10
5.08135e-10
3.80715e-10
5.86451e-10
8.62943e-10
1.20047e-09
1.59369e-09
2.0208e-09
2.45473e-09
2.84833e-09
3.2058e-09
3.50315e-09
3.72368e-09
3.88639e-09
3.99612e-09
4.09096e-09
4.17545e-09
4.22584e-09
4.2736e-09
4.32473e-09
4.35466e-09
4.38174e-09
4.40482e-09
4.42425e-09
4.43334e-09
4.44769e-09
4.45022e-09
4.45301e-09
4.45369e-09
4.4423e-09
4.4352e-09
4.41961e-09
4.39899e-09
4.36861e-09
4.34105e-09
4.28703e-09
4.2388e-09
4.18786e-09
4.09906e-09
3.99948e-09
3.88576e-09
3.71805e-09
3.49399e-09
3.19509e-09
2.83529e-09
2.44325e-09
2.0087e-09
1.58279e-09
1.19006e-09
8.54658e-10
5.79797e-10
3.769e-10
3.02816e-10
4.44444e-10
6.57257e-10
9.22571e-10
1.23272e-09
1.5705e-09
1.91056e-09
2.22139e-09
2.50571e-09
2.73859e-09
2.9193e-09
3.04422e-09
3.1386e-09
3.21583e-09
3.28718e-09
3.32817e-09
3.36887e-09
3.41151e-09
3.43635e-09
3.4593e-09
3.47849e-09
3.49454e-09
3.50232e-09
3.51396e-09
3.51619e-09
3.51853e-09
3.51888e-09
3.5097e-09
3.50357e-09
3.49064e-09
3.4736e-09
3.44787e-09
3.42451e-09
3.37974e-09
3.33878e-09
3.29718e-09
3.22231e-09
3.14147e-09
3.04353e-09
2.91434e-09
2.73143e-09
2.49713e-09
2.21094e-09
1.90131e-09
1.56045e-09
1.2239e-09
9.14265e-10
6.50832e-10
4.39468e-10
2.9974e-10
2.68402e-10
3.74062e-10
5.55931e-10
7.85539e-10
1.0534e-09
1.34396e-09
1.63582e-09
1.90443e-09
2.14746e-09
2.34757e-09
2.5078e-09
2.61629e-09
2.69956e-09
2.76948e-09
2.83316e-09
2.86908e-09
2.90558e-09
2.9438e-09
2.96573e-09
2.98608e-09
3.0034e-09
3.01759e-09
3.02457e-09
3.03468e-09
3.03675e-09
3.03884e-09
3.03903e-09
3.03111e-09
3.02553e-09
3.01403e-09
2.99878e-09
2.97584e-09
2.95499e-09
2.91516e-09
2.87853e-09
2.84183e-09
2.77517e-09
2.70211e-09
2.61563e-09
2.50363e-09
2.34124e-09
2.14001e-09
1.89534e-09
1.62771e-09
1.33514e-09
1.04563e-09
7.78307e-10
5.50444e-10
3.70008e-10
2.65593e-10
)
;

boundaryField
{
    fuel
    {
        type            fixedValue;
        value           nonuniform 0();
    }
    wall
    {
        type            zeroGradient;
    }
    outlet
    {
        type            zeroGradient;
    }
    frontAndBack
    {
        type            empty;
    }
    procBoundary3to2
    {
        type            processor;
        value           nonuniform List<scalar> 
51
(
2.98467e-08
2.87267e-08
2.77977e-08
2.71033e-08
2.65744e-08
2.61102e-08
2.56511e-08
2.53347e-08
2.50403e-08
2.48313e-08
2.46549e-08
2.45478e-08
2.44581e-08
2.44177e-08
2.44121e-08
2.44415e-08
2.45224e-08
2.46196e-08
2.47852e-08
2.49874e-08
2.52671e-08
2.55799e-08
2.60401e-08
2.64999e-08
2.70403e-08
2.77434e-08
2.86697e-08
2.9815e-08
3.12978e-08
3.35783e-08
3.65317e-08
4.13882e-08
4.77954e-08
5.71458e-08
6.8277e-08
8.11338e-08
9.27641e-08
1.01806e-07
1.06881e-07
1.07114e-07
1.03204e-07
9.53838e-08
8.47569e-08
7.25935e-08
6.17412e-08
5.24158e-08
4.60018e-08
4.09213e-08
3.79105e-08
3.56578e-08
3.56578e-08
)
;
    }
}


// ************************************************************************* //
