/*--------------------------------*- C++ -*----------------------------------*\
| =========                 |                                                 |
| \\      /  F ield         | OpenFOAM: The Open Source CFD Toolbox           |
|  \\    /   O peration     | Version:  dev                                   |
|   \\  /    A nd           | Web:      www.OpenFOAM.org                      |
|    \\/     M anipulation  |                                                 |
\*---------------------------------------------------------------------------*/
FoamFile
{
    version     2.0;
    format      ascii;
    class       volScalarField;
    location    "0.01";
    object      A2C2HB;
}
// * * * * * * * * * * * * * * * * * * * * * * * * * * * * * * * * * * * * * //

dimensions      [0 0 0 0 0 0 0];

internalField   nonuniform List<scalar> 
25
(
1.016e-12
6.22012e-13
3.93749e-13
2.62406e-13
1.54633e-13
8.88096e-14
5.02992e-14
2.81396e-14
1.55149e-14
8.38868e-15
4.44738e-15
2.3883e-15
1.33173e-15
7.94453e-16
4.32258e-16
2.22146e-16
1.09897e-16
5.36913e-17
2.66595e-17
1.29965e-17
6.88383e-18
3.41083e-18
1.80931e-18
9.10565e-19
4.02766e-19
)
;

boundaryField
{
    wall
    {
        type            zeroGradient;
    }
    fuel
    {
        type            fixedValue;
        value           nonuniform 0();
    }
    outlet
    {
        type            inletOutlet;
        inletValue      uniform 0;
        value           uniform 4.02766e-19;
    }
    procBoundary3to2
    {
        type            processor;
        value           uniform 1.70707e-12;
    }
}


// ************************************************************************* //
