/*--------------------------------*- C++ -*----------------------------------*\
| =========                 |                                                 |
| \\      /  F ield         | OpenFOAM: The Open Source CFD Toolbox           |
|  \\    /   O peration     | Version:  dev                                   |
|   \\  /    A nd           | Web:      www.OpenFOAM.org                      |
|    \\/     M anipulation  |                                                 |
\*---------------------------------------------------------------------------*/
FoamFile
{
    version     2.0;
    format      ascii;
    class       volScalarField;
    location    "0.01";
    object      AR;
}
// * * * * * * * * * * * * * * * * * * * * * * * * * * * * * * * * * * * * * //

dimensions      [0 0 0 0 0 0 0];

internalField   nonuniform List<scalar> 
25
(
0.00168462
0.00130324
0.00102695
0.000825044
0.000615392
0.00045316
0.00033162
0.000241134
0.000173927
0.000124163
8.79548e-05
6.35677e-05
4.72141e-05
3.60669e-05
2.60134e-05
1.81059e-05
1.23433e-05
8.37904e-06
5.74813e-06
3.87568e-06
2.73001e-06
1.86535e-06
1.31585e-06
8.58615e-07
4.68845e-07
)
;

boundaryField
{
    wall
    {
        type            zeroGradient;
    }
    fuel
    {
        type            fixedValue;
        value           nonuniform 0();
    }
    outlet
    {
        type            inletOutlet;
        inletValue      uniform 0;
        value           uniform 4.68845e-07;
    }
    procBoundary3to2
    {
        type            processor;
        value           uniform 0.00223673;
    }
}


// ************************************************************************* //
