/*--------------------------------*- C++ -*----------------------------------*\
| =========                 |                                                 |
| \\      /  F ield         | OpenFOAM: The Open Source CFD Toolbox           |
|  \\    /   O peration     | Version:  dev                                   |
|   \\  /    A nd           | Web:      www.OpenFOAM.org                      |
|    \\/     M anipulation  |                                                 |
\*---------------------------------------------------------------------------*/
FoamFile
{
    version     2.0;
    format      ascii;
    class       volScalarField;
    location    "0.01";
    object      C;
}
// * * * * * * * * * * * * * * * * * * * * * * * * * * * * * * * * * * * * * //

dimensions      [0 0 0 0 0 0 0];

internalField   nonuniform List<scalar> 
250
(
1.42448e-06
1.4246e-06
1.40311e-06
1.34764e-06
1.23035e-06
9.22928e-07
3.04508e-07
1.6413e-10
6.00004e-14
2.5044e-18
1.03558e-22
1.92549e-06
1.92562e-06
1.9016e-06
1.83806e-06
1.70566e-06
1.33884e-06
5.43161e-07
4.00355e-10
5.97565e-14
2.64508e-18
1.14128e-22
7.74322e-07
7.74392e-07
7.63346e-07
7.35546e-07
6.77046e-07
5.21536e-07
2.03367e-07
1.36071e-10
8.26549e-15
4.10278e-19
1.93528e-23
2.55899e-07
2.55932e-07
2.51168e-07
2.39535e-07
2.15988e-07
1.56076e-07
5.85388e-08
1.61639e-11
1.05243e-15
5.56513e-20
3.00226e-24
9.27612e-08
9.27797e-08
9.0278e-08
8.42855e-08
7.29848e-08
4.73194e-08
1.89067e-08
2.9763e-12
1.95554e-16
1.05622e-20
3.71492e-23
4.26006e-08
4.26135e-08
4.08747e-08
3.68157e-08
2.97423e-08
1.65933e-08
6.30811e-09
9.26402e-13
6.08578e-17
3.36202e-21
3.15791e-21
2.5554e-08
2.55653e-08
2.40135e-08
2.05752e-08
1.50397e-08
7.05688e-09
1.83004e-09
2.66908e-13
1.82609e-17
1.92059e-21
1.14362e-19
1.84781e-08
1.84887e-08
1.71455e-08
1.37478e-08
9.04846e-09
3.57423e-09
4.55496e-10
6.67754e-14
4.81239e-18
4.71056e-20
2.96538e-18
1.5349e-08
1.53607e-08
1.38617e-08
1.06124e-08
6.10338e-09
2.06319e-09
9.96398e-11
1.48065e-14
1.19268e-18
4.79748e-18
3.27047e-16
1.39068e-08
1.39188e-08
1.22149e-08
8.6483e-09
4.39807e-09
1.302e-09
1.92403e-11
2.93904e-15
4.46025e-18
4.56133e-16
3.72128e-14
1.33165e-08
1.12855e-08
7.34577e-09
3.2778e-09
8.60096e-10
3.53433e-12
5.58219e-16
2.03293e-16
2.95629e-14
1.54183e-12
1.30638e-08
1.07584e-08
6.35859e-09
2.47484e-09
5.7293e-10
7.60625e-13
1.46102e-16
4.07608e-15
6.63092e-13
1.5262e-11
1.30063e-08
1.03856e-08
5.52863e-09
1.86894e-09
3.75498e-10
2.42905e-13
1.94422e-16
2.5662e-14
4.21636e-12
4.17748e-11
1.30509e-08
1.00609e-08
4.78321e-09
1.40094e-09
2.39287e-10
1.11365e-13
4.12622e-16
6.65401e-14
1.07286e-11
6.23538e-11
1.31429e-08
9.75819e-09
4.17028e-09
1.03818e-09
1.4781e-10
5.99867e-14
6.15294e-16
1.05457e-13
1.52852e-11
7.1041e-11
1.32577e-08
9.46012e-09
3.60472e-09
7.60289e-10
8.52927e-11
3.28684e-14
7.1274e-16
1.27836e-13
1.52544e-11
6.8461e-11
1.33607e-08
9.15129e-09
3.08632e-09
5.5058e-10
4.91567e-11
1.84824e-14
6.8637e-16
1.2842e-13
1.19188e-11
5.74199e-11
1.34274e-08
8.82353e-09
2.61785e-09
3.95089e-10
2.80949e-11
1.06091e-14
5.42822e-16
1.05503e-13
7.60748e-12
4.1921e-11
1.34528e-08
8.51178e-09
2.20226e-09
2.81927e-10
1.60437e-11
6.32348e-15
3.39399e-16
6.80249e-14
3.97572e-12
2.62201e-11
1.3422e-08
8.18579e-09
1.84068e-09
2.01009e-10
9.33947e-12
4.08258e-15
1.64911e-16
3.36932e-14
1.67523e-12
1.3819e-11
1.3315e-08
7.82e-09
1.53208e-09
1.44019e-10
5.29814e-12
2.92324e-15
8.14218e-17
1.45987e-14
5.69454e-13
6.20347e-12
1.31095e-08
7.46383e-09
1.27466e-09
1.04361e-10
3.2387e-12
2.56501e-15
1.91653e-16
1.19899e-14
1.7136e-13
2.46769e-12
1.28319e-08
7.09701e-09
1.05981e-09
7.69994e-11
2.04448e-12
2.712e-15
8.59789e-16
2.62389e-14
7.44095e-14
9.00088e-13
1.2444e-08
6.72195e-09
8.94292e-10
5.82288e-11
1.35673e-12
3.29474e-15
2.55046e-15
6.53958e-14
8.72157e-14
3.04012e-13
)
;

boundaryField
{
    fuel
    {
        type            fixedValue;
        value           uniform 0;
    }
    wall
    {
        type            zeroGradient;
    }
    outlet
    {
        type            zeroGradient;
    }
    frontAndBack
    {
        type            empty;
    }
    procBoundary3to0
    {
        type            processor;
        value           nonuniform List<scalar> 10(1.19663e-08 6.33782e-09 7.66671e-10 4.53963e-11 9.57995e-13 4.29096e-15 5.21924e-15 1.42754e-13 1.5316e-13 9.29978e-14);
    }
    procBoundary3to2
    {
        type            processor;
        value           nonuniform List<scalar> 
25
(
1.40214e-06
1.90049e-06
7.62822e-07
2.50937e-07
9.01578e-08
4.07931e-08
2.39417e-08
1.70886e-08
1.37986e-08
1.21432e-08
1.33017e-08
1.33017e-08
1.30432e-08
1.29806e-08
1.30192e-08
1.31045e-08
1.32135e-08
1.33021e-08
1.33617e-08
1.33782e-08
1.33372e-08
1.32146e-08
1.30095e-08
1.27203e-08
1.23217e-08
)
;
    }
}


// ************************************************************************* //
