/*--------------------------------*- C++ -*----------------------------------*\
| =========                 |                                                 |
| \\      /  F ield         | OpenFOAM: The Open Source CFD Toolbox           |
|  \\    /   O peration     | Version:  dev                                   |
|   \\  /    A nd           | Web:      www.OpenFOAM.org                      |
|    \\/     M anipulation  |                                                 |
\*---------------------------------------------------------------------------*/
FoamFile
{
    version     2.0;
    format      ascii;
    class       volScalarField;
    location    "0.01";
    object      c-C6H4;
}
// * * * * * * * * * * * * * * * * * * * * * * * * * * * * * * * * * * * * * //

dimensions      [0 0 0 0 0 0 0];

internalField   nonuniform List<scalar> 
250
(
2.46172e-06
2.46177e-06
2.45688e-06
2.44503e-06
2.41979e-06
2.30993e-06
1.59906e-06
1.16252e-07
4.02972e-08
4.45409e-08
4.64754e-08
6.99543e-06
6.99538e-06
7.02117e-06
7.0949e-06
7.27007e-06
7.65281e-06
6.3482e-06
3.53887e-07
1.3363e-07
1.5509e-07
1.6464e-07
9.00419e-06
9.00398e-06
9.07774e-06
9.28386e-06
9.79763e-06
1.11487e-05
9.20002e-06
4.84896e-07
2.53131e-07
3.03762e-07
3.2746e-07
8.83403e-06
8.8337e-06
8.95024e-06
9.27843e-06
1.01283e-05
1.24551e-05
8.01115e-06
4.90642e-07
3.86162e-07
4.74221e-07
5.12425e-07
7.64127e-06
7.64086e-06
7.78924e-06
8.21326e-06
9.35152e-06
1.24029e-05
4.76017e-06
5.29307e-07
5.15761e-07
6.31531e-07
6.77775e-07
6.19449e-06
6.19404e-06
6.36142e-06
6.85162e-06
8.22185e-06
1.16247e-05
2.33379e-06
5.82695e-07
6.23798e-07
7.42066e-07
7.84791e-07
4.8687e-06
4.86826e-06
5.0399e-06
5.5683e-06
7.10769e-06
1.04537e-05
1.22683e-06
6.3379e-07
6.95841e-07
7.83791e-07
8.15939e-07
3.68848e-06
3.68788e-06
3.91141e-06
4.44321e-06
6.15562e-06
9.0647e-06
8.73692e-07
6.72435e-07
7.2564e-07
7.58791e-07
7.82155e-07
2.74825e-06
2.74771e-06
2.97327e-06
3.60991e-06
5.4003e-06
7.5731e-06
8.13371e-07
6.94129e-07
7.17007e-07
6.90623e-07
7.10696e-07
2.04224e-06
2.04187e-06
2.27296e-06
2.91362e-06
4.82465e-06
6.08103e-06
8.3129e-07
6.99331e-07
6.81437e-07
6.09937e-07
6.3114e-07
1.57621e-06
1.7525e-06
2.39917e-06
4.39373e-06
4.70165e-06
8.56474e-07
6.91535e-07
6.32727e-07
5.39619e-07
5.58433e-07
1.22344e-06
1.40703e-06
2.02456e-06
4.0692e-06
3.52275e-06
8.74205e-07
6.75352e-07
5.82322e-07
4.88941e-07
5.00246e-07
9.63927e-07
1.14952e-06
1.75211e-06
3.81581e-06
2.58388e-06
8.82785e-07
6.55077e-07
5.37585e-07
4.56189e-07
4.59529e-07
7.65519e-07
9.38142e-07
1.55375e-06
3.60358e-06
1.88254e-06
8.83215e-07
6.3387e-07
5.01764e-07
4.37604e-07
4.36055e-07
6.10177e-07
7.69902e-07
1.4258e-06
3.40816e-06
1.38814e-06
8.77795e-07
6.13575e-07
4.747e-07
4.28364e-07
4.27587e-07
4.75927e-07
6.37835e-07
1.3378e-06
3.21098e-06
1.03539e-06
8.68909e-07
5.94875e-07
4.54053e-07
4.23595e-07
4.30855e-07
3.70163e-07
5.32739e-07
1.28182e-06
2.99995e-06
8.23333e-07
8.5854e-07
5.77789e-07
4.36404e-07
4.1886e-07
4.42264e-07
2.94336e-07
4.48202e-07
1.25162e-06
2.7692e-06
6.99419e-07
8.47184e-07
5.62014e-07
4.17524e-07
4.10271e-07
4.58204e-07
2.33985e-07
3.87001e-07
1.24192e-06
2.51922e-06
6.32644e-07
8.36296e-07
5.47302e-07
3.9291e-07
3.9443e-07
4.75084e-07
1.86179e-07
3.38527e-07
1.24784e-06
2.25594e-06
6.01725e-07
8.26227e-07
5.33879e-07
3.60723e-07
3.68875e-07
4.89355e-07
1.46535e-07
2.9767e-07
1.26479e-06
1.98896e-06
5.91044e-07
8.16986e-07
5.22514e-07
3.22496e-07
3.33734e-07
4.97716e-07
1.13835e-07
2.67897e-07
1.28827e-06
1.72938e-06
5.92448e-07
8.08493e-07
5.13887e-07
2.81627e-07
2.92599e-07
4.97535e-07
9.06176e-08
2.45354e-07
1.31427e-06
1.48764e-06
5.98693e-07
8.00571e-07
5.07726e-07
2.41765e-07
2.50245e-07
4.8711e-07
7.19278e-08
2.28831e-07
1.33618e-06
1.27209e-06
6.05893e-07
7.93004e-07
5.02874e-07
2.06117e-07
2.10597e-07
4.65437e-07
)
;

boundaryField
{
    fuel
    {
        type            fixedValue;
        value           uniform 0;
    }
    wall
    {
        type            zeroGradient;
    }
    outlet
    {
        type            zeroGradient;
    }
    frontAndBack
    {
        type            empty;
    }
    procBoundary3to0
    {
        type            processor;
        value           nonuniform List<scalar> 10(5.81526e-08 2.17078e-07 1.35062e-06 1.08845e-06 6.11402e-07 7.85685e-07 4.9812e-07 1.77316e-07 1.76613e-07 4.3123e-07);
    }
    procBoundary3to2
    {
        type            processor;
        value           nonuniform List<scalar> 
25
(
2.45663e-06
7.02224e-06
9.08089e-06
8.95522e-06
7.79544e-06
6.36824e-06
5.04658e-06
3.92093e-06
2.98246e-06
2.28175e-06
1.5764e-06
1.5764e-06
1.22385e-06
9.64001e-07
7.65454e-07
6.10901e-07
4.74439e-07
3.73935e-07
2.95969e-07
2.35071e-07
1.87156e-07
1.46573e-07
1.15593e-07
9.19375e-08
7.31951e-08
)
;
    }
}


// ************************************************************************* //
