/*--------------------------------*- C++ -*----------------------------------*\
| =========                 |                                                 |
| \\      /  F ield         | OpenFOAM: The Open Source CFD Toolbox           |
|  \\    /   O peration     | Version:  dev                                   |
|   \\  /    A nd           | Web:      www.OpenFOAM.org                      |
|    \\/     M anipulation  |                                                 |
\*---------------------------------------------------------------------------*/
FoamFile
{
    version     2.0;
    format      ascii;
    class       volScalarField;
    location    "0.01";
    object      C6H5OH;
}
// * * * * * * * * * * * * * * * * * * * * * * * * * * * * * * * * * * * * * //

dimensions      [0 0 0 0 0 0 0];

internalField   nonuniform List<scalar> 
25
(
2.4931e-09
1.54847e-09
9.93866e-10
6.69869e-10
4.00041e-10
2.32872e-10
1.33663e-10
7.57543e-11
4.2295e-11
2.31492e-11
1.24208e-11
6.75054e-12
3.80786e-12
2.29365e-12
1.2611e-12
6.55139e-13
3.27718e-13
1.61915e-13
8.12859e-14
4.00538e-14
2.14103e-14
1.07204e-14
5.74306e-15
2.91705e-15
1.30005e-15
)
;

boundaryField
{
    wall
    {
        type            zeroGradient;
    }
    fuel
    {
        type            fixedValue;
        value           nonuniform 0();
    }
    outlet
    {
        type            inletOutlet;
        inletValue      uniform 0;
        value           uniform 1.30005e-15;
    }
    procBoundary3to2
    {
        type            processor;
        value           uniform 4.12161e-09;
    }
}


// ************************************************************************* //
