/*--------------------------------*- C++ -*----------------------------------*\
| =========                 |                                                 |
| \\      /  F ield         | OpenFOAM: The Open Source CFD Toolbox           |
|  \\    /   O peration     | Version:  dev                                   |
|   \\  /    A nd           | Web:      www.OpenFOAM.org                      |
|    \\/     M anipulation  |                                                 |
\*---------------------------------------------------------------------------*/
FoamFile
{
    version     2.0;
    format      ascii;
    class       volScalarField;
    location    "0.01";
    object      CH2;
}
// * * * * * * * * * * * * * * * * * * * * * * * * * * * * * * * * * * * * * //

dimensions      [0 0 0 0 0 0 0];

internalField   nonuniform List<scalar> 
250
(
3.79074e-05
3.7908e-05
3.78132e-05
3.75628e-05
3.69959e-05
3.51787e-05
2.81909e-05
1.50341e-08
5.4792e-12
2.33143e-16
1.25181e-17
2.27168e-05
2.27171e-05
2.26744e-05
2.2563e-05
2.2332e-05
2.16432e-05
1.90937e-05
1.42358e-08
2.16266e-12
3.69808e-16
8.00294e-16
1.08324e-05
1.08328e-05
1.07932e-05
1.06989e-05
1.05024e-05
9.92565e-06
8.73078e-06
5.79497e-09
3.48934e-13
6.65107e-15
3.19142e-14
5.39132e-06
5.39165e-06
5.35194e-06
5.25629e-06
5.06528e-06
4.53244e-06
4.28179e-06
1.099e-09
7.98217e-14
1.05317e-13
8.66663e-13
3.10505e-06
3.10538e-06
3.06429e-06
2.96391e-06
2.77141e-06
2.29257e-06
2.92327e-06
4.30789e-10
9.57442e-14
1.17452e-12
1.47328e-11
2.11055e-06
2.1109e-06
2.06571e-06
1.95568e-06
1.75181e-06
1.32277e-06
2.25942e-06
3.18296e-10
3.60395e-13
9.6135e-12
1.43973e-10
1.65004e-06
1.65044e-06
1.59752e-06
1.47226e-06
1.24764e-06
8.59624e-07
1.61745e-06
2.24285e-10
1.35041e-12
5.44648e-11
7.24783e-10
1.40638e-06
1.40682e-06
1.35325e-06
1.20504e-06
9.65386e-07
6.13003e-07
1.04304e-06
1.43728e-10
3.95183e-12
1.88653e-10
1.73511e-09
1.27651e-06
1.27704e-06
1.21206e-06
1.05469e-06
7.86698e-07
4.69144e-07
6.13661e-07
8.60289e-11
8.38241e-12
3.50281e-10
1.97693e-09
1.205e-06
1.20559e-06
1.12895e-06
9.44167e-07
6.60055e-07
3.80034e-07
3.31464e-07
5.01631e-11
1.60571e-11
4.81809e-10
1.31533e-09
1.16811e-06
1.07397e-06
8.60792e-07
5.61643e-07
3.19211e-07
1.6986e-07
3.14094e-11
4.14189e-11
5.43168e-10
5.66223e-10
1.14385e-06
1.03758e-06
7.90862e-07
4.79947e-07
2.72208e-07
8.80997e-08
2.41615e-11
1.15023e-10
3.7529e-10
1.62596e-10
1.12715e-06
1.00776e-06
7.27227e-07
4.09374e-07
2.32448e-07
4.91201e-08
2.41922e-11
2.5326e-10
1.95053e-10
2.55678e-11
1.11361e-06
9.78537e-07
6.66249e-07
3.47275e-07
1.97372e-07
3.03778e-08
3.02079e-11
4.59137e-10
9.35231e-11
2.78417e-12
1.1007e-06
9.49444e-07
6.13051e-07
2.92467e-07
1.66187e-07
2.09279e-08
4.39883e-11
7.01618e-10
5.03256e-11
4.51181e-13
1.08556e-06
9.20241e-07
5.61276e-07
2.44576e-07
1.37118e-07
1.5899e-08
6.87499e-11
8.40441e-10
3.40642e-11
2.73462e-13
1.06879e-06
8.90301e-07
5.11131e-07
2.0326e-07
1.13133e-07
1.31408e-08
1.09351e-10
7.74447e-10
2.87851e-11
5.35438e-13
1.05196e-06
8.59319e-07
4.63068e-07
1.68184e-07
9.30098e-08
1.16187e-08
1.83872e-10
5.74974e-10
2.84541e-11
1.57336e-12
1.03287e-06
8.30743e-07
4.17633e-07
1.38953e-07
7.64107e-08
1.09003e-08
3.64739e-10
3.50309e-10
3.06505e-11
4.30145e-12
1.01121e-06
8.01752e-07
3.75318e-07
1.15065e-07
6.31824e-08
1.07238e-08
8.82709e-10
2.43799e-10
3.54301e-11
8.86999e-12
9.85217e-07
7.70115e-07
3.36507e-07
9.59245e-08
5.16785e-08
1.09217e-08
2.0738e-09
2.34512e-10
4.80616e-11
1.36971e-11
9.54128e-07
7.40046e-07
3.01618e-07
8.08758e-08
4.33354e-08
1.13758e-08
3.89801e-09
3.09496e-10
8.48398e-11
1.7015e-11
9.22767e-07
7.09684e-07
2.70158e-07
6.92529e-08
3.66552e-08
1.19863e-08
5.66621e-09
4.92851e-10
1.79459e-10
2.00633e-11
8.86823e-07
6.7906e-07
2.43912e-07
6.04146e-08
3.14451e-08
1.26673e-08
6.74821e-09
8.25701e-10
3.76649e-10
2.48137e-11
)
;

boundaryField
{
    fuel
    {
        type            fixedValue;
        value           uniform 0;
    }
    wall
    {
        type            zeroGradient;
    }
    outlet
    {
        type            zeroGradient;
    }
    frontAndBack
    {
        type            empty;
    }
    procBoundary3to0
    {
        type            processor;
        value           nonuniform List<scalar> 10(8.4909e-07 6.48013e-07 2.21994e-07 5.36803e-08 2.74392e-08 1.33398e-08 7.03774e-09 1.34799e-09 7.14803e-10 3.00181e-11);
    }
    procBoundary3to2
    {
        type            processor;
        value           nonuniform List<scalar> 
25
(
3.78087e-05
2.26723e-05
1.07912e-05
5.34997e-06
3.06231e-06
2.06358e-06
1.59503e-06
1.35092e-06
1.20921e-06
1.12555e-06
1.16737e-06
1.16737e-06
1.14285e-06
1.12588e-06
1.11208e-06
1.099e-06
1.08317e-06
1.06698e-06
1.0495e-06
1.03005e-06
1.00805e-06
9.8093e-07
9.51268e-07
9.19308e-07
8.83134e-07
)
;
    }
}


// ************************************************************************* //
