/*--------------------------------*- C++ -*----------------------------------*\
| =========                 |                                                 |
| \\      /  F ield         | OpenFOAM: The Open Source CFD Toolbox           |
|  \\    /   O peration     | Version:  dev                                   |
|   \\  /    A nd           | Web:      www.OpenFOAM.org                      |
|    \\/     M anipulation  |                                                 |
\*---------------------------------------------------------------------------*/
FoamFile
{
    version     2.0;
    format      ascii;
    class       volScalarField;
    location    "0.01";
    object      HCCO;
}
// * * * * * * * * * * * * * * * * * * * * * * * * * * * * * * * * * * * * * //

dimensions      [0 0 0 0 0 0 0];

internalField   nonuniform List<scalar> 
250
(
0.000104029
0.00010403
0.000104256
0.00010457
0.000105482
0.000106801
0.000108735
0.000111203
0.000115605
0.00012615
5.74687e-08
4.81369e-05
4.81379e-05
4.82251e-05
4.84338e-05
4.89424e-05
4.9684e-05
5.07455e-05
5.21686e-05
5.46494e-05
6.14582e-05
4.67009e-08
2.17893e-05
2.17898e-05
2.18272e-05
2.19469e-05
2.22272e-05
2.26135e-05
2.31596e-05
2.38783e-05
2.50603e-05
2.90905e-05
2.51187e-08
1.06666e-05
1.06668e-05
1.06821e-05
1.07476e-05
1.0872e-05
1.10736e-05
1.13537e-05
1.17055e-05
1.22506e-05
1.53815e-05
1.30867e-08
5.89137e-06
5.89145e-06
5.89363e-06
5.9338e-06
5.97882e-06
6.08154e-06
6.20662e-06
6.361e-06
6.62632e-06
9.64252e-06
6.93892e-09
3.71227e-06
3.71247e-06
3.73658e-06
3.76494e-06
3.74484e-06
3.79756e-06
3.8039e-06
3.84495e-06
4.02278e-06
7.13888e-06
3.46415e-09
2.6727e-06
2.6728e-06
2.64969e-06
2.62194e-06
2.65264e-06
2.56069e-06
2.57648e-06
2.55275e-06
2.75362e-06
5.90796e-06
1.48332e-09
2.12397e-06
2.12413e-06
2.12243e-06
2.08586e-06
2.04603e-06
1.94132e-06
1.88677e-06
1.83345e-06
2.11648e-06
4.95905e-06
1.2372e-09
1.79494e-06
1.79512e-06
1.78913e-06
1.75972e-06
1.67913e-06
1.56408e-06
1.46096e-06
1.40977e-06
1.79757e-06
3.86704e-06
1.21448e-09
1.59024e-06
1.59046e-06
1.58083e-06
1.55103e-06
1.44072e-06
1.30916e-06
1.17588e-06
1.1524e-06
1.63888e-06
2.8029e-06
1.70253e-09
1.46282e-06
1.45099e-06
1.40544e-06
1.28635e-06
1.11944e-06
9.74181e-07
9.92731e-07
1.53979e-06
1.96255e-06
3.49728e-09
1.36415e-06
1.35116e-06
1.29221e-06
1.15709e-06
9.66951e-07
8.28239e-07
8.92132e-07
1.42888e-06
1.32123e-06
7.98489e-09
1.28182e-06
1.26031e-06
1.19663e-06
1.05073e-06
8.38518e-07
7.22729e-07
8.30624e-07
1.26823e-06
8.40699e-07
1.70365e-08
1.20967e-06
1.18616e-06
1.11157e-06
9.54325e-07
7.28444e-07
6.46195e-07
7.95733e-07
1.06356e-06
5.08279e-07
3.20808e-08
1.13504e-06
1.11587e-06
1.03338e-06
8.65821e-07
6.34778e-07
5.89278e-07
7.72646e-07
8.55807e-07
2.71634e-07
5.15822e-08
1.0646e-06
1.04809e-06
9.68743e-07
7.84098e-07
5.56971e-07
5.46463e-07
7.41499e-07
6.89668e-07
1.27815e-07
6.82954e-08
9.99902e-07
9.86535e-07
9.03766e-07
7.08702e-07
4.94243e-07
5.15851e-07
6.88627e-07
5.79995e-07
5.9441e-08
7.48335e-08
9.41573e-07
9.27533e-07
8.41012e-07
6.39723e-07
4.44707e-07
4.95595e-07
6.13444e-07
5.11756e-07
3.01302e-08
8.02977e-08
8.84445e-07
8.68389e-07
7.88145e-07
5.77464e-07
4.05651e-07
4.8062e-07
5.28913e-07
4.59094e-07
1.81171e-08
9.66956e-08
8.29384e-07
8.17229e-07
7.38995e-07
5.19369e-07
3.74761e-07
4.63828e-07
4.2881e-07
4.04828e-07
1.42227e-08
1.0103e-07
7.7406e-07
7.68955e-07
6.93319e-07
4.71195e-07
3.5075e-07
4.40484e-07
3.57806e-07
3.48559e-07
1.5347e-08
7.70059e-08
7.2332e-07
7.19225e-07
6.50868e-07
4.27012e-07
3.32222e-07
4.09769e-07
3.05212e-07
2.97575e-07
2.2099e-08
4.54432e-08
6.70214e-07
6.759e-07
6.11566e-07
3.92658e-07
3.17705e-07
3.74077e-07
2.68136e-07
2.58585e-07
3.83696e-08
2.3938e-08
6.22783e-07
6.32284e-07
5.75262e-07
3.63924e-07
3.05679e-07
3.37255e-07
2.41196e-07
2.33362e-07
6.57056e-08
1.30911e-08
)
;

boundaryField
{
    fuel
    {
        type            fixedValue;
        value           uniform 0;
    }
    wall
    {
        type            zeroGradient;
    }
    outlet
    {
        type            zeroGradient;
    }
    frontAndBack
    {
        type            empty;
    }
    procBoundary3to0
    {
        type            processor;
        value           nonuniform List<scalar> 10(5.7711e-07 5.93071e-07 5.41267e-07 3.39858e-07 2.94649e-07 3.03155e-07 2.19601e-07 2.1755e-07 9.20628e-08 8.67726e-09);
    }
    procBoundary3to2
    {
        type            processor;
        value           nonuniform List<scalar> 
25
(
0.000104172
4.82125e-05
2.18247e-05
1.06816e-05
5.89347e-06
3.73645e-06
2.64955e-06
2.12222e-06
1.78886e-06
1.5805e-06
1.46257e-06
1.46257e-06
1.36391e-06
1.28159e-06
1.20946e-06
1.13495e-06
1.06475e-06
9.99216e-07
9.41041e-07
8.84073e-07
8.29091e-07
7.73487e-07
7.22754e-07
6.69814e-07
6.22391e-07
)
;
    }
}


// ************************************************************************* //
