/*--------------------------------*- C++ -*----------------------------------*\
| =========                 |                                                 |
| \\      /  F ield         | OpenFOAM: The Open Source CFD Toolbox           |
|  \\    /   O peration     | Version:  dev                                   |
|   \\  /    A nd           | Web:      www.OpenFOAM.org                      |
|    \\/     M anipulation  |                                                 |
\*---------------------------------------------------------------------------*/
FoamFile
{
    version     2.0;
    format      ascii;
    class       volScalarField;
    location    "0.01";
    object      l-C6H6;
}
// * * * * * * * * * * * * * * * * * * * * * * * * * * * * * * * * * * * * * //

dimensions      [0 0 0 0 0 0 0];

internalField   nonuniform List<scalar> 
250
(
4.31901e-08
4.31915e-08
4.30829e-08
4.44134e-08
4.56574e-08
4.92031e-08
5.37015e-08
6.2774e-08
8.68869e-08
2.01332e-07
1.631e-08
2.89782e-08
2.89794e-08
2.90157e-08
2.93929e-08
2.98654e-08
3.10106e-08
3.26022e-08
3.52922e-08
4.13674e-08
6.14598e-08
4.37315e-08
2.40134e-08
2.40141e-08
2.40947e-08
2.44016e-08
2.49524e-08
2.60148e-08
2.76114e-08
3.00459e-08
3.42626e-08
3.71242e-08
7.59803e-08
1.97497e-08
1.975e-08
1.98511e-08
2.02176e-08
2.08945e-08
2.21904e-08
2.42221e-08
2.73739e-08
3.2046e-08
2.84049e-08
1.13099e-07
1.56561e-08
1.56561e-08
1.57686e-08
1.62122e-08
1.6978e-08
1.8519e-08
2.10041e-08
2.49599e-08
2.95655e-08
2.17978e-08
1.54235e-07
1.20601e-08
1.20605e-08
1.22548e-08
1.27621e-08
1.3558e-08
1.53387e-08
1.8201e-08
2.27913e-08
2.61465e-08
2.05977e-08
1.97235e-07
9.22127e-09
9.22156e-09
9.30814e-09
9.67039e-09
1.08193e-08
1.25043e-08
1.59809e-08
2.08513e-08
2.19079e-08
3.4585e-08
2.38787e-07
7.00574e-09
7.0063e-09
7.19154e-09
7.55901e-09
8.6065e-09
1.05461e-08
1.4316e-08
1.89692e-08
1.74392e-08
7.86621e-08
2.7591e-07
5.22879e-09
5.22944e-09
5.41186e-09
5.87053e-09
6.87942e-09
9.12121e-09
1.30888e-08
1.69502e-08
1.38387e-08
1.61415e-07
3.06693e-07
3.9177e-09
3.91856e-09
4.09554e-09
4.60745e-09
5.61254e-09
8.12319e-09
1.21173e-08
1.47204e-08
1.28719e-08
2.71541e-07
3.29872e-07
3.05727e-09
3.23226e-09
3.68976e-09
4.79667e-09
7.44902e-09
1.12364e-08
1.23684e-08
1.72193e-08
3.76095e-07
3.44979e-07
2.41596e-09
2.59334e-09
3.01465e-09
4.18615e-09
7.00392e-09
1.03159e-08
1.01838e-08
3.10148e-08
4.42856e-07
3.5225e-07
1.93115e-09
2.06832e-09
2.50786e-09
3.7743e-09
6.7031e-09
9.28454e-09
8.70242e-09
5.98265e-08
4.64926e-07
3.52425e-07
1.56029e-09
1.69203e-09
2.11887e-09
3.48871e-09
6.46982e-09
8.14774e-09
8.85624e-09
1.08616e-07
4.56607e-07
3.46501e-07
1.23454e-09
1.38386e-09
1.81315e-09
3.30487e-09
6.23747e-09
6.99856e-09
1.23357e-08
1.77423e-07
4.34471e-07
3.35561e-07
9.74456e-10
1.12793e-09
1.59626e-09
3.20177e-09
5.95511e-09
6.02522e-09
2.15627e-08
2.58315e-07
4.09852e-07
3.20745e-07
7.72318e-10
9.2849e-10
1.40999e-09
3.16127e-09
5.5948e-09
5.5363e-09
3.95035e-08
3.38033e-07
3.86903e-07
3.03283e-07
6.18834e-10
7.63815e-10
1.25689e-09
3.16703e-09
5.15702e-09
6.03134e-09
6.8495e-08
4.03923e-07
3.66068e-07
2.84509e-07
4.92191e-10
6.21494e-10
1.14768e-09
3.20373e-09
4.67167e-09
8.27833e-09
1.07909e-07
4.48913e-07
3.46976e-07
2.65753e-07
3.89978e-10
5.15049e-10
1.06362e-09
3.26143e-09
4.19566e-09
1.31168e-08
1.698e-07
4.72703e-07
3.29377e-07
2.48102e-07
3.04859e-10
4.28639e-10
1.00119e-09
3.31505e-09
3.8117e-09
2.10706e-08
2.24582e-07
4.79997e-07
3.13345e-07
2.32155e-07
2.4057e-10
3.52809e-10
9.57698e-10
3.35755e-09
3.5945e-09
3.22488e-08
2.77143e-07
4.77329e-07
2.99234e-07
2.18021e-07
1.85843e-10
2.96553e-10
9.26644e-10
3.36337e-09
3.58871e-09
4.59387e-08
3.22839e-07
4.70312e-07
2.87578e-07
2.05403e-07
1.46199e-10
2.4842e-10
9.00496e-10
3.33416e-09
3.78108e-09
6.05834e-08
3.5852e-07
4.62308e-07
2.78796e-07
1.9329e-07
)
;

boundaryField
{
    fuel
    {
        type            fixedValue;
        value           uniform 0;
    }
    wall
    {
        type            zeroGradient;
    }
    outlet
    {
        type            zeroGradient;
    }
    frontAndBack
    {
        type            empty;
    }
    procBoundary3to0
    {
        type            processor;
        value           nonuniform List<scalar> 10(1.15374e-10 2.11601e-10 8.7228e-10 3.27188e-09 4.08799e-09 7.40098e-08 3.8241e-07 4.54042e-07 2.71874e-07 1.80061e-07);
    }
    procBoundary3to2
    {
        type            processor;
        value           nonuniform List<scalar> 
25
(
4.35047e-08
2.90773e-08
2.41055e-08
1.98532e-08
1.57692e-08
1.2255e-08
9.30826e-09
7.19146e-09
5.41172e-09
4.09537e-09
3.05644e-09
3.05644e-09
2.41529e-09
1.93061e-09
1.55994e-09
1.23466e-09
9.75463e-10
7.70902e-10
6.17959e-10
4.91848e-10
3.89916e-10
3.04499e-10
2.40303e-10
1.85801e-10
1.46228e-10
)
;
    }
}


// ************************************************************************* //
