/*--------------------------------*- C++ -*----------------------------------*\
| =========                 |                                                 |
| \\      /  F ield         | OpenFOAM: The Open Source CFD Toolbox           |
|  \\    /   O peration     | Version:  dev                                   |
|   \\  /    A nd           | Web:      www.OpenFOAM.org                      |
|    \\/     M anipulation  |                                                 |
\*---------------------------------------------------------------------------*/
FoamFile
{
    version     2.0;
    format      ascii;
    class       volScalarField;
    location    "0.01";
    object      N2;
}
// * * * * * * * * * * * * * * * * * * * * * * * * * * * * * * * * * * * * * //

dimensions      [0 0 0 0 0 0 0];

internalField   nonuniform List<scalar> 
1989
(
0.542965
0.541182
0.540099
0.539117
0.538853
0.538433
0.538096
0.537718
0.537256
0.536951
0.536652
0.536517
0.536331
0.536278
0.536265
0.536292
0.53645
0.536551
0.536801
0.537064
0.537463
0.537799
0.538122
0.538506
0.538784
0.539811
0.540852
0.542806
0.545697
0.551372
0.559808
0.575601
0.59561
0.625025
0.659603
0.701026
0.742643
0.783633
0.817925
0.827842
0.794745
0.755119
0.714764
0.674431
0.64064
0.611894
0.592253
0.577169
0.568731
0.563096
0.560413
0.558624
0.557898
0.55695
0.556409
0.55593
0.555605
0.555236
0.554782
0.554498
0.554201
0.554056
0.553867
0.553817
0.553803
0.553829
0.553985
0.554096
0.554343
0.554587
0.554979
0.555306
0.555606
0.556061
0.556623
0.557606
0.558485
0.560263
0.563073
0.568837
0.577435
0.592634
0.612338
0.64127
0.675149
0.71552
0.755874
0.795461
0.828498
0.838284
0.806486
0.768316
0.729283
0.690094
0.657025
0.628857
0.60951
0.594632
0.586347
0.580707
0.578069
0.576288
0.575493
0.574606
0.574085
0.57364
0.57331
0.572945
0.572506
0.572237
0.571938
0.571789
0.571598
0.57155
0.571535
0.571561
0.571715
0.57183
0.572078
0.572308
0.572688
0.57301
0.573309
0.573738
0.574278
0.575199
0.576076
0.577921
0.580676
0.586438
0.594872
0.609878
0.629406
0.65764
0.690799
0.730018
0.769045
0.807171
0.838915
0.848544
0.818078
0.781414
0.743762
0.705764
0.673492
0.645944
0.626935
0.612269
0.604138
0.598502
0.595897
0.594116
0.593277
0.592437
0.591933
0.591516
0.591178
0.590818
0.590396
0.590136
0.589831
0.589681
0.589489
0.589443
0.589427
0.589451
0.589603
0.58972
0.589971
0.590193
0.590562
0.590879
0.591184
0.591588
0.59211
0.592982
0.593887
0.595749
0.598468
0.604221
0.612493
0.627297
0.646441
0.674092
0.70645
0.744477
0.782118
0.818733
0.849146
0.858585
0.829497
0.794379
0.758163
0.721424
0.690094
0.66312
0.64449
0.630046
0.622068
0.616445
0.613863
0.612082
0.611215
0.61041
0.609916
0.609524
0.609179
0.608825
0.608417
0.608152
0.607844
0.607696
0.607504
0.607459
0.607441
0.607464
0.607616
0.607731
0.607984
0.608199
0.60857
0.608881
0.609194
0.609576
0.610085
0.610921
0.611852
0.613718
0.616411
0.622147
0.630261
0.644847
0.663601
0.690684
0.722093
0.758857
0.79506
0.830124
0.859165
0.868388
0.840714
0.807176
0.772446
0.737031
0.706603
0.680346
0.662128
0.647922
0.640097
0.634498
0.631933
0.630152
0.629269
0.628488
0.628002
0.627627
0.627276
0.626931
0.62653
0.626293
0.625973
0.625812
0.62561
0.625563
0.625544
0.625566
0.625728
0.625852
0.626129
0.626345
0.626675
0.62698
0.627301
0.627668
0.628166
0.628978
0.629925
0.631791
0.634466
0.640175
0.648134
0.662481
0.68082
0.707177
0.737683
0.773118
0.807832
0.841336
0.868944
0.87792
0.851682
0.819767
0.786567
0.752532
0.723064
0.697568
0.679801
0.665856
0.658184
0.652621
0.65007
0.648288
0.647398
0.646633
0.646151
0.645791
0.645435
0.645099
0.644697
0.64445
0.644124
0.643966
0.643765
0.643718
0.643697
0.643717
0.643879
0.644
0.644281
0.644498
0.644843
0.645142
0.645471
0.645822
0.646315
0.647111
0.648065
0.649931
0.652592
0.658263
0.666067
0.68015
0.698035
0.723623
0.753164
0.787216
0.820397
0.852272
0.878451
0.887411
0.86238
0.832117
0.800483
0.767885
0.739469
0.714737
0.697457
0.683878
0.676284
0.670773
0.668238
0.666448
0.665558
0.664803
0.664354
0.664002
0.663637
0.66329
0.662876
0.662621
0.662285
0.662129
0.661929
0.661884
0.661862
0.661879
0.662041
0.662157
0.662445
0.662667
0.663031
0.663338
0.663675
0.664021
0.664489
0.665276
0.66623
0.668102
0.670748
0.676365
0.68409
0.6978
0.715194
0.740015
0.768497
0.801109
0.832721
0.862933
0.887918
0.896406
0.872806
0.844191
0.814152
0.783035
0.75569
0.731803
0.715038
0.70178
0.69435
0.688955
0.6864
0.684588
0.6837
0.682947
0.682497
0.682151
0.681784
0.681445
0.681025
0.680748
0.680408
0.680259
0.680063
0.68002
0.679999
0.680011
0.68017
0.680279
0.680565
0.680792
0.681188
0.681489
0.681832
0.682173
0.682638
0.683425
0.684374
0.686265
0.68893
0.694434
0.70199
0.715374
0.732248
0.756218
0.783623
0.814753
0.844768
0.873316
0.896874
0.905032
0.882985
0.855957
0.82753
0.797928
0.771714
0.748712
0.73249
0.719582
0.712329
0.707015
0.704477
0.70266
0.701776
0.70102
0.700563
0.70022
0.699848
0.699519
0.699099
0.698875
0.698559
0.698408
0.698206
0.69816
0.69814
0.698151
0.698319
0.698432
0.698714
0.698925
0.699265
0.699559
0.699908
0.700247
0.700717
0.701507
0.702452
0.704345
0.706994
0.712415
0.719791
0.732818
0.749144
0.772224
0.798493
0.828106
0.856507
0.883519
0.905478
0.913326
0.892806
0.867382
0.840587
0.81252
0.787491
0.765412
0.749761
0.737234
0.730169
0.724943
0.722427
0.720612
0.719735
0.718968
0.718508
0.718163
0.717787
0.717466
0.717048
0.716807
0.716491
0.716349
0.716152
0.716109
0.71609
0.716096
0.716261
0.716366
0.716641
0.716854
0.717215
0.717504
0.717858
0.718201
0.718674
0.719474
0.720409
0.722299
0.724927
0.730257
0.737439
0.750079
0.76583
0.787981
0.813061
0.841131
0.867907
0.893286
0.913748
0.921257
0.902147
0.878425
0.853269
0.826768
0.802966
0.78185
0.766795
0.754682
0.747816
0.742688
0.740199
0.738393
0.737522
0.736757
0.736282
0.735932
0.735551
0.735236
0.734826
0.734583
0.734265
0.734128
0.733934
0.733893
0.733873
0.733877
0.734039
0.734138
0.734413
0.734628
0.734991
0.735274
0.735635
0.735983
0.736468
0.73727
0.738197
0.740076
0.742676
0.747905
0.754883
0.767103
0.782253
0.803437
0.827284
0.853785
0.878927
0.902595
0.921656
0.928828
0.911102
0.889123
0.865558
0.840625
0.818089
0.797969
0.783537
0.771868
0.765214
0.760198
0.757742
0.755949
0.755085
0.754309
0.753833
0.753476
0.753091
0.752784
0.75238
0.752141
0.751826
0.751693
0.7515
0.751462
0.751441
0.751443
0.751602
0.751697
0.75197
0.752183
0.752543
0.752821
0.753188
0.753542
0.754031
0.75484
0.75576
0.757624
0.760189
0.765303
0.772065
0.783834
0.798357
0.81854
0.841116
0.866046
0.889589
0.911523
0.929194
0.935991
0.919646
0.899298
0.877416
0.854048
0.832808
0.813717
0.799931
0.788737
0.782304
0.777417
0.775
0.773225
0.772367
0.771584
0.771106
0.770745
0.770354
0.770055
0.769658
0.769425
0.769115
0.768988
0.768797
0.768761
0.768739
0.768739
0.768897
0.768987
0.769256
0.769465
0.76982
0.770092
0.770465
0.770824
0.771315
0.772132
0.773044
0.77489
0.777409
0.782393
0.788927
0.800217
0.814087
0.833237
0.854514
0.877888
0.899736
0.920042
0.936333
0.942753
0.92776
0.909007
0.888784
0.866993
0.847073
0.829038
0.815919
0.805228
0.79903
0.794292
0.791912
0.790166
0.789314
0.788526
0.788048
0.787683
0.787288
0.786998
0.786607
0.786383
0.78608
0.785957
0.78577
0.785735
0.785713
0.785712
0.785866
0.785952
0.786216
0.786419
0.786769
0.787034
0.787413
0.787776
0.788268
0.789089
0.789994
0.791817
0.794279
0.799118
0.805413
0.816193
0.829391
0.84748
0.867433
0.889222
0.909415
0.928131
0.943071
0.949112
0.935425
0.918224
0.899615
0.879451
0.860835
0.843878
0.831447
0.821285
0.815333
0.810747
0.808442
0.806715
0.805871
0.80508
0.804603
0.804236
0.803838
0.803557
0.803176
0.802958
0.802663
0.802546
0.802362
0.80233
0.802307
0.802304
0.802456
0.802537
0.802794
0.802992
0.803334
0.803594
0.803976
0.804342
0.804833
0.805656
0.806552
0.808348
0.810742
0.815419
0.821463
0.831708
0.844213
0.86122
0.879864
0.900023
0.918602
0.935774
0.949399
0.955052
0.942626
0.926928
0.909902
0.891325
0.87405
0.858187
0.84646
0.836849
0.831155
0.826743
0.824513
0.822817
0.821982
0.821191
0.820716
0.820349
0.819951
0.819678
0.819308
0.819097
0.818811
0.8187
0.81852
0.818489
0.818467
0.818463
0.818611
0.818687
0.818937
0.819132
0.819461
0.819716
0.820099
0.820468
0.820955
0.821778
0.822663
0.824425
0.826742
0.831239
0.83702
0.846708
0.858504
0.874411
0.891712
0.910279
0.927276
0.942957
0.955312
0.960581
0.94937
0.935097
0.919622
0.902612
0.886675
0.871915
0.860905
0.851863
0.846439
0.842225
0.840072
0.838415
0.837592
0.836804
0.836334
0.835965
0.835573
0.835307
0.83495
0.834747
0.83447
0.834365
0.834189
0.834161
0.834138
0.834133
0.834277
0.834349
0.83459
0.834781
0.835097
0.835349
0.835727
0.836098
0.83658
0.837399
0.838271
0.839992
0.842226
0.846522
0.852027
0.86114
0.872214
0.887013
0.902973
0.919969
0.935417
0.949677
0.960807
0.965692
0.955619
0.942714
0.928756
0.91328
0.898669
0.885019
0.874734
0.866269
0.861134
0.857136
0.855067
0.853456
0.852649
0.851866
0.851403
0.851035
0.850649
0.85039
0.850051
0.849853
0.849588
0.849488
0.849317
0.84929
0.849268
0.849262
0.849402
0.84947
0.849702
0.849887
0.85019
0.850436
0.850809
0.851179
0.851654
0.852467
0.853321
0.854994
0.85714
0.861213
0.866426
0.874955
0.885299
0.898984
0.913615
0.929073
0.943008
0.955917
0.96588
0.970369
0.961419
0.949787
0.937288
0.923299
0.909997
0.897458
0.887933
0.880008
0.875188
0.87143
0.869445
0.867888
0.867099
0.866324
0.865869
0.865506
0.865128
0.864878
0.864556
0.864365
0.864112
0.864018
0.863853
0.863828
0.863806
0.863799
0.863935
0.863998
0.86422
0.864399
0.864688
0.864927
0.865291
0.865658
0.866125
0.866929
0.867763
0.869379
0.871436
0.875264
0.880157
0.888143
0.897719
0.910287
0.923609
0.937576
0.950049
0.961716
0.970519
0.974604
0.966836
0.956267
0.945202
0.932645
0.920626
0.909201
0.900378
0.893195
0.888642
0.885059
0.883156
0.88166
0.880893
0.880121
0.879678
0.879324
0.878961
0.878722
0.87842
0.878235
0.877994
0.877907
0.877748
0.877724
0.877703
0.877695
0.877826
0.877885
0.878096
0.878268
0.878544
0.878773
0.879123
0.879479
0.879935
0.880736
0.881545
0.883097
0.885066
0.888715
0.893335
0.900573
0.909443
0.920891
0.93293
0.945466
0.956502
0.967085
0.97475
0.978361
0.971797
0.962311
0.952488
0.941296
0.93053
0.920221
0.912054
0.905497
0.901278
0.897958
0.896153
0.894726
0.893986
0.893261
0.892836
0.892484
0.892122
0.89188
0.891595
0.891418
0.89119
0.891108
0.890957
0.890935
0.890914
0.890906
0.891031
0.891086
0.891285
0.89145
0.891713
0.891943
0.892298
0.892657
0.893087
0.893841
0.89462
0.896099
0.897967
0.901347
0.905629
0.912233
0.920447
0.930769
0.941555
0.952723
0.962541
0.971979
0.978501
0.981726
0.975905
0.968113
0.95911
0.949253
0.93969
0.930438
0.922992
0.917037
0.913139
0.910088
0.908391
0.907044
0.906334
0.905622
0.905215
0.904877
0.904534
0.904305
0.90404
0.903871
0.903657
0.903581
0.903438
0.903418
0.903398
0.903389
0.903508
0.903559
0.903746
0.903903
0.90415
0.904367
0.904706
0.905049
0.905462
0.9062
0.906948
0.908344
0.910099
0.913206
0.91716
0.923158
0.930644
0.939902
0.949482
0.959325
0.968315
0.976062
0.981854
0.984734
0.979654
0.973031
0.965392
0.956487
0.948101
0.939799
0.933194
0.927784
0.924192
0.921417
0.919833
0.918575
0.9179
0.917217
0.916829
0.916506
0.916179
0.915964
0.915718
0.915559
0.91536
0.91529
0.915155
0.915136
0.915118
0.915109
0.915221
0.915268
0.915441
0.915589
0.915821
0.916025
0.916349
0.916677
0.917071
0.917779
0.918489
0.919792
0.921429
0.924258
0.927895
0.933349
0.939981
0.948285
0.956679
0.965603
0.973199
0.979793
0.984851
0.9874
0.982997
0.977356
0.97087
0.96323
0.955781
0.948378
0.942558
0.937686
0.934439
0.931918
0.93045
0.929289
0.928654
0.928008
0.927643
0.927336
0.927026
0.926825
0.926597
0.92645
0.926267
0.926203
0.926077
0.92606
0.926043
0.926034
0.926138
0.926181
0.92634
0.926479
0.926694
0.926885
0.927192
0.927504
0.927875
0.928544
0.929212
0.930415
0.93193
0.934498
0.937793
0.942696
0.948535
0.955937
0.963426
0.971041
0.977499
0.983119
0.9875
0.989707
0.985987
0.981174
0.975669
0.969204
0.962803
0.956211
0.951066
0.946759
0.943834
0.941567
0.940219
0.939163
0.938572
0.937969
0.93763
0.937342
0.937052
0.936866
0.936657
0.936521
0.936354
0.936296
0.93618
0.936164
0.936148
0.936139
0.936236
0.936275
0.93642
0.936549
0.936746
0.936924
0.937213
0.937505
0.93785
0.938475
0.939096
0.940189
0.941579
0.943888
0.94686
0.951183
0.956346
0.962963
0.96937
0.975811
0.981297
0.986091
0.989792
0.991729
0.988541
0.984549
0.979892
0.974455
0.968977
0.963356
0.958773
0.954996
0.952371
0.950347
0.949126
0.948183
0.947642
0.947088
0.946776
0.946511
0.946243
0.946072
0.945881
0.945757
0.945606
0.945553
0.945447
0.945433
0.945418
0.94541
0.945498
0.945534
0.945665
0.945783
0.945964
0.946127
0.946396
0.946665
0.946982
0.947556
0.948125
0.949101
0.95036
0.95242
0.95509
0.958863
0.963497
0.969111
0.974594
0.98001
0.984655
0.98863
0.9918
0.993468
0.990763
0.987434
0.983587
0.979044
0.97443
0.969708
0.96562
0.962388
0.960048
0.958372
0.957259
0.956419
0.955911
0.955396
0.955102
0.954852
0.954599
0.954439
0.954263
0.954149
0.954013
0.953965
0.953869
0.953857
0.953843
0.953836
0.953915
0.953948
0.954066
0.954174
0.954341
0.954493
0.954749
0.955003
0.955301
0.955835
0.956369
0.957238
0.958386
0.960095
0.962472
0.965708
0.969827
0.974543
0.979158
0.983692
0.987524
0.99084
0.993524
0.994818
0.992782
0.989914
0.98675
0.983014
0.979171
0.975244
0.971771
0.96894
0.96687
0.965452
0.964448
0.963726
0.96327
0.96281
0.962546
0.962321
0.962092
0.961949
0.961792
0.96169
0.96157
0.961527
0.961442
0.961431
0.961419
0.961412
0.961482
0.961512
0.961616
0.961713
0.961862
0.961999
0.962231
0.96246
0.962727
0.963205
0.963685
0.96443
0.96547
0.966914
0.969011
0.97186
0.975343
0.979266
0.983109
0.986836
0.989989
0.992846
0.994863
0.995965
0.994317
0.992153
0.989446
0.986408
0.983238
0.980041
0.9771
0.974723
0.972929
0.971697
0.970812
0.970185
0.96978
0.969377
0.969145
0.968946
0.968743
0.968617
0.968482
0.96839
0.968287
0.96825
0.968175
0.968166
0.968154
0.968148
0.96821
0.968236
0.968326
0.968412
0.968543
0.968662
0.96887
0.969072
0.969306
0.969726
0.970151
0.970802
0.971709
0.972965
0.97479
0.977164
0.980123
0.983317
0.986486
0.989517
0.992217
0.994368
0.996002
0.996918
0.995587
0.993866
0.991857
0.98927
0.986681
0.984066
0.981688
0.979711
0.978166
0.97713
0.976385
0.975872
0.975512
0.975161
0.974955
0.974776
0.974594
0.97448
0.974361
0.974279
0.97419
0.974156
0.974091
0.974083
0.974073
0.974068
0.974122
0.974145
0.974223
0.974298
0.974416
0.974523
0.97471
0.974893
0.975101
0.975465
0.975843
0.976375
0.977143
0.978198
0.979769
0.981748
0.984133
0.986745
0.989337
0.991916
0.993916
0.995627
0.996948
0.997675
0.996645
0.995259
0.993692
0.991783
0.989603
0.987494
0.985543
0.983937
0.982647
0.981806
0.981155
0.980732
0.980419
0.980124
0.979949
0.979794
0.979638
0.979539
0.979439
0.979368
0.979294
0.979264
0.979209
0.979202
0.979193
0.979189
0.979235
0.979255
0.97932
0.979385
0.979486
0.979578
0.979739
0.979897
0.980074
0.980381
0.980708
0.981149
0.981818
0.982675
0.983984
0.985593
0.987551
0.989655
0.991837
0.993738
0.995299
0.99668
0.997695
0.998273
0.997493
0.996393
0.995186
0.993707
0.992063
0.990374
0.988786
0.987484
0.986446
0.985748
0.985201
0.98486
0.984586
0.984344
0.984198
0.984063
0.983931
0.983847
0.983761
0.983698
0.983637
0.983611
0.983565
0.983559
0.983552
0.983548
0.983586
0.983604
0.983658
0.983715
0.983804
0.983881
0.984018
0.984154
0.984302
0.984554
0.98484
0.985198
0.98576
0.986469
0.987523
0.988827
0.990427
0.992097
0.993759
0.995214
0.996425
0.997516
0.99829
0.998753
0.998114
0.997333
0.996363
0.995264
0.994022
0.992695
0.991468
0.990383
0.989598
0.989004
0.98857
0.988295
0.988063
0.987868
0.987749
0.987633
0.987523
0.987453
0.987388
0.987338
0.98729
0.987271
0.987233
0.987228
0.987222
0.987219
0.98725
0.987265
0.987305
0.987349
0.987418
0.987482
0.987596
0.987714
0.987834
0.988037
0.98828
0.988568
0.989013
0.989618
0.990414
0.991501
0.992732
0.994055
0.995297
0.996393
0.997357
0.998132
0.998767
0.999117
0.998621
0.998014
0.997327
0.996459
0.995531
0.994558
0.993613
0.992774
0.992153
0.99168
0.991342
0.991113
0.990923
0.990764
0.990664
0.990566
0.99047
0.990411
0.990355
0.990312
0.990272
0.990255
0.990224
0.99022
0.990215
0.990213
0.990238
0.990251
0.990284
0.990323
0.990382
0.990436
0.990535
0.990636
0.990737
0.990903
0.991102
0.991341
0.991688
0.992169
0.992798
0.99364
0.994585
0.995557
0.996483
0.997349
0.998032
0.998636
0.999127
0.999377
0.999011
0.998556
0.998024
0.99741
0.996698
0.995964
0.995298
0.994633
0.994144
0.993775
0.993516
0.993334
0.993184
0.993057
0.992977
0.992903
0.99283
0.992786
0.992743
0.992708
0.992677
0.992663
0.992641
0.992637
0.992633
0.992631
0.99265
0.992661
0.992686
0.992717
0.992763
0.992804
0.992882
0.992956
0.993035
0.993169
0.993326
0.993516
0.993782
0.994158
0.994651
0.995319
0.995983
0.99672
0.997426
0.998041
0.99857
0.999022
0.999385
0.999554
0.999294
0.998963
0.998563
0.998092
0.997575
0.997038
0.99653
0.996068
0.995683
0.995397
0.995192
0.995049
0.994929
0.994825
0.994761
0.9947
0.994639
0.994602
0.994568
0.994539
0.994515
0.994504
0.994486
0.994483
0.99448
0.994479
0.994493
0.994502
0.994522
0.994547
0.994585
0.994618
0.994683
0.994744
0.994808
0.994917
0.995043
0.995192
0.995403
0.995694
0.996081
0.996546
0.997053
0.997591
0.998105
0.998576
0.998973
0.999303
0.999559
0.999668
0.999489
0.999247
0.998946
0.998592
0.9982
0.997796
0.997423
0.99708
0.996789
0.996574
0.996412
0.996303
0.996208
0.996125
0.996074
0.996026
0.995976
0.995946
0.995919
0.995896
0.995877
0.995868
0.995854
0.995851
0.995849
0.995848
0.995859
0.995866
0.995882
0.995903
0.995933
0.99596
0.996013
0.996061
0.996112
0.996199
0.996299
0.996411
0.996579
0.996798
0.99709
0.997435
0.997807
0.998212
0.998602
0.998956
0.999254
0.999496
0.999672
0.999735
0.999612
0.999426
0.999192
0.998914
0.998608
0.998295
0.998005
0.997736
0.997512
0.997339
0.997216
0.997125
0.997049
0.99698
0.996939
0.996899
0.996858
0.996834
0.996812
0.996793
0.996777
0.99677
0.996759
0.996756
0.996754
0.996754
0.996763
0.996769
0.996782
0.996798
0.996823
0.996846
0.996889
0.996929
0.99697
0.997042
0.997122
0.997216
0.997343
0.997519
0.997744
0.998015
0.998304
0.998618
0.998923
0.999199
0.999432
0.999617
0.999738
0.999765
0.999673
0.999514
0.999312
0.999074
0.998812
0.998546
0.998297
0.99807
0.99788
0.997728
0.997622
0.997543
0.997475
0.997414
0.997379
0.997343
0.997307
0.997286
0.997266
0.99725
0.997236
0.997229
0.99722
0.997218
0.997216
0.997216
0.997223
0.997229
0.99724
0.997255
0.997277
0.997297
0.997334
0.99737
0.997405
0.997469
0.99754
0.997623
0.997731
0.997886
0.998077
0.998306
0.998554
0.998821
0.999082
0.999319
0.99952
0.999677
0.999767
)
;

boundaryField
{
    fuel
    {
        type            fixedValue;
        value           nonuniform 0();
    }
    wall
    {
        type            zeroGradient;
    }
    outlet
    {
        type            zeroGradient;
    }
    frontAndBack
    {
        type            empty;
    }
    procBoundary3to2
    {
        type            processor;
        value           nonuniform List<scalar> 
51
(
0.525313
0.523565
0.522582
0.521915
0.52162
0.521192
0.520418
0.520028
0.519567
0.519237
0.518931
0.518812
0.51863
0.518577
0.518565
0.518592
0.51875
0.518835
0.519093
0.519377
0.519777
0.520124
0.5209
0.521272
0.521592
0.522303
0.523292
0.525154
0.528141
0.534279
0.542879
0.558514
0.579087
0.60898
0.644215
0.686623
0.729445
0.771782
0.807289
0.817303
0.782945
0.741913
0.700295
0.658908
0.624412
0.595099
0.575226
0.559549
0.551281
0.545707
0.545707
)
;
    }
}


// ************************************************************************* //
