/*--------------------------------*- C++ -*----------------------------------*\
| =========                 |                                                 |
| \\      /  F ield         | OpenFOAM: The Open Source CFD Toolbox           |
|  \\    /   O peration     | Version:  dev                                   |
|   \\  /    A nd           | Web:      www.OpenFOAM.org                      |
|    \\/     M anipulation  |                                                 |
\*---------------------------------------------------------------------------*/
FoamFile
{
    version     2.0;
    format      ascii;
    class       volScalarField;
    location    "0.01";
    object      P2-;
}
// * * * * * * * * * * * * * * * * * * * * * * * * * * * * * * * * * * * * * //

dimensions      [0 0 0 0 0 0 0];

internalField   nonuniform List<scalar> 
250
(
3.99318e-09
3.99304e-09
4.02644e-09
4.11839e-09
4.3344e-09
4.94379e-09
5.88197e-09
2.30306e-10
3.02101e-12
2.29398e-13
2.86869e-13
4.53855e-09
4.53817e-09
4.62471e-09
4.86798e-09
5.47549e-09
7.62885e-09
1.55506e-08
5.6637e-10
3.36519e-12
7.89307e-13
1.00339e-12
2.82103e-09
2.82068e-09
2.90364e-09
3.14303e-09
3.78174e-09
6.43815e-09
1.88312e-08
5.54994e-10
3.18315e-12
1.52374e-12
1.97431e-12
1.44401e-09
1.44376e-09
1.50344e-09
1.68071e-09
2.19257e-09
4.69135e-09
1.66876e-08
3.18033e-10
3.05352e-12
2.32316e-12
3.09567e-12
7.01146e-10
7.00997e-10
7.40055e-10
8.60232e-10
1.24057e-09
3.42931e-09
1.23791e-08
1.83763e-10
2.93191e-12
2.9526e-12
4.09166e-12
3.44554e-10
3.44462e-10
3.69468e-10
4.50106e-10
7.34914e-10
2.65413e-09
7.87487e-09
1.08636e-10
2.70695e-12
3.10727e-12
4.40362e-12
1.77503e-10
1.77448e-10
1.93252e-10
2.48737e-10
4.70018e-10
2.18855e-09
4.3432e-09
6.33575e-11
2.29801e-12
2.61623e-12
3.63783e-12
9.20113e-11
9.19688e-11
1.0497e-10
1.42943e-10
3.28152e-10
1.89559e-09
2.17188e-09
3.62521e-11
1.74666e-12
1.7344e-12
2.3113e-12
4.91743e-11
4.91483e-11
5.80588e-11
9.02221e-11
2.50194e-10
1.69241e-09
1.03073e-09
2.04208e-11
1.18257e-12
9.20538e-13
1.17157e-12
2.73821e-11
2.73731e-11
3.38975e-11
5.85279e-11
2.06876e-10
1.53134e-09
4.75644e-10
1.13441e-11
7.1973e-13
4.07669e-13
5.15337e-13
1.6865e-11
2.07246e-11
4.05916e-11
1.83393e-10
1.38202e-09
2.17981e-10
6.2057e-12
3.98779e-13
1.57212e-13
2.08284e-13
1.07792e-11
1.3894e-11
3.00785e-11
1.71924e-10
1.22974e-09
1.02828e-10
3.32924e-12
2.01471e-13
5.57646e-14
8.16843e-14
7.22347e-12
9.76002e-12
2.37061e-11
1.6813e-10
1.07174e-09
5.207e-11
1.73858e-12
9.14386e-14
1.82655e-14
3.26953e-14
5.00878e-12
6.94736e-12
1.97759e-11
1.69418e-10
9.12675e-10
2.91252e-11
8.75757e-13
3.7155e-14
5.84443e-15
1.41435e-14
3.57011e-12
5.0608e-12
1.76502e-11
1.74018e-10
7.59569e-10
1.81156e-11
4.23444e-13
1.47464e-14
2.43682e-15
7.08958e-15
2.52844e-12
3.79718e-12
1.65162e-11
1.80418e-10
6.0976e-10
1.24109e-11
1.98379e-13
8.32411e-15
2.32983e-15
4.34869e-15
1.83126e-12
2.93138e-12
1.61345e-11
1.87351e-10
4.86083e-10
9.23558e-12
9.39933e-14
1.13038e-14
4.54469e-15
3.19806e-15
1.39665e-12
2.32794e-12
1.63633e-11
1.93616e-10
3.83692e-10
7.29851e-12
5.01491e-14
2.55161e-14
1.157e-14
2.61597e-15
1.08976e-12
1.94646e-12
1.71128e-11
1.98173e-10
3.01052e-10
6.12192e-12
3.69692e-14
5.47557e-14
3.19444e-14
2.27226e-15
8.69183e-13
1.683e-12
1.83159e-11
2.00271e-10
2.37034e-10
5.41098e-12
4.49237e-14
1.20037e-13
8.81145e-14
2.14576e-15
6.99461e-13
1.49191e-12
1.99109e-11
1.99532e-10
1.83248e-10
4.99109e-12
7.7613e-14
2.69953e-13
2.31232e-13
2.40336e-15
5.66304e-13
1.37536e-12
2.18165e-11
1.95985e-10
1.45716e-10
4.76815e-12
1.41366e-13
5.62404e-13
5.40546e-13
3.58958e-15
4.74002e-13
1.30608e-12
2.39844e-11
1.89985e-10
1.1681e-10
4.68358e-12
2.35011e-13
1.0356e-12
1.07522e-12
7.93483e-15
3.99754e-13
1.27374e-12
2.61827e-11
1.82105e-10
9.51404e-11
4.70269e-12
3.52789e-13
1.70284e-12
1.82924e-12
2.50534e-14
)
;

boundaryField
{
    fuel
    {
        type            fixedValue;
        value           uniform 0;
    }
    wall
    {
        type            zeroGradient;
    }
    outlet
    {
        type            zeroGradient;
    }
    frontAndBack
    {
        type            empty;
    }
    procBoundary3to0
    {
        type            processor;
        value           nonuniform List<scalar> 10(3.44196e-13 1.2715e-12 2.83436e-11 1.72982e-10 7.91215e-11 4.80298e-12 4.8753e-13 2.55252e-12 2.74401e-12 8.53108e-14);
    }
    procBoundary3to2
    {
        type            processor;
        value           nonuniform List<scalar> 
25
(
4.02791e-09
4.62857e-09
2.90734e-09
1.50609e-09
7.41764e-10
3.70548e-10
1.93914e-10
1.05569e-10
5.8463e-11
3.41824e-11
1.6863e-11
1.6863e-11
1.07864e-11
7.22581e-12
5.00851e-12
3.57582e-12
2.51843e-12
1.85417e-12
1.40515e-12
1.09433e-12
8.72921e-13
6.99367e-13
5.73478e-13
4.79859e-13
4.06133e-13
)
;
    }
}


// ************************************************************************* //
