/*--------------------------------*- C++ -*----------------------------------*\
| =========                 |                                                 |
| \\      /  F ield         | OpenFOAM: The Open Source CFD Toolbox           |
|  \\    /   O peration     | Version:  dev                                   |
|   \\  /    A nd           | Web:      www.OpenFOAM.org                      |
|    \\/     M anipulation  |                                                 |
\*---------------------------------------------------------------------------*/
FoamFile
{
    version     2.0;
    format      ascii;
    class       volScalarField;
    location    "0.01";
    object      P2-H;
}
// * * * * * * * * * * * * * * * * * * * * * * * * * * * * * * * * * * * * * //

dimensions      [0 0 0 0 0 0 0];

internalField   nonuniform List<scalar> 
1989
(
8.0703e-17
7.77904e-17
7.50892e-17
7.31099e-17
7.15246e-17
7.03031e-17
6.94073e-17
6.87312e-17
6.81795e-17
6.78054e-17
6.7511e-17
6.73131e-17
6.71852e-17
6.71211e-17
6.71185e-17
6.71779e-17
6.73017e-17
6.74949e-17
6.77843e-17
6.81585e-17
6.8691e-17
6.93702e-17
7.02562e-17
7.14838e-17
7.3088e-17
7.50542e-17
7.77458e-17
8.06581e-17
8.41009e-17
8.7678e-17
9.12622e-17
9.37784e-17
9.53612e-17
9.47216e-17
9.2863e-17
9.08183e-17
9.21474e-17
1.03574e-16
1.29244e-16
1.46591e-16
1.11428e-16
9.40421e-17
8.99343e-17
9.06936e-17
9.21376e-17
9.27255e-17
9.14166e-17
8.92056e-17
8.61214e-17
8.30034e-17
7.99099e-17
7.73279e-17
7.49215e-17
7.31849e-17
7.1779e-17
7.06998e-17
6.99034e-17
6.93047e-17
6.8813e-17
6.848e-17
6.82162e-17
6.80391e-17
6.79247e-17
6.78673e-17
6.78649e-17
6.7918e-17
6.80289e-17
6.82015e-17
6.84603e-17
6.87932e-17
6.92657e-17
6.98651e-17
7.06507e-17
7.17366e-17
7.31556e-17
7.48802e-17
7.72732e-17
7.98657e-17
8.29206e-17
8.60737e-17
8.91764e-17
9.14022e-17
9.27327e-17
9.21417e-17
9.07137e-17
9.00055e-17
9.42403e-17
1.11917e-16
1.47552e-16
1.70939e-16
1.23456e-16
9.80394e-17
9.01149e-17
8.90958e-17
8.99357e-17
9.03794e-17
8.92745e-17
8.73709e-17
8.46731e-17
8.19337e-17
7.92367e-17
7.69559e-17
7.48407e-17
7.33242e-17
7.20797e-17
7.11427e-17
7.04394e-17
6.99143e-17
6.94818e-17
6.91869e-17
6.8953e-17
6.87962e-17
6.8695e-17
6.8644e-17
6.86418e-17
6.86886e-17
6.87871e-17
6.89396e-17
6.91687e-17
6.94621e-17
6.98777e-17
7.04003e-17
7.1093e-17
7.20359e-17
7.32876e-17
7.4794e-17
7.68988e-17
7.91838e-17
8.18751e-17
8.46429e-17
8.73548e-17
8.92697e-17
9.03777e-17
8.99476e-17
8.91335e-17
9.02387e-17
9.83654e-17
1.24215e-16
1.72371e-16
2.03369e-16
1.40585e-16
1.04749e-16
9.16974e-17
8.825e-17
8.82038e-17
8.83733e-17
8.73969e-17
8.57538e-17
8.33998e-17
8.1009e-17
7.86589e-17
7.66614e-17
7.48205e-17
7.35088e-17
7.24178e-17
7.16097e-17
7.0998e-17
7.05434e-17
7.01676e-17
6.99085e-17
6.97035e-17
6.95663e-17
6.94779e-17
6.94333e-17
6.94313e-17
6.94719e-17
6.95582e-17
6.96912e-17
6.98916e-17
7.01471e-17
7.05095e-17
7.09586e-17
7.15605e-17
7.23718e-17
7.34658e-17
7.47687e-17
7.66004e-17
7.85982e-17
8.09539e-17
8.33697e-17
8.57362e-17
8.73879e-17
8.83735e-17
8.82168e-17
8.83031e-17
9.1873e-17
1.05202e-16
1.41598e-16
2.05207e-16
2.45483e-16
1.64179e-16
1.15072e-16
9.51807e-17
8.84029e-17
8.70551e-17
8.67674e-17
8.58145e-17
8.43662e-17
8.23085e-17
8.02312e-17
7.819e-17
7.64562e-17
7.48705e-17
7.37486e-17
7.28002e-17
7.21149e-17
7.15891e-17
7.12022e-17
7.08776e-17
7.06533e-17
7.04763e-17
7.0358e-17
7.02819e-17
7.02435e-17
7.02417e-17
7.02764e-17
7.03508e-17
7.04649e-17
7.06376e-17
7.08568e-17
7.11697e-17
7.15492e-17
7.20653e-17
7.27522e-17
7.36997e-17
7.48139e-17
7.63908e-17
7.81225e-17
8.01737e-17
8.2274e-17
8.43436e-17
8.57995e-17
8.67653e-17
8.70737e-17
8.84825e-17
9.54301e-17
1.1569e-16
1.65498e-16
2.47786e-16
2.99251e-16
1.95976e-16
1.30221e-16
1.01285e-16
8.99404e-17
8.67318e-17
8.56817e-17
8.46055e-17
8.32605e-17
8.14416e-17
7.96354e-17
7.78659e-17
7.63729e-17
7.50221e-17
7.40712e-17
7.3261e-17
7.26858e-17
7.2241e-17
7.1918e-17
7.16394e-17
7.14504e-17
7.12987e-17
7.1198e-17
7.11333e-17
7.1101e-17
7.10992e-17
7.11282e-17
7.11912e-17
7.12877e-17
7.14348e-17
7.16211e-17
7.18853e-17
7.22002e-17
7.26349e-17
7.3211e-17
7.40168e-17
7.49603e-17
7.63028e-17
7.77926e-17
7.95736e-17
8.14021e-17
8.32326e-17
8.45864e-17
8.56801e-17
8.67649e-17
9.00635e-17
1.0164e-16
1.31055e-16
1.97712e-16
3.02085e-16
3.66902e-16
2.37934e-16
1.51731e-16
1.10999e-16
9.34216e-17
8.75445e-17
8.5312e-17
8.3903e-17
8.25315e-17
8.08788e-17
7.92893e-17
7.77509e-17
7.64711e-17
7.53318e-17
7.45345e-17
7.38496e-17
7.33747e-17
7.30039e-17
7.27397e-17
7.2503e-17
7.23456e-17
7.22179e-17
7.21339e-17
7.20797e-17
7.2053e-17
7.20513e-17
7.20748e-17
7.21273e-17
7.2207e-17
7.23299e-17
7.24838e-17
7.27065e-17
7.29614e-17
7.33235e-17
7.37946e-17
7.44741e-17
7.52645e-17
7.63956e-17
7.76724e-17
7.92226e-17
8.08345e-17
8.24995e-17
8.38833e-17
8.53172e-17
8.76038e-17
9.36107e-17
1.11501e-16
1.52842e-16
2.40106e-16
3.70347e-16
4.53274e-16
2.92372e-16
1.81463e-16
1.25642e-16
9.96425e-17
8.99696e-17
8.59565e-17
8.39177e-17
8.23273e-17
8.07506e-17
7.9303e-17
7.79502e-17
7.68481e-17
7.5893e-17
7.52285e-17
7.46513e-17
7.42648e-17
7.39604e-17
7.37487e-17
7.3549e-17
7.34202e-17
7.33132e-17
7.32442e-17
7.31988e-17
7.31769e-17
7.31752e-17
7.31938e-17
7.32373e-17
7.33017e-17
7.34031e-17
7.35277e-17
7.37139e-17
7.39153e-17
7.42109e-17
7.45908e-17
7.51613e-17
7.58191e-17
7.67664e-17
7.78656e-17
7.92324e-17
8.07023e-17
8.22935e-17
8.39025e-17
8.59776e-17
9.00711e-17
9.9928e-17
1.26342e-16
1.82921e-16
2.95021e-16
4.57453e-16
5.59025e-16
3.62128e-16
2.2171e-16
1.46913e-16
1.09713e-16
9.47005e-17
8.80621e-17
8.49729e-17
8.29084e-17
8.12623e-17
7.98518e-17
7.86264e-17
7.76589e-17
7.68534e-17
7.62933e-17
7.58104e-17
7.54949e-17
7.5244e-17
7.50751e-17
7.49065e-17
7.47993e-17
7.47091e-17
7.46523e-17
7.46131e-17
7.45951e-17
7.4593e-17
7.46071e-17
7.4644e-17
7.46957e-17
7.47794e-17
7.48791e-17
7.50367e-17
7.5194e-17
7.54354e-17
7.57426e-17
7.6217e-17
7.67712e-17
7.75694e-17
7.85357e-17
7.97775e-17
8.12113e-17
8.28765e-17
8.49693e-17
8.81112e-17
9.48655e-17
1.10133e-16
1.47874e-16
2.23592e-16
3.6531e-16
5.63899e-16
6.89504e-16
4.50849e-16
2.75095e-16
1.76912e-16
1.25131e-16
1.02734e-16
9.22895e-17
8.75535e-17
8.46434e-17
8.27302e-17
8.12201e-17
8.00394e-17
7.9143e-17
7.84423e-17
7.7952e-17
7.75388e-17
7.72745e-17
7.70605e-17
7.69215e-17
7.67741e-17
7.66879e-17
7.66042e-17
7.6554e-17
7.65158e-17
7.64999e-17
7.64968e-17
7.65078e-17
7.65418e-17
7.65855e-17
7.66618e-17
7.67461e-17
7.68757e-17
7.70019e-17
7.7205e-17
7.74594e-17
7.78638e-17
7.83484e-17
7.90439e-17
7.99414e-17
8.1142e-17
8.26787e-17
8.46185e-17
8.75708e-17
9.23833e-17
1.02991e-16
1.25734e-16
1.78206e-16
2.77492e-16
4.55157e-16
6.95384e-16
8.51489e-16
5.62982e-16
3.44749e-16
2.18293e-16
1.47857e-16
1.15458e-16
9.95996e-17
9.23783e-17
8.80922e-17
8.56338e-17
8.38285e-17
8.25796e-17
8.16664e-17
8.10106e-17
8.05411e-17
8.0165e-17
7.99241e-17
7.97238e-17
7.95982e-17
7.9455e-17
7.93719e-17
7.92873e-17
7.92391e-17
7.91969e-17
7.91813e-17
7.91766e-17
7.91852e-17
7.92209e-17
7.92609e-17
7.93366e-17
7.94142e-17
7.95388e-17
7.96509e-17
7.98386e-17
8.00687e-17
8.04357e-17
8.09008e-17
8.15536e-17
8.24721e-17
8.37468e-17
8.55846e-17
8.80813e-17
9.24295e-17
9.97603e-17
1.15846e-16
1.48704e-16
2.19982e-16
3.4777e-16
5.67957e-16
8.5856e-16
1.05291e-15
7.02764e-16
4.34497e-16
2.74075e-16
1.80347e-16
1.34746e-16
1.11357e-16
1.00496e-16
9.40877e-17
9.06903e-17
8.83109e-17
8.68361e-17
8.57835e-17
8.50891e-17
8.4576e-17
8.41851e-17
8.39305e-17
8.37114e-17
8.35749e-17
8.34135e-17
8.3319e-17
8.32177e-17
8.31631e-17
8.31086e-17
8.30902e-17
8.30832e-17
8.30907e-17
8.31354e-17
8.31786e-17
8.32677e-17
8.33541e-17
8.34943e-17
8.36154e-17
8.38201e-17
8.4063e-17
8.44446e-17
8.49557e-17
8.56519e-17
8.67155e-17
8.82253e-17
9.06474e-17
9.41003e-17
1.00598e-16
1.11614e-16
1.35313e-16
1.81509e-16
2.76261e-16
4.3828e-16
7.08756e-16
1.06147e-15
1.3051e-15
8.78803e-16
5.50099e-16
3.48055e-16
2.25684e-16
1.63023e-16
1.29435e-16
1.13397e-16
1.03842e-16
9.89553e-17
9.56082e-17
9.3685e-17
9.23213e-17
9.14727e-17
9.08204e-17
9.03457e-17
9.00254e-17
8.9741e-17
8.9561e-17
8.93467e-17
8.92195e-17
8.90791e-17
8.90064e-17
8.89272e-17
8.89019e-17
8.88913e-17
8.88996e-17
8.89636e-17
8.90198e-17
8.91426e-17
8.92592e-17
8.94466e-17
8.96091e-17
8.98769e-17
9.01847e-17
9.0652e-17
9.13049e-17
9.21626e-17
9.35464e-17
9.55179e-17
9.89242e-17
1.03891e-16
1.13574e-16
1.29828e-16
1.63826e-16
2.27243e-16
3.50852e-16
5.54719e-16
8.8611e-16
1.31518e-15
1.62113e-15
1.10116e-15
6.9688e-16
4.4495e-16
2.87534e-16
2.03393e-16
1.56303e-16
1.33128e-16
1.1907e-16
1.11943e-16
1.07086e-16
1.04403e-16
1.02491e-16
1.01329e-16
1.00405e-16
9.9748e-17
9.92896e-17
9.88734e-17
9.86044e-17
9.82887e-17
9.80989e-17
9.78882e-17
9.77808e-17
9.76594e-17
9.76212e-17
9.7605e-17
9.76166e-17
9.77147e-17
9.77977e-17
9.79826e-17
9.81587e-17
9.84385e-17
9.86872e-17
9.90836e-17
9.95294e-17
1.00182e-16
1.01112e-16
1.02292e-16
1.04241e-16
1.06987e-16
1.1193e-16
1.19172e-16
1.33409e-16
1.56878e-16
2.04501e-16
2.89583e-16
4.48557e-16
7.02597e-16
1.11016e-15
1.63338e-15
2.02022e-15
1.38334e-15
8.84525e-16
5.70978e-16
3.70448e-16
2.59619e-16
1.95165e-16
1.62381e-16
1.42104e-16
1.31749e-16
1.24664e-16
1.20789e-16
1.18013e-16
1.16324e-16
1.14946e-16
1.13972e-16
1.13276e-16
1.12636e-16
1.12216e-16
1.11732e-16
1.11439e-16
1.11116e-16
1.10951e-16
1.10763e-16
1.10704e-16
1.10679e-16
1.10697e-16
1.1085e-16
1.10978e-16
1.11264e-16
1.1154e-16
1.11974e-16
1.12369e-16
1.12986e-16
1.13669e-16
1.14643e-16
1.16036e-16
1.17757e-16
1.20602e-16
1.24546e-16
1.31763e-16
1.42281e-16
1.62802e-16
1.95979e-16
2.61111e-16
3.73102e-16
5.75455e-16
8.91586e-16
1.39452e-15
2.03509e-15
2.52761e-15
1.74338e-15
1.12514e-15
7.34318e-16
4.80583e-16
3.36388e-16
2.49964e-16
2.04648e-16
1.75987e-16
1.61153e-16
1.50887e-16
1.45328e-16
1.41249e-16
1.38752e-16
1.36673e-16
1.35204e-16
1.34141e-16
1.3315e-16
1.32498e-16
1.31761e-16
1.31308e-16
1.30815e-16
1.30564e-16
1.30275e-16
1.30185e-16
1.30148e-16
1.30177e-16
1.30412e-16
1.3061e-16
1.31048e-16
1.31478e-16
1.32146e-16
1.3277e-16
1.33729e-16
1.34783e-16
1.36257e-16
1.38363e-16
1.40912e-16
1.45078e-16
1.50769e-16
1.61206e-16
1.76265e-16
2.05253e-16
2.51083e-16
3.38358e-16
4.83991e-16
7.39918e-16
1.13389e-15
1.75745e-15
2.54517e-15
3.17545e-15
2.20533e-15
1.43521e-15
9.46636e-16
6.25532e-16
4.39758e-16
3.25655e-16
2.64255e-16
2.24659e-16
2.03803e-16
1.89205e-16
1.81265e-16
1.753e-16
1.71638e-16
1.68541e-16
1.66352e-16
1.64747e-16
1.63253e-16
1.62263e-16
1.61156e-16
1.60475e-16
1.59741e-16
1.59366e-16
1.58934e-16
1.58799e-16
1.58743e-16
1.58789e-16
1.59142e-16
1.5944e-16
1.60097e-16
1.60753e-16
1.61752e-16
1.62712e-16
1.64167e-16
1.65768e-16
1.67968e-16
1.71111e-16
1.74852e-16
1.80939e-16
1.89074e-16
2.03904e-16
2.25067e-16
2.65094e-16
3.27158e-16
4.42323e-16
6.29891e-16
9.53637e-16
1.44611e-15
2.22337e-15
3.19665e-15
4.008e-15
2.80341e-15
1.83723e-15
1.2239e-15
8.16587e-16
5.77932e-16
4.28697e-16
3.46708e-16
2.93029e-16
2.64268e-16
2.43931e-16
2.3276e-16
2.24242e-16
2.18971e-16
2.14451e-16
2.1126e-16
2.08893e-16
2.06709e-16
2.0524e-16
2.03629e-16
2.02631e-16
2.01563e-16
2.01018e-16
2.00388e-16
2.00192e-16
2.00111e-16
2.00178e-16
2.00695e-16
2.01131e-16
2.0209e-16
2.03058e-16
2.04516e-16
2.05951e-16
2.08085e-16
2.10456e-16
2.13666e-16
2.18257e-16
2.23644e-16
2.32336e-16
2.43777e-16
2.6443e-16
2.93605e-16
3.47845e-16
4.30688e-16
5.81252e-16
8.22169e-16
1.2327e-15
1.85091e-15
2.82613e-15
4.03278e-15
5.08222e-15
3.58026e-15
2.36189e-15
1.58828e-15
1.06924e-15
7.62376e-16
5.67932e-16
4.59317e-16
3.87487e-16
3.4847e-16
3.20652e-16
3.05188e-16
2.93263e-16
2.85837e-16
2.79382e-16
2.74842e-16
2.71448e-16
2.68322e-16
2.66207e-16
2.63941e-16
2.62506e-16
2.6099e-16
2.60219e-16
2.59321e-16
2.59044e-16
2.5893e-16
2.59025e-16
2.59762e-16
2.60383e-16
2.61746e-16
2.63135e-16
2.65208e-16
2.67277e-16
2.70334e-16
2.73744e-16
2.78312e-16
2.84875e-16
2.92465e-16
3.04634e-16
3.20466e-16
3.48708e-16
3.88278e-16
4.60835e-16
5.70553e-16
7.66663e-16
1.07642e-15
1.59943e-15
2.3792e-15
3.61015e-15
5.11068e-15
6.46883e-15
4.60136e-15
3.05264e-15
2.07063e-15
1.40529e-15
1.00935e-15
7.55889e-16
6.12594e-16
5.16715e-16
4.64409e-16
4.26881e-16
4.05733e-16
3.893e-16
3.79032e-16
3.69967e-16
3.63647e-16
3.58891e-16
3.54521e-16
3.51561e-16
3.48425e-16
3.46414e-16
3.44306e-16
3.43239e-16
3.41985e-16
3.41601e-16
3.41441e-16
3.41572e-16
3.42601e-16
3.43463e-16
3.4536e-16
3.47308e-16
3.50194e-16
3.53098e-16
3.57372e-16
3.62155e-16
3.68519e-16
3.77741e-16
3.88234e-16
4.05007e-16
4.2665e-16
4.64745e-16
5.1779e-16
6.14639e-16
7.59339e-16
1.01489e-15
1.41457e-15
2.08494e-15
3.07437e-15
4.64096e-15
6.50225e-15
8.28169e-15
5.95494e-15
3.96209e-15
2.71395e-15
1.85563e-15
1.34213e-15
1.0106e-15
8.20388e-16
6.9509e-16
6.24306e-16
5.73175e-16
5.44443e-16
5.22039e-16
5.08036e-16
4.95365e-16
4.86742e-16
4.8023e-16
4.74239e-16
4.70179e-16
4.65915e-16
4.63131e-16
4.60239e-16
4.58786e-16
4.57059e-16
4.56535e-16
4.56312e-16
4.56487e-16
4.57905e-16
4.59079e-16
4.61681e-16
4.64367e-16
4.68326e-16
4.72317e-16
4.78177e-16
4.84733e-16
4.93411e-16
5.06304e-16
5.20615e-16
5.43488e-16
5.72885e-16
6.24775e-16
6.96551e-16
8.23091e-16
1.01516e-15
1.34931e-15
1.86767e-15
2.7326e-15
3.98966e-15
6.00328e-15
8.3231e-15
1.0614e-14
7.76871e-15
5.18298e-15
3.58003e-15
2.4643e-15
1.79438e-15
1.3583e-15
1.10384e-15
9.37708e-16
8.43087e-16
7.74702e-16
7.35831e-16
7.05458e-16
6.86523e-16
6.69582e-16
6.57919e-16
6.48907e-16
6.40569e-16
6.34874e-16
6.29111e-16
6.25288e-16
6.21353e-16
6.19394e-16
6.17029e-16
6.16324e-16
6.16015e-16
6.16238e-16
6.18178e-16
6.19756e-16
6.23296e-16
6.26961e-16
6.32356e-16
6.37905e-16
6.46145e-16
6.55268e-16
6.66933e-16
6.84193e-16
7.03553e-16
7.3457e-16
7.74338e-16
8.43741e-16
9.3969e-16
1.10739e-15
1.36442e-15
1.80369e-15
2.47995e-15
3.6042e-15
5.22101e-15
7.82291e-15
1.06676e-14
1.36416e-14
1.00656e-14
6.88976e-15
4.74911e-15
3.29581e-15
2.41521e-15
1.83572e-15
1.49522e-15
1.27313e-15
1.14561e-15
1.05388e-15
1.00126e-15
9.60143e-16
9.34614e-16
9.11225e-16
8.95554e-16
8.83374e-16
8.72121e-16
8.64435e-16
8.56677e-16
8.51467e-16
8.46127e-16
8.43502e-16
8.4027e-16
8.39324e-16
8.38896e-16
8.39172e-16
8.41818e-16
8.43924e-16
8.48721e-16
8.537e-16
8.61006e-16
8.68489e-16
8.79651e-16
8.91951e-16
9.07636e-16
9.31461e-16
9.57582e-16
9.99586e-16
1.05342e-15
1.14655e-15
1.27582e-15
1.49998e-15
1.84383e-15
2.42735e-15
3.31596e-15
4.78144e-15
6.93984e-15
1.01298e-14
1.37096e-14
1.75213e-14
1.31254e-14
9.14126e-15
6.39175e-15
4.4391e-15
3.2772e-15
2.49679e-15
2.04288e-15
1.74174e-15
1.56771e-15
1.44421e-15
1.37265e-15
1.31688e-15
1.28242e-15
1.25035e-15
1.22927e-15
1.21273e-15
1.19741e-15
1.18703e-15
1.17656e-15
1.16947e-15
1.16221e-15
1.1587e-15
1.15427e-15
1.153e-15
1.1524e-15
1.15273e-15
1.15635e-15
1.15915e-15
1.16566e-15
1.17242e-15
1.18232e-15
1.19242e-15
1.20765e-15
1.22432e-15
1.24545e-15
1.27812e-15
1.31342e-15
1.37042e-15
1.44363e-15
1.56914e-15
1.74538e-15
2.04944e-15
2.50727e-15
3.29311e-15
4.46412e-15
6.43794e-15
9.2026e-15
1.32052e-14
1.76056e-14
2.23201e-14
1.71459e-14
1.21706e-14
8.63459e-15
6.05947e-15
4.48905e-15
3.42781e-15
2.81483e-15
2.40322e-15
2.16543e-15
1.99658e-15
1.89845e-15
1.82247e-15
1.77574e-15
1.73158e-15
1.70316e-15
1.68061e-15
1.6596e-15
1.64553e-15
1.63127e-15
1.62161e-15
1.61169e-15
1.60697e-15
1.60087e-15
1.59917e-15
1.59832e-15
1.59871e-15
1.60367e-15
1.60741e-15
1.61628e-15
1.6255e-15
1.63897e-15
1.65268e-15
1.67361e-15
1.69631e-15
1.72482e-15
1.76983e-15
1.81778e-15
1.89546e-15
1.99584e-15
2.16729e-15
2.40858e-15
2.82356e-15
3.44141e-15
4.50986e-15
6.09803e-15
8.6913e-15
1.22471e-14
1.72429e-14
2.24053e-14
2.75829e-14
2.23274e-14
1.62582e-14
1.17246e-14
8.332e-15
6.22122e-15
4.7613e-15
3.91622e-15
3.35228e-15
3.02197e-15
2.7893e-15
2.65346e-15
2.54932e-15
2.48544e-15
2.42415e-15
2.38558e-15
2.35465e-15
2.32558e-15
2.30632e-15
2.2868e-15
2.27349e-15
2.25982e-15
2.25342e-15
2.24493e-15
2.24264e-15
2.24143e-15
2.24185e-15
2.24874e-15
2.25374e-15
2.26595e-15
2.27863e-15
2.29714e-15
2.31587e-15
2.34492e-15
2.37604e-15
2.41475e-15
2.47725e-15
2.54288e-15
2.64942e-15
2.78836e-15
3.02457e-15
3.36012e-15
3.92742e-15
4.7796e-15
6.25374e-15
8.38306e-15
1.17963e-14
1.63533e-14
2.24334e-14
2.76455e-14
3.23753e-14
2.82481e-14
2.16959e-14
1.60164e-14
1.15548e-14
8.69379e-15
6.70738e-15
5.52037e-15
4.73423e-15
4.26931e-15
3.94461e-15
3.75478e-15
3.61107e-15
3.52295e-15
3.43711e-15
3.3843e-15
3.34154e-15
3.30092e-15
3.27438e-15
3.24718e-15
3.22866e-15
3.2096e-15
3.20084e-15
3.18889e-15
3.18576e-15
3.18402e-15
3.18444e-15
3.19409e-15
3.20087e-15
3.21784e-15
3.2355e-15
3.26128e-15
3.28718e-15
3.32788e-15
3.37089e-15
3.42388e-15
3.5115e-15
3.60219e-15
3.74927e-15
3.94356e-15
4.27316e-15
4.74564e-15
5.53406e-15
6.73706e-15
8.73671e-15
1.16221e-14
1.61054e-14
2.18075e-14
2.83418e-14
3.23808e-14
3.53188e-14
3.39842e-14
2.82696e-14
2.18695e-14
1.61523e-14
1.22907e-14
9.56677e-15
7.87435e-15
6.77943e-15
6.11748e-15
5.67903e-15
5.40429e-15
5.2008e-15
5.07488e-15
4.95101e-15
4.8762e-15
4.8151e-15
4.75633e-15
4.71879e-15
4.67997e-15
4.65387e-15
4.62696e-15
4.61482e-15
4.5978e-15
4.59349e-15
4.59092e-15
4.59129e-15
4.60497e-15
4.61424e-15
4.63813e-15
4.66307e-15
4.6996e-15
4.73619e-15
4.79525e-15
4.85673e-15
4.93181e-15
5.05841e-15
5.18822e-15
5.39656e-15
5.67778e-15
6.1237e-15
6.79579e-15
7.89643e-15
9.60718e-15
1.23483e-14
1.62396e-14
2.19845e-14
2.8377e-14
3.40242e-14
3.52464e-14
3.55821e-14
3.78813e-14
3.49967e-14
2.91893e-14
2.25913e-14
1.75406e-14
1.38294e-14
1.14355e-14
9.85961e-15
8.90913e-15
8.28871e-15
7.88961e-15
7.60292e-15
7.42481e-15
7.24691e-15
7.14208e-15
7.05554e-15
6.97116e-15
6.91817e-15
6.86298e-15
6.82551e-15
6.78711e-15
6.77007e-15
6.74549e-15
6.73947e-15
6.73562e-15
6.73581e-15
6.75549e-15
6.76834e-15
6.80235e-15
6.83801e-15
6.89022e-15
6.94199e-15
7.02699e-15
7.11406e-15
7.21924e-15
7.40125e-15
7.58514e-15
7.87875e-15
8.28842e-15
8.91862e-15
9.88235e-15
1.14741e-14
1.38852e-14
1.76167e-14
2.26971e-14
2.92997e-14
3.5057e-14
3.78316e-14
3.54342e-14
3.31864e-14
3.87424e-14
4.00025e-14
3.67801e-14
3.08178e-14
2.49919e-14
2.01965e-14
1.68541e-14
1.46339e-14
1.32484e-14
1.23369e-14
1.17521e-14
1.13384e-14
1.10846e-14
1.08261e-14
1.06778e-14
1.05536e-14
1.04307e-14
1.0355e-14
1.02761e-14
1.02213e-14
1.01657e-14
1.01414e-14
1.01053e-14
1.00968e-14
1.00909e-14
1.00907e-14
1.01195e-14
1.01375e-14
1.01867e-14
1.02384e-14
1.03141e-14
1.03879e-14
1.0512e-14
1.0637e-14
1.07859e-14
1.10505e-14
1.13129e-14
1.17394e-14
1.23347e-14
1.3261e-14
1.46707e-14
1.68948e-14
2.02702e-14
2.50823e-14
3.09212e-14
3.68419e-14
3.99724e-14
3.86053e-14
3.29859e-14
2.88586e-14
3.65605e-14
4.15486e-14
4.238e-14
3.92337e-14
3.43339e-14
2.91125e-14
2.50028e-14
2.20015e-14
2.00477e-14
1.87433e-14
1.79206e-14
1.73397e-14
1.69697e-14
1.65865e-14
1.63703e-14
1.61864e-14
1.60012e-14
1.58892e-14
1.57719e-14
1.56898e-14
1.5608e-14
1.55725e-14
1.55186e-14
1.55064e-14
1.54974e-14
1.54962e-14
1.55389e-14
1.55647e-14
1.5637e-14
1.57136e-14
1.58272e-14
1.59359e-14
1.61236e-14
1.63092e-14
1.65264e-14
1.69191e-14
1.73021e-14
1.79e-14
1.87423e-14
2.00657e-14
2.20517e-14
2.50626e-14
2.9193e-14
3.44096e-14
3.92887e-14
4.23461e-14
4.14232e-14
3.63603e-14
2.86404e-14
2.37245e-14
3.19448e-14
3.95438e-14
4.39115e-14
4.5031e-14
4.32877e-14
3.96186e-14
3.5803e-14
3.25555e-14
3.02363e-14
2.86141e-14
2.75192e-14
2.67514e-14
2.62692e-14
2.57495e-14
2.54639e-14
2.52159e-14
2.49624e-14
2.48114e-14
2.46508e-14
2.45356e-14
2.44234e-14
2.43738e-14
2.42984e-14
2.42819e-14
2.4269e-14
2.42662e-14
2.43258e-14
2.43602e-14
2.44612e-14
2.45688e-14
2.4725e-14
2.48722e-14
2.51297e-14
2.53796e-14
2.56675e-14
2.62002e-14
2.66993e-14
2.74921e-14
2.86113e-14
3.02549e-14
3.26041e-14
3.58538e-14
3.96717e-14
4.33044e-14
4.49863e-14
4.37815e-14
3.93504e-14
3.16943e-14
2.354e-14
1.8554e-14
2.62311e-14
3.47748e-14
4.13644e-14
4.60585e-14
4.82992e-14
4.81291e-14
4.65701e-14
4.45777e-14
4.28539e-14
4.14227e-14
4.04122e-14
3.96707e-14
3.92251e-14
3.86945e-14
3.84104e-14
3.81613e-14
3.79009e-14
3.77488e-14
3.75683e-14
3.74403e-14
3.73219e-14
3.72659e-14
3.71859e-14
3.71685e-14
3.71547e-14
3.7151e-14
3.72141e-14
3.72488e-14
3.73625e-14
3.74832e-14
3.76567e-14
3.78066e-14
3.80711e-14
3.83228e-14
3.8609e-14
3.91516e-14
3.96107e-14
4.03783e-14
4.14112e-14
4.28509e-14
4.45899e-14
4.65682e-14
4.81076e-14
4.82268e-14
4.58935e-14
4.11936e-14
3.45464e-14
2.60202e-14
1.83724e-14
1.37319e-14
2.08488e-14
2.83383e-14
3.59867e-14
4.25263e-14
4.77302e-14
5.11806e-14
5.2782e-14
5.32501e-14
5.3267e-14
5.29351e-14
5.26505e-14
5.23532e-14
5.22795e-14
5.204e-14
5.1926e-14
5.18376e-14
5.17375e-14
5.16815e-14
5.16119e-14
5.15713e-14
5.15131e-14
5.14984e-14
5.14627e-14
5.14532e-14
5.1448e-14
5.14462e-14
5.14744e-14
5.14886e-14
5.15408e-14
5.15828e-14
5.16377e-14
5.16973e-14
5.17952e-14
5.18865e-14
5.19986e-14
5.22374e-14
5.231e-14
5.26124e-14
5.28995e-14
5.32212e-14
5.31972e-14
5.27011e-14
5.10781e-14
4.75792e-14
4.23406e-14
3.57559e-14
2.81291e-14
2.06648e-14
1.35795e-14
9.76479e-15
1.56617e-14
2.23257e-14
2.90334e-14
3.63125e-14
4.27777e-14
4.81279e-14
5.22195e-14
5.51033e-14
5.70323e-14
5.81389e-14
5.88331e-14
5.92241e-14
5.96992e-14
5.99496e-14
6.0113e-14
6.02957e-14
6.04763e-14
6.0584e-14
6.06608e-14
6.07413e-14
6.07947e-14
6.08261e-14
6.08729e-14
6.08793e-14
6.089e-14
6.08919e-14
6.08557e-14
6.08309e-14
6.07986e-14
6.07321e-14
6.06258e-14
6.05283e-14
6.03362e-14
6.01551e-14
5.99835e-14
5.97123e-14
5.92107e-14
5.87983e-14
5.80786e-14
5.6941e-14
5.49942e-14
5.20727e-14
4.79782e-14
4.25912e-14
3.61192e-14
2.8819e-14
2.21435e-14
1.55038e-14
9.64872e-15
6.79368e-15
1.12947e-14
1.66767e-14
2.26197e-14
2.89016e-14
3.54984e-14
4.14885e-14
4.62746e-14
5.0548e-14
5.36733e-14
5.57769e-14
5.72019e-14
5.81467e-14
5.90483e-14
5.9734e-14
6.01364e-14
6.05531e-14
6.09902e-14
6.1244e-14
6.14629e-14
6.16601e-14
6.18155e-14
6.18922e-14
6.20119e-14
6.20336e-14
6.20588e-14
6.2063e-14
6.19709e-14
6.19093e-14
6.17962e-14
6.16237e-14
6.13629e-14
6.11229e-14
6.06652e-14
6.02491e-14
5.98325e-14
5.91097e-14
5.81601e-14
5.71754e-14
5.57027e-14
5.35583e-14
5.04144e-14
4.61017e-14
4.13334e-14
3.52933e-14
2.87458e-14
2.24375e-14
1.6524e-14
1.11692e-14
6.71127e-15
4.73694e-15
7.95427e-15
1.20399e-14
1.6853e-14
2.22955e-14
2.79488e-14
3.34204e-14
3.83183e-14
4.2451e-14
4.59575e-14
4.84492e-14
5.0218e-14
5.14225e-14
5.25186e-14
5.34432e-14
5.39753e-14
5.45091e-14
5.50825e-14
5.5414e-14
5.57084e-14
5.59678e-14
5.61778e-14
5.62796e-14
5.64357e-14
5.64664e-14
5.6499e-14
5.65029e-14
5.63837e-14
5.63013e-14
5.61439e-14
5.59141e-14
5.55722e-14
5.52548e-14
5.46557e-14
5.41244e-14
5.35762e-14
5.26052e-14
5.14528e-14
5.02011e-14
4.83737e-14
4.58426e-14
4.23216e-14
3.81523e-14
3.32769e-14
2.7783e-14
2.21483e-14
1.67052e-14
1.19201e-14
7.85863e-15
4.6812e-15
3.40576e-15
5.59931e-15
8.6328e-15
1.23916e-14
1.67833e-14
2.15215e-14
2.62349e-14
3.04532e-14
3.42036e-14
3.74363e-14
3.98146e-14
4.15859e-14
4.27853e-14
4.38766e-14
4.48356e-14
4.54096e-14
4.59473e-14
4.65428e-14
4.68916e-14
4.71992e-14
4.74709e-14
4.76909e-14
4.7799e-14
4.79585e-14
4.79924e-14
4.80261e-14
4.80279e-14
4.7907e-14
4.78187e-14
4.76512e-14
4.74106e-14
4.70561e-14
4.67179e-14
4.60973e-14
4.55625e-14
4.49735e-14
4.39662e-14
4.28229e-14
4.15772e-14
3.97477e-14
3.73379e-14
3.40911e-14
3.03127e-14
2.61102e-14
2.13867e-14
1.66611e-14
1.2276e-14
8.54231e-15
5.52851e-15
3.36702e-15
2.62712e-15
4.10775e-15
6.42665e-15
9.40452e-15
1.29608e-14
1.68772e-14
2.08182e-14
2.44319e-14
2.77186e-14
3.04977e-14
3.26817e-14
3.41998e-14
3.5377e-14
3.63621e-14
3.72779e-14
3.78088e-14
3.83248e-14
3.88835e-14
3.92102e-14
3.95077e-14
3.97631e-14
3.99703e-14
4.00747e-14
4.02222e-14
4.02559e-14
4.02876e-14
4.02873e-14
4.01758e-14
4.00906e-14
3.99302e-14
3.97058e-14
3.93673e-14
3.90432e-14
3.84645e-14
3.79536e-14
3.7405e-14
3.64466e-14
3.54172e-14
3.41945e-14
3.2622e-14
3.04175e-14
2.76228e-14
2.43133e-14
2.0714e-14
1.67626e-14
1.28608e-14
9.31249e-15
6.35759e-15
4.05618e-15
2.59702e-15
2.28465e-15
3.3692e-15
5.33005e-15
7.90064e-15
1.09947e-14
1.44208e-14
1.78949e-14
2.11248e-14
2.40545e-14
2.65438e-14
2.85606e-14
2.99443e-14
3.10371e-14
3.19678e-14
3.28247e-14
3.33174e-14
3.38011e-14
3.43263e-14
3.46301e-14
3.49078e-14
3.51502e-14
3.53439e-14
3.54421e-14
3.55778e-14
3.56106e-14
3.56402e-14
3.56386e-14
3.55368e-14
3.54556e-14
3.53046e-14
3.5094e-14
3.47769e-14
3.44727e-14
3.39328e-14
3.34549e-14
3.29428e-14
3.20485e-14
3.10785e-14
2.99415e-14
2.85127e-14
2.64731e-14
2.39716e-14
2.10214e-14
1.78036e-14
1.43206e-14
1.09077e-14
7.82195e-15
5.27258e-15
3.3285e-15
2.25803e-15
)
;

boundaryField
{
    fuel
    {
        type            fixedValue;
        value           nonuniform 0();
    }
    wall
    {
        type            zeroGradient;
    }
    outlet
    {
        type            zeroGradient;
    }
    frontAndBack
    {
        type            empty;
    }
    procBoundary3to2
    {
        type            processor;
        value           nonuniform List<scalar> 
51
(
8.15667e-17
7.829e-17
7.52328e-17
7.29909e-17
7.12261e-17
6.98695e-17
6.88594e-17
6.80996e-17
6.7486e-17
6.70661e-17
6.67397e-17
6.65194e-17
6.63773e-17
6.63061e-17
6.63031e-17
6.63691e-17
6.65069e-17
6.6722e-17
6.70432e-17
6.74625e-17
6.80592e-17
6.88229e-17
6.98187e-17
7.11891e-17
7.29768e-17
7.52065e-17
7.82472e-17
8.15271e-17
8.53805e-17
8.93659e-17
9.34174e-17
9.64075e-17
9.82339e-17
9.76073e-17
9.54421e-17
9.23799e-17
9.15034e-17
9.81162e-17
1.1589e-16
1.28413e-16
1.0316e-16
9.19759e-17
9.07422e-17
9.28232e-17
9.46893e-17
9.533e-17
9.37544e-17
9.12444e-17
8.7673e-17
8.4127e-17
8.4127e-17
)
;
    }
}


// ************************************************************************* //
