/*--------------------------------*- C++ -*----------------------------------*\
| =========                 |                                                 |
| \\      /  F ield         | OpenFOAM: The Open Source CFD Toolbox           |
|  \\    /   O peration     | Version:  dev                                   |
|   \\  /    A nd           | Web:      www.OpenFOAM.org                      |
|    \\/     M anipulation  |                                                 |
\*---------------------------------------------------------------------------*/
FoamFile
{
    version     2.0;
    format      ascii;
    class       volScalarField;
    location    "0.01";
    object      PC3H4;
}
// * * * * * * * * * * * * * * * * * * * * * * * * * * * * * * * * * * * * * //

dimensions      [0 0 0 0 0 0 0];

internalField   nonuniform List<scalar> 
250
(
7.85372e-07
7.85386e-07
7.87186e-07
7.97222e-07
8.13145e-07
8.4419e-07
8.86954e-07
9.53511e-07
1.09977e-06
1.61432e-06
1.0848e-06
4.07937e-07
4.07948e-07
4.09317e-07
4.14073e-07
4.22715e-07
4.38472e-07
4.60794e-07
4.9304e-07
5.58378e-07
7.62293e-07
2.59814e-06
2.97005e-07
2.97013e-07
2.98409e-07
3.02833e-07
3.11264e-07
3.2586e-07
3.46778e-07
3.7588e-07
4.3039e-07
5.76606e-07
3.47707e-06
2.60174e-07
2.6018e-07
2.61855e-07
2.67214e-07
2.77285e-07
2.94636e-07
3.19616e-07
3.54146e-07
4.16254e-07
5.63335e-07
3.99398e-06
2.40791e-07
2.40797e-07
2.42867e-07
2.49594e-07
2.61915e-07
2.83137e-07
3.13702e-07
3.56102e-07
4.29457e-07
5.84765e-07
4.40557e-06
2.24851e-07
2.2486e-07
2.27738e-07
2.35931e-07
2.50693e-07
2.76339e-07
3.12689e-07
3.63635e-07
4.47757e-07
6.0647e-07
4.83467e-06
2.09874e-07
2.09886e-07
2.12701e-07
2.21581e-07
2.40625e-07
2.70195e-07
3.13151e-07
3.72537e-07
4.653e-07
6.25997e-07
5.26652e-06
1.94712e-07
1.94729e-07
1.98762e-07
2.09225e-07
2.30575e-07
2.65375e-07
3.14453e-07
3.81818e-07
4.79977e-07
6.62928e-07
5.62512e-06
1.7833e-07
1.78352e-07
1.83087e-07
1.96246e-07
2.20542e-07
2.61337e-07
3.16621e-07
3.90892e-07
4.90395e-07
7.47627e-07
5.86942e-06
1.62098e-07
1.62129e-07
1.67604e-07
1.83383e-07
2.11097e-07
2.5812e-07
3.19438e-07
3.99401e-07
4.95675e-07
9.44073e-07
5.99275e-06
1.48208e-07
1.54391e-07
1.71093e-07
2.03456e-07
2.55731e-07
3.22721e-07
4.06726e-07
4.96574e-07
1.35175e-06
6.0062e-06
1.34901e-07
1.41818e-07
1.5944e-07
1.96256e-07
2.54119e-07
3.26221e-07
4.12133e-07
4.9744e-07
2.02236e-06
5.92197e-06
1.22304e-07
1.28787e-07
1.48452e-07
1.90121e-07
2.53206e-07
3.29624e-07
4.14881e-07
5.08315e-07
2.83727e-06
5.74548e-06
1.10532e-07
1.17433e-07
1.38165e-07
1.84695e-07
2.52879e-07
3.32558e-07
4.14449e-07
5.47303e-07
3.57031e-06
5.47738e-06
9.81552e-08
1.06407e-07
1.2858e-07
1.80024e-07
2.52995e-07
3.3461e-07
4.11064e-07
6.41143e-07
4.0711e-06
5.12106e-06
8.66801e-08
9.58123e-08
1.20734e-07
1.76087e-07
2.53373e-07
3.35355e-07
4.06245e-07
8.17704e-07
4.32634e-06
4.69054e-06
7.65184e-08
8.64258e-08
1.13002e-07
1.72808e-07
2.53798e-07
3.3441e-07
4.03759e-07
1.08935e-06
4.39065e-06
4.21367e-06
6.78197e-08
7.77615e-08
1.0574e-07
1.70092e-07
2.54029e-07
3.31548e-07
4.09927e-07
1.43985e-06
4.31757e-06
3.72631e-06
5.98292e-08
6.94846e-08
9.98109e-08
1.67821e-07
2.53811e-07
3.2681e-07
4.32164e-07
1.82693e-06
4.14857e-06
3.25861e-06
5.26803e-08
6.26915e-08
9.44676e-08
1.65741e-07
2.52887e-07
3.20612e-07
4.91724e-07
2.19424e-06
3.91521e-06
2.8246e-06
4.60823e-08
5.66456e-08
8.96288e-08
1.63862e-07
2.50974e-07
3.13821e-07
5.67484e-07
2.48915e-06
3.64092e-06
2.4253e-06
4.05599e-08
5.08237e-08
8.52099e-08
1.61668e-07
2.47789e-07
3.07602e-07
6.59095e-07
2.67885e-06
3.34133e-06
2.0585e-06
3.53374e-08
4.60957e-08
8.10866e-08
1.59189e-07
2.43339e-07
3.02594e-07
7.49479e-07
2.75207e-06
3.02349e-06
1.72417e-06
3.11416e-08
4.16758e-08
7.71385e-08
1.56081e-07
2.37715e-07
2.985e-07
8.20163e-07
2.71087e-06
2.68434e-06
1.42267e-06
)
;

boundaryField
{
    fuel
    {
        type            fixedValue;
        value           uniform 0;
    }
    wall
    {
        type            zeroGradient;
    }
    outlet
    {
        type            zeroGradient;
    }
    frontAndBack
    {
        type            empty;
    }
    procBoundary3to0
    {
        type            processor;
        value           nonuniform List<scalar> 10(2.75289e-08 3.80054e-08 7.32236e-08 1.52212e-07 2.31055e-07 2.94073e-07 8.56522e-07 2.56328e-06 2.31144e-06 1.14992e-06);
    }
    procBoundary3to2
    {
        type            processor;
        value           nonuniform List<scalar> 
25
(
7.88464e-07
4.09463e-07
2.9843e-07
2.61859e-07
2.42868e-07
2.27737e-07
2.127e-07
1.98758e-07
1.83082e-07
1.67598e-07
1.48176e-07
1.48176e-07
1.34874e-07
1.22283e-07
1.10518e-07
9.81666e-08
8.67346e-08
7.64483e-08
6.77774e-08
5.98137e-08
5.26791e-08
4.60535e-08
4.05372e-08
3.53351e-08
3.11438e-08
)
;
    }
}


// ************************************************************************* //
