/*--------------------------------*- C++ -*----------------------------------*\
| =========                 |                                                 |
| \\      /  F ield         | OpenFOAM: The Open Source CFD Toolbox           |
|  \\    /   O peration     | Version:  dev                                   |
|   \\  /    A nd           | Web:      www.OpenFOAM.org                      |
|    \\/     M anipulation  |                                                 |
\*---------------------------------------------------------------------------*/
FoamFile
{
    version     2.0;
    format      ascii;
    class       volScalarField;
    location    "0.01";
    object      T;
}
// * * * * * * * * * * * * * * * * * * * * * * * * * * * * * * * * * * * * * //

dimensions      [0 0 0 1 0 0 0];

internalField   nonuniform List<scalar> 
250
(
1755.56
1755.56
1755.08
1753.76
1751.05
1746.57
1740.28
1731.49
1714.06
1664.11
400.476
1972.27
1972.27
1971.68
1970.04
1966.66
1961.16
1953.51
1942.81
1921.81
1861.57
460.808
2030.92
2030.92
2030.11
2027.85
2023.16
2015.63
2005.22
1990.74
1962.43
1881.56
494.475
2052.02
2052.02
2050.91
2047.82
2041.44
2031.17
2017.03
1997.4
1959.04
1849.13
505.439
2061.58
2061.58
2060.11
2056
2047.53
2033.92
2015.34
1989.41
1938.77
1792.97
499.434
2067
2067
2065.04
2059.73
2048.81
2031.22
2007.63
1974.34
1909.17
1721.17
484.221
2070.77
2070.77
2068.42
2061.69
2047.82
2025.08
1996.33
1954.65
1872.56
1636.21
467.736
2074.01
2074.01
2070.99
2062.66
2045.36
2017.45
1982.34
1931.17
1829.56
1539.54
452.875
2077.3
2077.3
2073.55
2063.19
2041.73
2008.18
1965.86
1904.15
1780.11
1436.42
439.218
2080.66
2080.66
2076.09
2063.42
2037.16
1997.37
1946.98
1873.46
1724.1
1330.95
427.011
2083.88
2078.45
2063.42
2032.25
1984.97
1925.62
1838.92
1661.73
1226.32
416.567
2087.23
2080.87
2063.18
2026.32
1970.91
1901.63
1800.27
1593.48
1125.04
408.039
2090.7
2083.45
2062.67
2019.77
1955.11
1874.87
1757.32
1520.23
1029.2
401.488
2094.24
2085.92
2061.87
2012.29
1937.5
1845.23
1709.9
1443.32
940.54
397.002
2098.12
2088.41
2060.73
2003.92
1918.07
1812.64
1657.93
1364.6
860.609
394.82
2101.98
2090.9
2059.4
1994.69
1896.85
1777.12
1602.14
1286.01
790.836
395.467
2105.72
2093.18
2057.63
1984.65
1873.95
1738.81
1543.69
1209.64
732.642
399.901
2109.13
2095.29
2055.44
1973.91
1849.58
1697.98
1484.33
1137.82
687.409
409.666
2112.38
2097.23
2053.13
1962.61
1824.05
1655.24
1426.64
1072.93
656.472
427.013
2115.35
2098.82
2050.55
1950.49
1797.77
1611.9
1360.5
1017.22
641.134
454.883
2118.04
2100.1
2047.73
1938.66
1771.37
1569.61
1307.78
972.711
642.608
496.626
2120.22
2101.02
2044.72
1926.28
1745.9
1529.64
1261.12
940.955
661.663
555.272
2121.91
2101.52
2041.63
1915.27
1722.24
1493.32
1221.98
922.857
698.185
632.367
2122.9
2101.54
2038.61
1905.35
1701.31
1461.92
1191.69
918.604
750.806
726.438
)
;

boundaryField
{
    fuel
    {
        type            fixedValue;
        value           uniform 353;
    }
    wall
    {
        type            fixedValue;
        value           nonuniform 0();
    }
    outlet
    {
        type            inletOutlet;
        inletValue      uniform 353;
        value           nonuniform List<scalar> 
24
(
400.304
460.358
493.765
504.524
498.414
483.274
467.055
353
353
353
353
353
353
353
353
353
353
353
353
353
353
353
353
353
)
;
    }
    frontAndBack
    {
        type            empty;
    }
    procBoundary3to0
    {
        type            processor;
        value           nonuniform List<scalar> 10(2123.11 2101.06 2035.72 1896.96 1683.96 1436.54 1171.06 927.664 816.829 830.911);
    }
    procBoundary3to2
    {
        type            processor;
        value           nonuniform List<scalar> 
25
(
1755.09
1971.68
2030.11
2050.91
2060.1
2065.03
2068.41
2070.97
2073.53
2076.06
2083.88
2083.88
2087.23
2090.69
2094.23
2098.1
2101.95
2105.71
2109.12
2112.35
2115.31
2117.99
2120.16
2121.84
2122.81
)
;
    }
}


// ************************************************************************* //
