/*--------------------------------*- C++ -*----------------------------------*\
| =========                 |                                                 |
| \\      /  F ield         | OpenFOAM: The Open Source CFD Toolbox           |
|  \\    /   O peration     | Version:  dev                                   |
|   \\  /    A nd           | Web:      www.OpenFOAM.org                      |
|    \\/     M anipulation  |                                                 |
\*---------------------------------------------------------------------------*/
FoamFile
{
    version     2.0;
    format      ascii;
    class       volScalarField;
    location    "0.06";
    object      A1C2H-;
}
// * * * * * * * * * * * * * * * * * * * * * * * * * * * * * * * * * * * * * //

dimensions      [0 0 0 0 0 0 0];

internalField   nonuniform List<scalar> 
25
(
1.32655e-14
1.6861e-14
2.12131e-14
2.62876e-14
3.20306e-14
3.83225e-14
4.50357e-14
5.20054e-14
5.91216e-14
6.60708e-14
7.28079e-14
7.92099e-14
8.52037e-14
9.07111e-14
9.54972e-14
9.93724e-14
1.02336e-13
1.04305e-13
1.05225e-13
1.05067e-13
1.03807e-13
1.01378e-13
9.79278e-14
9.34972e-14
8.81711e-14
)
;

boundaryField
{
    wall
    {
        type            zeroGradient;
    }
    fuel
    {
        type            fixedValue;
        value           nonuniform 0();
    }
    outlet
    {
        type            inletOutlet;
        inletValue      nonuniform 0();
        value           nonuniform 0();
    }
    procBoundary2to1
    {
        type            processor;
        value           uniform 1.03244e-14;
    }
    procBoundary2to3
    {
        type            processor;
        value           uniform 8.1915e-14;
    }
}


// ************************************************************************* //
