/*--------------------------------*- C++ -*----------------------------------*\
| =========                 |                                                 |
| \\      /  F ield         | OpenFOAM: The Open Source CFD Toolbox           |
|  \\    /   O peration     | Version:  dev                                   |
|   \\  /    A nd           | Web:      www.OpenFOAM.org                      |
|    \\/     M anipulation  |                                                 |
\*---------------------------------------------------------------------------*/
FoamFile
{
    version     2.0;
    format      ascii;
    class       volScalarField;
    location    "0.06";
    object      A1C2H3*;
}
// * * * * * * * * * * * * * * * * * * * * * * * * * * * * * * * * * * * * * //

dimensions      [0 0 0 0 0 0 0];

internalField   nonuniform List<scalar> 
250
(
9.86643e-11
1.30658e-08
6.1979e-09
5.84448e-09
5.81746e-09
5.80217e-09
5.79901e-09
5.80164e-09
5.80913e-09
9.14433e-11
5.47562e-09
2.45014e-09
2.28981e-09
2.27686e-09
2.27377e-09
2.27153e-09
2.27215e-09
2.27515e-09
5.87908e-11
2.7858e-09
1.06296e-09
9.77578e-10
9.69961e-10
9.68354e-10
9.67958e-10
9.67864e-10
9.68725e-10
3.8571e-11
1.63599e-09
5.07587e-10
4.56465e-10
4.5177e-10
4.50785e-10
4.50819e-10
4.50646e-10
4.50949e-10
3.11136e-11
1.04116e-09
2.69663e-10
2.3597e-10
2.32964e-10
2.32439e-10
2.325e-10
2.32404e-10
2.32532e-10
3.25414e-11
7.06177e-10
1.59935e-10
1.36992e-10
1.33482e-10
1.3263e-10
1.32744e-10
1.32556e-10
1.32659e-10
3.68201e-11
4.80635e-10
1.06598e-10
8.90972e-11
8.61611e-11
8.54742e-11
8.55384e-11
8.54079e-11
8.54775e-11
4.54236e-11
3.48254e-10
7.70871e-11
6.3141e-11
6.03813e-11
5.97559e-11
5.97821e-11
5.96905e-11
5.97396e-11
7.22068e-11
2.6205e-10
5.81692e-11
4.69822e-11
4.47665e-11
4.42524e-11
4.42999e-11
4.41774e-11
4.42492e-11
1.18952e-10
1.9451e-10
4.5006e-11
3.59741e-11
3.47716e-11
3.45274e-11
3.45587e-11
3.44559e-11
3.45199e-11
1.67992e-10
1.45721e-10
3.70154e-11
2.95136e-11
2.82306e-11
2.79532e-11
2.80013e-11
2.7862e-11
2.79423e-11
2.78936e-11
2.01162e-10
1.09536e-10
3.07998e-11
2.44955e-11
2.32032e-11
2.29233e-11
2.29671e-11
2.28348e-11
2.29128e-11
2.28609e-11
1.95052e-10
8.66437e-11
2.60892e-11
2.07966e-11
1.95947e-11
1.92919e-11
1.93356e-11
1.92058e-11
1.92835e-11
1.92289e-11
1.53866e-10
6.92336e-11
2.25211e-11
1.80076e-11
1.68942e-11
1.65719e-11
1.66175e-11
1.64883e-11
1.65665e-11
1.65097e-11
1.05469e-10
5.5952e-11
1.97437e-11
1.58317e-11
1.48007e-11
1.44664e-11
1.45147e-11
1.43857e-11
1.44642e-11
1.4406e-11
6.96137e-11
4.60022e-11
1.75294e-11
1.40836e-11
1.31293e-11
1.27906e-11
1.28411e-11
1.27131e-11
1.27913e-11
1.27329e-11
4.88049e-11
3.75412e-11
1.57255e-11
1.2646e-11
1.17638e-11
1.14269e-11
1.14786e-11
1.13533e-11
1.143e-11
1.13725e-11
3.81355e-11
3.18103e-11
1.42328e-11
1.1443e-11
1.06289e-11
1.02992e-11
1.03506e-11
1.02297e-11
1.03038e-11
1.02484e-11
3.28681e-11
2.7384e-11
1.29798e-11
1.04248e-11
9.67527e-12
9.35647e-12
9.40597e-12
9.29173e-12
9.36179e-12
9.30973e-12
3.02324e-11
2.38294e-11
1.19171e-11
9.55802e-12
8.86926e-12
8.56387e-12
8.60985e-12
8.50428e-12
8.56899e-12
8.5214e-12
2.8881e-11
2.12011e-11
1.10106e-11
8.81915e-12
8.18738e-12
7.89642e-12
7.9373e-12
7.84248e-12
7.90048e-12
7.85849e-12
2.81938e-11
1.91768e-11
1.02349e-11
8.1913e-12
7.61266e-12
7.33549e-12
7.36979e-12
7.28787e-12
7.33772e-12
7.30251e-12
2.78888e-11
1.76019e-11
9.57086e-12
7.66144e-12
7.13256e-12
6.92434e-12
6.95215e-12
6.88203e-12
6.92461e-12
6.89553e-12
2.78266e-11
1.63165e-11
9.07286e-12
7.27982e-12
6.78419e-12
6.58539e-12
6.61207e-12
6.54633e-12
6.58579e-12
6.55904e-12
2.79228e-11
1.53283e-11
8.63253e-12
6.94744e-12
6.51374e-12
6.33548e-12
6.35511e-12
6.30148e-12
6.33321e-12
6.31289e-12
2.81073e-11
1.44592e-11
8.3037e-12
6.71986e-12
6.31593e-12
6.15964e-12
6.17171e-12
6.13063e-12
6.15427e-12
6.14068e-12
)
;

boundaryField
{
    fuel
    {
        type            fixedValue;
        value           uniform 0;
    }
    wall
    {
        type            zeroGradient;
    }
    outlet
    {
        type            zeroGradient;
    }
    frontAndBack
    {
        type            empty;
    }
    procBoundary2to0
    {
        type            processor;
        value           nonuniform List<scalar> 
12
(
6.32166e-12
2.82818e-11
1.38274e-11
8.0535e-12
6.56565e-12
6.18946e-12
6.05438e-12
6.0585e-12
6.0302e-12
6.0455e-12
6.14765e-12
6.03885e-12
)
;
    }
    procBoundary2to3
    {
        type            processor;
        value           nonuniform List<scalar> 
25
(
5.80835e-09
2.2738e-09
9.68463e-10
4.50917e-10
2.32557e-10
1.32654e-10
8.54786e-11
5.97459e-11
4.42176e-11
3.44892e-11
3.44892e-11
2.7891e-11
2.28659e-11
1.92393e-11
1.6524e-11
1.44231e-11
1.27515e-11
1.13918e-11
1.02676e-11
9.32818e-12
8.5386e-12
7.87402e-12
7.316e-12
6.90719e-12
6.56959e-12
)
;
    }
}


// ************************************************************************* //
