/*--------------------------------*- C++ -*----------------------------------*\
| =========                 |                                                 |
| \\      /  F ield         | OpenFOAM: The Open Source CFD Toolbox           |
|  \\    /   O peration     | Version:  dev                                   |
|   \\  /    A nd           | Web:      www.OpenFOAM.org                      |
|    \\/     M anipulation  |                                                 |
\*---------------------------------------------------------------------------*/
FoamFile
{
    version     2.0;
    format      ascii;
    class       volScalarField;
    location    "0.06";
    object      A1C2H*;
}
// * * * * * * * * * * * * * * * * * * * * * * * * * * * * * * * * * * * * * //

dimensions      [0 0 0 0 0 0 0];

internalField   nonuniform List<scalar> 
250
(
6.02274e-09
5.45055e-07
5.39576e-07
5.36625e-07
5.35942e-07
5.35929e-07
5.35891e-07
5.35962e-07
5.35906e-07
5.58537e-09
6.43054e-07
5.59961e-07
5.46407e-07
5.44008e-07
5.43774e-07
5.43702e-07
5.43814e-07
5.43662e-07
2.64602e-09
4.69878e-07
3.70244e-07
3.55616e-07
3.52833e-07
3.5267e-07
3.52536e-07
3.52624e-07
3.52547e-07
1.13066e-09
3.17543e-07
2.24869e-07
2.12316e-07
2.09737e-07
2.09616e-07
2.09502e-07
2.09557e-07
2.09516e-07
5.46955e-10
2.2005e-07
1.39033e-07
1.28617e-07
1.26483e-07
1.26383e-07
1.26298e-07
1.26327e-07
1.26312e-07
3.19843e-10
1.60631e-07
9.08176e-08
8.17103e-08
8.02154e-08
8.01257e-08
8.00642e-08
8.00755e-08
8.00755e-08
2.27258e-10
1.2322e-07
6.3356e-08
5.51612e-08
5.39869e-08
5.38973e-08
5.38515e-08
5.38525e-08
5.38612e-08
2.02296e-10
9.82554e-08
4.58402e-08
3.96899e-08
3.8584e-08
3.84859e-08
3.84489e-08
3.84447e-08
3.84582e-08
2.76945e-10
7.97618e-08
3.42189e-08
2.89831e-08
2.82303e-08
2.81841e-08
2.8164e-08
2.81515e-08
2.81677e-08
5.97485e-10
6.64881e-08
2.74493e-08
2.20171e-08
2.13191e-08
2.12662e-08
2.12501e-08
2.12368e-08
2.12528e-08
1.18143e-09
5.61875e-08
2.26199e-08
1.7862e-08
1.72417e-08
1.71875e-08
1.71738e-08
1.71597e-08
1.71761e-08
1.71678e-08
2.21803e-09
4.79617e-08
1.88569e-08
1.48317e-08
1.41082e-08
1.40341e-08
1.40188e-08
1.40033e-08
1.40208e-08
1.40119e-08
3.52533e-09
4.12831e-08
1.60188e-08
1.24736e-08
1.1817e-08
1.17413e-08
1.17266e-08
1.1711e-08
1.17279e-08
1.17199e-08
4.81737e-09
3.58119e-08
1.40877e-08
1.07083e-08
1.0104e-08
1.00284e-08
1.00141e-08
9.99853e-09
1.00147e-08
1.00073e-08
6.05163e-09
3.1297e-08
1.23978e-08
9.3422e-09
8.7797e-09
8.70536e-09
8.69128e-09
8.67589e-09
8.69142e-09
8.68433e-09
7.26628e-09
2.75513e-08
1.09497e-08
8.25114e-09
7.72455e-09
7.65234e-09
7.6384e-09
7.62322e-09
7.6381e-09
7.6313e-09
8.41535e-09
2.41697e-08
9.87528e-09
7.35545e-09
6.86178e-09
6.79226e-09
6.77842e-09
6.76356e-09
6.77779e-09
6.7712e-09
9.36719e-09
2.10762e-08
8.86681e-09
6.60233e-09
6.14117e-09
6.07469e-09
6.06097e-09
6.04652e-09
6.06008e-09
6.05369e-09
9.98943e-09
1.83924e-08
7.9564e-09
5.95725e-09
5.52908e-09
5.4659e-09
5.45233e-09
5.4384e-09
5.45126e-09
5.44508e-09
1.0224e-08
1.60273e-08
7.15525e-09
5.39688e-09
5.00236e-09
4.94262e-09
4.92929e-09
4.91599e-09
4.92809e-09
4.92215e-09
1.01087e-08
1.42231e-08
6.44556e-09
4.90456e-09
4.54442e-09
4.48821e-09
4.4752e-09
4.46265e-09
4.4739e-09
4.46826e-09
9.73688e-09
1.24855e-08
5.81168e-09
4.46728e-09
4.1424e-09
4.08976e-09
4.07715e-09
4.06548e-09
4.07576e-09
4.07051e-09
9.17605e-09
1.08722e-08
5.24115e-09
4.12311e-09
3.8281e-09
3.77882e-09
3.7667e-09
3.75566e-09
3.76529e-09
3.76031e-09
8.58009e-09
9.52769e-09
4.78599e-09
3.80308e-09
3.52849e-09
3.48244e-09
3.47063e-09
3.45981e-09
3.46901e-09
3.46373e-09
7.97112e-09
8.37131e-09
4.3758e-09
3.53329e-09
3.28538e-09
3.24253e-09
3.23127e-09
3.22103e-09
3.22959e-09
3.22452e-09
7.36618e-09
7.35423e-09
4.01463e-09
3.29402e-09
3.07121e-09
3.03149e-09
3.02078e-09
3.01107e-09
3.01905e-09
3.01413e-09
)
;

boundaryField
{
    fuel
    {
        type            fixedValue;
        value           uniform 0;
    }
    wall
    {
        type            zeroGradient;
    }
    outlet
    {
        type            zeroGradient;
    }
    frontAndBack
    {
        type            empty;
    }
    procBoundary2to0
    {
        type            processor;
        value           nonuniform List<scalar> 
12
(
3.2221e-09
6.7683e-09
6.47372e-09
3.69293e-09
3.08038e-09
2.88107e-09
2.84441e-09
2.83426e-09
2.825e-09
2.83247e-09
3.01216e-09
2.82763e-09
)
;
    }
    procBoundary2to3
    {
        type            processor;
        value           nonuniform List<scalar> 
25
(
5.35879e-07
5.43629e-07
3.52512e-07
2.09485e-07
1.26287e-07
8.00565e-08
5.38465e-08
3.84465e-08
2.81556e-08
2.12432e-08
2.12432e-08
1.7166e-08
1.40097e-08
1.17165e-08
1.00033e-08
8.67994e-09
7.6267e-09
6.76656e-09
6.04913e-09
5.4407e-09
4.91803e-09
4.46448e-09
4.06712e-09
3.75723e-09
3.46097e-09
)
;
    }
}


// ************************************************************************* //
