/*--------------------------------*- C++ -*----------------------------------*\
| =========                 |                                                 |
| \\      /  F ield         | OpenFOAM: The Open Source CFD Toolbox           |
|  \\    /   O peration     | Version:  dev                                   |
|   \\  /    A nd           | Web:      www.OpenFOAM.org                      |
|    \\/     M anipulation  |                                                 |
\*---------------------------------------------------------------------------*/
FoamFile
{
    version     2.0;
    format      ascii;
    class       volScalarField;
    location    "0.06";
    object      A1C2H3*;
}
// * * * * * * * * * * * * * * * * * * * * * * * * * * * * * * * * * * * * * //

dimensions      [0 0 0 0 0 0 0];

internalField   nonuniform List<scalar> 
25
(
4.60665e-17
6.05461e-17
7.93134e-17
1.02901e-16
1.3188e-16
1.66665e-16
2.0778e-16
2.55743e-16
3.11913e-16
3.76332e-16
4.51692e-16
5.40869e-16
6.48349e-16
7.79896e-16
9.41313e-16
1.13664e-15
1.37832e-15
1.67842e-15
2.05377e-15
2.52885e-15
3.13475e-15
3.89849e-15
4.84205e-15
6.0351e-15
7.55701e-15
)
;

boundaryField
{
    wall
    {
        type            zeroGradient;
    }
    fuel
    {
        type            fixedValue;
        value           nonuniform 0();
    }
    outlet
    {
        type            inletOutlet;
        inletValue      nonuniform 0();
        value           nonuniform 0();
    }
    procBoundary2to1
    {
        type            processor;
        value           uniform 3.48918e-17;
    }
    procBoundary2to3
    {
        type            processor;
        value           uniform 9.47911e-15;
    }
}


// ************************************************************************* //
