/*--------------------------------*- C++ -*----------------------------------*\
| =========                 |                                                 |
| \\      /  F ield         | OpenFOAM: The Open Source CFD Toolbox           |
|  \\    /   O peration     | Version:  dev                                   |
|   \\  /    A nd           | Web:      www.OpenFOAM.org                      |
|    \\/     M anipulation  |                                                 |
\*---------------------------------------------------------------------------*/
FoamFile
{
    version     2.0;
    format      ascii;
    class       volScalarField;
    location    "0.06";
    object      A1C2H-;
}
// * * * * * * * * * * * * * * * * * * * * * * * * * * * * * * * * * * * * * //

dimensions      [0 0 0 0 0 0 0];

internalField   nonuniform List<scalar> 
1997
(
5.73474e-09
5.75188e-09
5.75923e-09
5.76439e-09
5.76379e-09
5.76322e-09
5.76126e-09
5.76085e-09
5.75938e-09
5.75864e-09
5.75774e-09
5.75742e-09
5.7569e-09
5.7568e-09
5.75649e-09
5.7565e-09
5.75631e-09
5.75636e-09
5.62996e-09
5.64595e-09
5.65237e-09
5.65704e-09
5.65626e-09
5.65556e-09
5.65362e-09
5.65309e-09
5.65166e-09
5.65091e-09
5.65004e-09
5.64972e-09
5.64921e-09
5.64911e-09
5.64881e-09
5.64881e-09
5.64863e-09
5.64867e-09
5.64856e-09
5.6486e-09
5.64853e-09
5.64856e-09
5.64852e-09
5.64854e-09
5.64852e-09
5.64852e-09
5.64854e-09
5.64852e-09
5.52846e-09
5.54335e-09
5.54888e-09
5.55307e-09
5.55209e-09
5.55125e-09
5.54932e-09
5.54868e-09
5.54728e-09
5.54653e-09
5.54568e-09
5.54535e-09
5.54486e-09
5.54475e-09
5.54445e-09
5.54445e-09
5.54427e-09
5.54431e-09
5.5442e-09
5.54425e-09
5.54418e-09
5.54421e-09
5.54417e-09
5.54418e-09
5.54417e-09
5.54417e-09
5.54418e-09
5.54416e-09
5.5442e-09
5.54417e-09
5.54424e-09
5.54419e-09
5.5443e-09
5.54426e-09
5.54443e-09
5.54444e-09
5.54473e-09
5.54484e-09
5.54533e-09
5.54566e-09
5.42991e-09
5.44373e-09
5.44841e-09
5.45211e-09
5.45093e-09
5.44995e-09
5.44802e-09
5.44728e-09
5.4459e-09
5.44514e-09
5.4443e-09
5.44397e-09
5.44349e-09
5.44337e-09
5.44308e-09
5.44308e-09
5.4429e-09
5.44294e-09
5.44283e-09
5.44287e-09
5.4428e-09
5.44283e-09
5.44279e-09
5.4428e-09
5.44279e-09
5.44279e-09
5.4428e-09
5.44279e-09
5.44282e-09
5.44279e-09
5.44286e-09
5.44282e-09
5.44293e-09
5.44289e-09
5.44306e-09
5.44307e-09
5.44336e-09
5.44347e-09
5.44395e-09
5.44429e-09
5.44512e-09
5.44588e-09
5.44725e-09
5.44799e-09
5.44991e-09
5.45089e-09
5.45207e-09
5.44836e-09
5.44369e-09
5.42986e-09
5.33397e-09
5.34675e-09
5.3506e-09
5.35383e-09
5.35244e-09
5.35131e-09
5.34936e-09
5.34852e-09
5.34716e-09
5.34639e-09
5.34557e-09
5.34522e-09
5.34475e-09
5.34463e-09
5.34435e-09
5.34433e-09
5.34416e-09
5.34419e-09
5.34409e-09
5.34412e-09
5.34405e-09
5.34408e-09
5.34404e-09
5.34405e-09
5.34404e-09
5.34404e-09
5.34405e-09
5.34404e-09
5.34407e-09
5.34405e-09
5.34411e-09
5.34408e-09
5.34418e-09
5.34415e-09
5.34432e-09
5.34433e-09
5.34462e-09
5.34473e-09
5.34521e-09
5.34555e-09
5.34637e-09
5.34714e-09
5.3485e-09
5.34933e-09
5.35127e-09
5.3524e-09
5.35378e-09
5.35056e-09
5.34671e-09
5.33393e-09
5.23907e-09
5.25108e-09
5.25409e-09
5.25676e-09
5.25487e-09
5.2535e-09
5.25142e-09
5.25042e-09
5.24901e-09
5.24819e-09
5.24734e-09
5.24698e-09
5.24648e-09
5.24635e-09
5.24606e-09
5.24603e-09
5.24586e-09
5.24588e-09
5.24577e-09
5.2458e-09
5.24573e-09
5.24575e-09
5.24571e-09
5.24572e-09
5.2457e-09
5.2457e-09
5.24572e-09
5.2457e-09
5.24574e-09
5.24572e-09
5.24579e-09
5.24576e-09
5.24587e-09
5.24584e-09
5.24602e-09
5.24605e-09
5.24634e-09
5.24647e-09
5.24696e-09
5.24733e-09
5.24817e-09
5.24899e-09
5.2504e-09
5.25139e-09
5.25347e-09
5.25483e-09
5.25672e-09
5.25405e-09
5.25104e-09
5.23902e-09
5.14718e-09
5.15823e-09
5.16044e-09
5.16261e-09
5.16047e-09
5.15893e-09
5.1568e-09
5.1557e-09
5.15429e-09
5.15345e-09
5.1526e-09
5.15222e-09
5.15173e-09
5.15159e-09
5.1513e-09
5.15127e-09
5.15109e-09
5.15111e-09
5.151e-09
5.15103e-09
5.15095e-09
5.15097e-09
5.15093e-09
5.15094e-09
5.15093e-09
5.15093e-09
5.15094e-09
5.15093e-09
5.15097e-09
5.15095e-09
5.15102e-09
5.15099e-09
5.1511e-09
5.15108e-09
5.15126e-09
5.15129e-09
5.15158e-09
5.15172e-09
5.15221e-09
5.15259e-09
5.15343e-09
5.15427e-09
5.15568e-09
5.15677e-09
5.1589e-09
5.16043e-09
5.16257e-09
5.1604e-09
5.15818e-09
5.14714e-09
5.0568e-09
5.0669e-09
5.06831e-09
5.06999e-09
5.06757e-09
5.06585e-09
5.06365e-09
5.06245e-09
5.06103e-09
5.06016e-09
5.05931e-09
5.05892e-09
5.05843e-09
5.05828e-09
5.05799e-09
5.05795e-09
5.05777e-09
5.05779e-09
5.05768e-09
5.0577e-09
5.05762e-09
5.05764e-09
5.0576e-09
5.05761e-09
5.05759e-09
5.05759e-09
5.05761e-09
5.0576e-09
5.05764e-09
5.05762e-09
5.05769e-09
5.05767e-09
5.05778e-09
5.05776e-09
5.05794e-09
5.05798e-09
5.05827e-09
5.05842e-09
5.05891e-09
5.0593e-09
5.06014e-09
5.061e-09
5.06243e-09
5.06363e-09
5.06582e-09
5.06753e-09
5.06995e-09
5.06827e-09
5.06686e-09
5.05676e-09
4.96757e-09
4.97674e-09
4.97736e-09
4.97852e-09
4.9758e-09
4.97389e-09
4.97162e-09
4.97031e-09
4.96886e-09
4.96797e-09
4.96712e-09
4.96671e-09
4.96622e-09
4.96606e-09
4.96576e-09
4.96572e-09
4.96554e-09
4.96555e-09
4.96543e-09
4.96545e-09
4.96538e-09
4.96539e-09
4.96535e-09
4.96536e-09
4.96534e-09
4.96534e-09
4.96536e-09
4.96535e-09
4.96539e-09
4.96537e-09
4.96545e-09
4.96543e-09
4.96554e-09
4.96553e-09
4.96571e-09
4.96575e-09
4.96604e-09
4.9662e-09
4.96669e-09
4.9671e-09
4.96795e-09
4.96884e-09
4.97029e-09
4.97159e-09
4.97386e-09
4.97577e-09
4.97848e-09
4.97731e-09
4.9767e-09
4.96753e-09
4.87795e-09
4.88664e-09
4.88659e-09
4.88728e-09
4.88417e-09
4.88194e-09
4.87945e-09
4.87801e-09
4.87648e-09
4.87554e-09
4.87465e-09
4.87421e-09
4.8737e-09
4.87352e-09
4.87321e-09
4.87316e-09
4.87297e-09
4.87297e-09
4.87285e-09
4.87287e-09
4.87278e-09
4.8728e-09
4.87275e-09
4.87275e-09
4.87274e-09
4.87274e-09
4.87275e-09
4.87275e-09
4.87279e-09
4.87278e-09
4.87286e-09
4.87284e-09
4.87296e-09
4.87296e-09
4.87315e-09
4.8732e-09
4.87351e-09
4.87368e-09
4.87419e-09
4.87463e-09
4.87551e-09
4.87646e-09
4.87799e-09
4.87943e-09
4.8819e-09
4.88413e-09
4.88724e-09
4.88655e-09
4.8866e-09
4.87791e-09
4.7871e-09
4.79483e-09
4.79401e-09
4.79413e-09
4.79071e-09
4.78823e-09
4.78564e-09
4.78409e-09
4.78252e-09
4.78154e-09
4.78063e-09
4.78018e-09
4.77966e-09
4.77947e-09
4.77916e-09
4.7791e-09
4.77891e-09
4.7789e-09
4.77878e-09
4.77879e-09
4.7787e-09
4.77871e-09
4.77866e-09
4.77867e-09
4.77865e-09
4.77865e-09
4.77867e-09
4.77866e-09
4.77871e-09
4.77869e-09
4.77878e-09
4.77877e-09
4.77889e-09
4.77889e-09
4.77909e-09
4.77914e-09
4.77946e-09
4.77964e-09
4.78016e-09
4.78062e-09
4.78151e-09
4.7825e-09
4.78406e-09
4.78562e-09
4.7882e-09
4.79067e-09
4.79409e-09
4.79397e-09
4.79478e-09
4.78706e-09
4.69872e-09
4.7056e-09
4.70396e-09
4.70353e-09
4.69976e-09
4.69703e-09
4.6943e-09
4.69262e-09
4.69101e-09
4.68998e-09
4.68906e-09
4.68858e-09
4.68805e-09
4.68785e-09
4.68753e-09
4.68746e-09
4.68726e-09
4.68725e-09
4.68712e-09
4.68713e-09
4.68704e-09
4.68705e-09
4.687e-09
4.687e-09
4.68698e-09
4.68698e-09
4.687e-09
4.687e-09
4.68705e-09
4.68704e-09
4.68712e-09
4.68712e-09
4.68724e-09
4.68725e-09
4.68745e-09
4.68751e-09
4.68783e-09
4.68803e-09
4.68856e-09
4.68904e-09
4.68996e-09
4.69098e-09
4.69259e-09
4.69427e-09
4.69699e-09
4.69972e-09
4.70349e-09
4.70392e-09
4.70555e-09
4.69867e-09
4.60986e-09
4.61592e-09
4.61344e-09
4.61246e-09
4.60831e-09
4.60531e-09
4.60242e-09
4.60061e-09
4.59895e-09
4.59787e-09
4.59692e-09
4.59642e-09
4.59588e-09
4.59567e-09
4.59533e-09
4.59526e-09
4.59506e-09
4.59504e-09
4.59491e-09
4.59491e-09
4.59482e-09
4.59483e-09
4.59478e-09
4.59478e-09
4.59476e-09
4.59476e-09
4.59478e-09
4.59477e-09
4.59482e-09
4.59481e-09
4.5949e-09
4.5949e-09
4.59503e-09
4.59504e-09
4.59525e-09
4.59532e-09
4.59565e-09
4.59586e-09
4.59641e-09
4.59691e-09
4.59785e-09
4.59892e-09
4.60059e-09
4.6024e-09
4.60526e-09
4.60827e-09
4.61242e-09
4.6134e-09
4.61588e-09
4.60982e-09
4.52023e-09
4.52547e-09
4.52214e-09
4.52058e-09
4.51606e-09
4.51275e-09
4.50969e-09
4.50775e-09
4.50602e-09
4.50489e-09
4.50392e-09
4.50339e-09
4.50283e-09
4.50261e-09
4.50227e-09
4.50218e-09
4.50197e-09
4.50195e-09
4.50182e-09
4.50182e-09
4.50172e-09
4.50173e-09
4.50168e-09
4.50168e-09
4.50165e-09
4.50165e-09
4.50167e-09
4.50167e-09
4.50172e-09
4.50172e-09
4.50181e-09
4.50181e-09
4.50194e-09
4.50196e-09
4.50217e-09
4.50225e-09
4.50259e-09
4.50281e-09
4.50338e-09
4.5039e-09
4.50487e-09
4.50599e-09
4.50772e-09
4.50967e-09
4.5127e-09
4.51602e-09
4.52054e-09
4.5221e-09
4.52543e-09
4.52018e-09
4.42791e-09
4.43233e-09
4.42792e-09
4.42563e-09
4.42057e-09
4.41683e-09
4.41349e-09
4.41136e-09
4.40952e-09
4.40832e-09
4.4073e-09
4.40673e-09
4.40614e-09
4.40589e-09
4.40553e-09
4.40544e-09
4.40522e-09
4.40519e-09
4.40505e-09
4.40504e-09
4.40495e-09
4.40495e-09
4.40489e-09
4.40489e-09
4.40487e-09
4.40487e-09
4.40489e-09
4.40489e-09
4.40494e-09
4.40494e-09
4.40504e-09
4.40504e-09
4.40518e-09
4.4052e-09
4.40543e-09
4.40552e-09
4.40588e-09
4.40612e-09
4.40671e-09
4.40728e-09
4.40829e-09
4.4095e-09
4.41134e-09
4.41346e-09
4.41678e-09
4.42053e-09
4.42559e-09
4.42788e-09
4.43229e-09
4.42787e-09
4.33283e-09
4.33636e-09
4.33108e-09
4.32816e-09
4.32271e-09
4.31862e-09
4.31505e-09
4.31278e-09
4.31087e-09
4.30961e-09
4.30856e-09
4.30796e-09
4.30735e-09
4.30709e-09
4.30672e-09
4.30662e-09
4.30639e-09
4.30636e-09
4.30621e-09
4.30621e-09
4.3061e-09
4.30611e-09
4.30605e-09
4.30605e-09
4.30602e-09
4.30602e-09
4.30605e-09
4.30605e-09
4.3061e-09
4.3061e-09
4.3062e-09
4.3062e-09
4.30635e-09
4.30638e-09
4.30661e-09
4.30671e-09
4.30708e-09
4.30733e-09
4.30795e-09
4.30854e-09
4.30958e-09
4.31084e-09
4.31276e-09
4.31502e-09
4.31855e-09
4.32266e-09
4.32812e-09
4.33104e-09
4.33632e-09
4.33279e-09
4.23565e-09
4.23829e-09
4.23213e-09
4.22856e-09
4.2227e-09
4.21825e-09
4.21441e-09
4.212e-09
4.21002e-09
4.20871e-09
4.20762e-09
4.20699e-09
4.20636e-09
4.20609e-09
4.2057e-09
4.20559e-09
4.20536e-09
4.20532e-09
4.20517e-09
4.20517e-09
4.20506e-09
4.20506e-09
4.20501e-09
4.205e-09
4.20498e-09
4.20498e-09
4.205e-09
4.205e-09
4.20506e-09
4.20506e-09
4.20516e-09
4.20516e-09
4.20531e-09
4.20535e-09
4.20558e-09
4.20569e-09
4.20607e-09
4.20635e-09
4.20697e-09
4.2076e-09
4.20868e-09
4.20999e-09
4.21198e-09
4.21439e-09
4.21816e-09
4.22265e-09
4.22852e-09
4.23209e-09
4.23825e-09
4.23561e-09
4.13596e-09
4.13771e-09
4.13065e-09
4.12644e-09
4.12014e-09
4.11526e-09
4.11119e-09
4.10863e-09
4.10658e-09
4.10521e-09
4.10409e-09
4.10343e-09
4.10278e-09
4.10249e-09
4.10209e-09
4.10198e-09
4.10173e-09
4.1017e-09
4.10154e-09
4.10153e-09
4.10143e-09
4.10143e-09
4.10137e-09
4.10137e-09
4.10135e-09
4.10135e-09
4.10137e-09
4.10137e-09
4.10143e-09
4.10142e-09
4.10153e-09
4.10153e-09
4.10169e-09
4.10172e-09
4.10196e-09
4.10208e-09
4.10247e-09
4.10276e-09
4.10341e-09
4.10407e-09
4.10518e-09
4.10655e-09
4.10862e-09
4.11117e-09
4.11518e-09
4.1201e-09
4.1264e-09
4.13061e-09
4.13767e-09
4.13592e-09
4.03636e-09
4.03729e-09
4.02928e-09
4.02445e-09
4.0177e-09
4.01219e-09
4.00801e-09
4.00531e-09
4.00318e-09
4.00175e-09
4.0006e-09
3.99991e-09
3.99924e-09
3.99893e-09
3.99852e-09
3.9984e-09
3.99815e-09
3.99811e-09
3.99796e-09
3.99795e-09
3.99784e-09
3.99785e-09
3.99779e-09
3.99779e-09
3.99776e-09
3.99776e-09
3.99778e-09
3.99778e-09
3.99784e-09
3.99784e-09
3.99794e-09
3.99795e-09
3.9981e-09
3.99814e-09
3.99839e-09
3.99851e-09
3.99892e-09
3.99922e-09
3.99989e-09
4.00058e-09
4.00172e-09
4.00315e-09
4.0053e-09
4.00799e-09
4.01213e-09
4.01766e-09
4.02441e-09
4.02924e-09
4.03725e-09
4.03632e-09
3.93202e-09
3.93224e-09
3.92317e-09
3.91764e-09
3.91035e-09
3.90578e-09
3.90196e-09
3.89913e-09
3.89692e-09
3.89544e-09
3.89425e-09
3.89354e-09
3.89284e-09
3.89253e-09
3.89211e-09
3.89198e-09
3.89172e-09
3.89169e-09
3.89153e-09
3.89152e-09
3.89141e-09
3.89142e-09
3.89136e-09
3.89136e-09
3.89134e-09
3.89134e-09
3.89136e-09
3.89136e-09
3.89141e-09
3.89141e-09
3.89151e-09
3.89152e-09
3.89168e-09
3.89171e-09
3.89197e-09
3.89209e-09
3.89252e-09
3.89283e-09
3.89352e-09
3.89423e-09
3.8954e-09
3.89689e-09
3.89911e-09
3.90194e-09
3.90576e-09
3.91031e-09
3.91761e-09
3.92313e-09
3.9322e-09
3.93199e-09
3.82647e-09
3.82588e-09
3.81584e-09
3.80971e-09
3.80195e-09
3.79673e-09
3.7927e-09
3.78949e-09
3.78704e-09
3.7854e-09
3.7841e-09
3.78331e-09
3.78255e-09
3.7822e-09
3.78173e-09
3.78158e-09
3.7813e-09
3.78125e-09
3.78108e-09
3.78107e-09
3.78096e-09
3.78096e-09
3.7809e-09
3.7809e-09
3.78088e-09
3.78088e-09
3.7809e-09
3.7809e-09
3.78096e-09
3.78095e-09
3.78106e-09
3.78107e-09
3.78124e-09
3.78129e-09
3.78157e-09
3.78172e-09
3.78218e-09
3.78254e-09
3.78329e-09
3.78409e-09
3.78536e-09
3.78701e-09
3.78947e-09
3.79268e-09
3.79676e-09
3.80192e-09
3.80968e-09
3.81581e-09
3.82584e-09
3.82645e-09
3.71782e-09
3.71643e-09
3.70543e-09
3.69871e-09
3.69048e-09
3.68488e-09
3.68063e-09
3.67728e-09
3.67476e-09
3.67306e-09
3.67173e-09
3.67092e-09
3.67014e-09
3.66977e-09
3.66929e-09
3.66914e-09
3.66885e-09
3.66881e-09
3.66863e-09
3.66862e-09
3.66852e-09
3.66852e-09
3.66846e-09
3.66847e-09
3.66844e-09
3.66844e-09
3.66846e-09
3.66846e-09
3.66852e-09
3.66851e-09
3.66862e-09
3.66862e-09
3.6688e-09
3.66884e-09
3.66913e-09
3.66928e-09
3.66976e-09
3.67012e-09
3.6709e-09
3.67172e-09
3.67302e-09
3.67473e-09
3.67726e-09
3.68062e-09
3.6849e-09
3.69044e-09
3.69868e-09
3.70539e-09
3.71639e-09
3.7178e-09
3.60403e-09
3.60187e-09
3.58985e-09
3.58249e-09
3.57369e-09
3.56769e-09
3.56315e-09
3.55964e-09
3.55703e-09
3.55525e-09
3.55388e-09
3.55303e-09
3.55222e-09
3.55184e-09
3.55135e-09
3.55119e-09
3.5509e-09
3.55085e-09
3.55068e-09
3.55067e-09
3.55057e-09
3.55058e-09
3.55052e-09
3.55053e-09
3.55051e-09
3.55051e-09
3.55052e-09
3.55052e-09
3.55057e-09
3.55056e-09
3.55067e-09
3.55067e-09
3.55084e-09
3.55089e-09
3.55118e-09
3.55134e-09
3.55183e-09
3.55221e-09
3.55301e-09
3.55387e-09
3.55521e-09
3.557e-09
3.55962e-09
3.56314e-09
3.5677e-09
3.57366e-09
3.58246e-09
3.58982e-09
3.60184e-09
3.60402e-09
3.48894e-09
3.486e-09
3.47305e-09
3.46512e-09
3.45595e-09
3.4496e-09
3.44483e-09
3.44121e-09
3.43854e-09
3.4367e-09
3.43531e-09
3.43443e-09
3.43361e-09
3.43322e-09
3.43272e-09
3.43257e-09
3.43227e-09
3.43222e-09
3.43205e-09
3.43205e-09
3.43195e-09
3.43196e-09
3.43191e-09
3.43192e-09
3.4319e-09
3.4319e-09
3.43191e-09
3.4319e-09
3.43196e-09
3.43194e-09
3.43204e-09
3.43204e-09
3.43221e-09
3.43226e-09
3.43256e-09
3.43271e-09
3.43321e-09
3.4336e-09
3.43441e-09
3.4353e-09
3.43666e-09
3.43851e-09
3.44119e-09
3.44483e-09
3.44959e-09
3.45592e-09
3.46509e-09
3.47302e-09
3.48597e-09
3.48893e-09
3.37077e-09
3.36706e-09
3.35323e-09
3.34477e-09
3.33522e-09
3.32855e-09
3.32361e-09
3.31985e-09
3.31712e-09
3.31512e-09
3.31366e-09
3.31272e-09
3.31186e-09
3.31144e-09
3.31091e-09
3.31074e-09
3.31043e-09
3.31038e-09
3.31019e-09
3.3102e-09
3.31009e-09
3.31011e-09
3.31005e-09
3.31006e-09
3.31004e-09
3.31004e-09
3.31006e-09
3.31005e-09
3.3101e-09
3.31008e-09
3.31019e-09
3.31019e-09
3.31037e-09
3.31042e-09
3.31073e-09
3.3109e-09
3.31143e-09
3.31184e-09
3.3127e-09
3.31365e-09
3.31508e-09
3.3171e-09
3.31984e-09
3.32361e-09
3.32853e-09
3.33519e-09
3.34474e-09
3.3532e-09
3.36703e-09
3.37076e-09
3.24753e-09
3.24288e-09
3.22797e-09
3.21888e-09
3.20881e-09
3.20179e-09
3.19667e-09
3.19273e-09
3.18995e-09
3.18787e-09
3.18639e-09
3.18542e-09
3.18454e-09
3.18412e-09
3.18357e-09
3.1834e-09
3.18308e-09
3.18304e-09
3.18285e-09
3.18286e-09
3.18276e-09
3.18277e-09
3.18272e-09
3.18273e-09
3.18272e-09
3.18272e-09
3.18273e-09
3.18272e-09
3.18277e-09
3.18275e-09
3.18285e-09
3.18285e-09
3.18303e-09
3.18307e-09
3.1834e-09
3.18356e-09
3.1841e-09
3.18453e-09
3.18541e-09
3.18638e-09
3.18783e-09
3.18993e-09
3.19273e-09
3.19666e-09
3.20177e-09
3.20878e-09
3.21886e-09
3.22795e-09
3.24285e-09
3.24753e-09
3.12357e-09
3.11815e-09
3.10251e-09
3.09298e-09
3.08254e-09
3.07526e-09
3.07006e-09
3.06602e-09
3.06323e-09
3.06109e-09
3.05959e-09
3.05862e-09
3.05773e-09
3.0573e-09
3.05675e-09
3.05659e-09
3.05626e-09
3.05622e-09
3.05604e-09
3.05605e-09
3.05596e-09
3.05598e-09
3.05592e-09
3.05594e-09
3.05593e-09
3.05593e-09
3.05594e-09
3.05592e-09
3.05597e-09
3.05595e-09
3.05605e-09
3.05603e-09
3.05622e-09
3.05626e-09
3.05658e-09
3.05674e-09
3.05729e-09
3.05772e-09
3.0586e-09
3.05959e-09
3.06105e-09
3.0632e-09
3.06601e-09
3.07006e-09
3.07523e-09
3.0825e-09
3.09296e-09
3.10249e-09
3.11812e-09
3.12357e-09
2.99616e-09
2.98952e-09
2.97262e-09
2.96239e-09
2.95134e-09
2.9437e-09
2.93835e-09
2.93415e-09
2.93131e-09
2.92911e-09
2.92758e-09
2.92658e-09
2.92567e-09
2.92523e-09
2.92468e-09
2.92451e-09
2.92418e-09
2.92414e-09
2.92396e-09
2.92397e-09
2.92388e-09
2.9239e-09
2.92385e-09
2.92387e-09
2.92386e-09
2.92386e-09
2.92387e-09
2.92385e-09
2.9239e-09
2.92387e-09
2.92397e-09
2.92395e-09
2.92413e-09
2.92417e-09
2.9245e-09
2.92467e-09
2.92522e-09
2.92566e-09
2.92656e-09
2.92758e-09
2.92906e-09
2.93128e-09
2.93415e-09
2.93835e-09
2.94367e-09
2.95131e-09
2.96238e-09
2.9726e-09
2.98949e-09
2.99616e-09
2.86762e-09
2.86019e-09
2.84267e-09
2.83213e-09
2.82072e-09
2.81291e-09
2.80754e-09
2.80329e-09
2.80045e-09
2.79823e-09
2.7967e-09
2.79569e-09
2.79479e-09
2.79435e-09
2.7938e-09
2.79363e-09
2.79331e-09
2.79327e-09
2.79309e-09
2.79311e-09
2.79302e-09
2.79305e-09
2.793e-09
2.79302e-09
2.79301e-09
2.79301e-09
2.79302e-09
2.793e-09
2.79304e-09
2.79302e-09
2.7931e-09
2.79308e-09
2.79326e-09
2.7933e-09
2.79362e-09
2.79379e-09
2.79434e-09
2.79478e-09
2.79568e-09
2.7967e-09
2.79818e-09
2.80042e-09
2.80329e-09
2.80754e-09
2.81288e-09
2.82069e-09
2.83212e-09
2.84265e-09
2.86017e-09
2.86762e-09
2.73746e-09
2.72919e-09
2.71114e-09
2.70039e-09
2.68837e-09
2.68011e-09
2.67454e-09
2.67012e-09
2.66721e-09
2.66492e-09
2.66335e-09
2.66231e-09
2.66139e-09
2.66094e-09
2.66037e-09
2.66021e-09
2.65988e-09
2.65984e-09
2.65966e-09
2.65968e-09
2.65959e-09
2.65962e-09
2.65957e-09
2.65959e-09
2.65958e-09
2.65958e-09
2.65959e-09
2.65957e-09
2.65961e-09
2.65959e-09
2.65968e-09
2.65965e-09
2.65984e-09
2.65987e-09
2.6602e-09
2.66037e-09
2.66093e-09
2.66138e-09
2.6623e-09
2.66335e-09
2.66487e-09
2.66719e-09
2.67012e-09
2.67454e-09
2.68009e-09
2.68834e-09
2.70038e-09
2.71112e-09
2.72917e-09
2.73745e-09
2.60355e-09
2.59703e-09
2.57859e-09
2.56772e-09
2.55533e-09
2.54698e-09
2.54142e-09
2.537e-09
2.53414e-09
2.53183e-09
2.53028e-09
2.52925e-09
2.52834e-09
2.5279e-09
2.52734e-09
2.52717e-09
2.52685e-09
2.52682e-09
2.52664e-09
2.52667e-09
2.52658e-09
2.52661e-09
2.52656e-09
2.52658e-09
2.52657e-09
2.52657e-09
2.52658e-09
2.52656e-09
2.5266e-09
2.52657e-09
2.52666e-09
2.52663e-09
2.52681e-09
2.52684e-09
2.52717e-09
2.52733e-09
2.52789e-09
2.52833e-09
2.52923e-09
2.53029e-09
2.53179e-09
2.53411e-09
2.537e-09
2.54142e-09
2.54696e-09
2.5553e-09
2.56771e-09
2.57857e-09
2.597e-09
2.60352e-09
2.47142e-09
2.46378e-09
2.44421e-09
2.43289e-09
2.41983e-09
2.41122e-09
2.40563e-09
2.40112e-09
2.39825e-09
2.39591e-09
2.39437e-09
2.39332e-09
2.39241e-09
2.39197e-09
2.39141e-09
2.39125e-09
2.39092e-09
2.3909e-09
2.39072e-09
2.39075e-09
2.39066e-09
2.39069e-09
2.39064e-09
2.39066e-09
2.39065e-09
2.39065e-09
2.39066e-09
2.39064e-09
2.39068e-09
2.39065e-09
2.39074e-09
2.39071e-09
2.39089e-09
2.39092e-09
2.39124e-09
2.3914e-09
2.39196e-09
2.3924e-09
2.39331e-09
2.39437e-09
2.39587e-09
2.39823e-09
2.40112e-09
2.40563e-09
2.4112e-09
2.4198e-09
2.43288e-09
2.44419e-09
2.46375e-09
2.47139e-09
2.33582e-09
2.32746e-09
2.30766e-09
2.29638e-09
2.28645e-09
2.2778e-09
2.27233e-09
2.26783e-09
2.26503e-09
2.26271e-09
2.2612e-09
2.26017e-09
2.25928e-09
2.25885e-09
2.2583e-09
2.25815e-09
2.25783e-09
2.25781e-09
2.25764e-09
2.25766e-09
2.25758e-09
2.2576e-09
2.25756e-09
2.25758e-09
2.25756e-09
2.25756e-09
2.25757e-09
2.25755e-09
2.2576e-09
2.25757e-09
2.25766e-09
2.25763e-09
2.2578e-09
2.25782e-09
2.25814e-09
2.25829e-09
2.25885e-09
2.25927e-09
2.26015e-09
2.26121e-09
2.26268e-09
2.26501e-09
2.26784e-09
2.27232e-09
2.27779e-09
2.28642e-09
2.29637e-09
2.30764e-09
2.32743e-09
2.33578e-09
2.20381e-09
2.19504e-09
2.17497e-09
2.16374e-09
2.15369e-09
2.14479e-09
2.13931e-09
2.13474e-09
2.13197e-09
2.12962e-09
2.12812e-09
2.12709e-09
2.12622e-09
2.12579e-09
2.12524e-09
2.12509e-09
2.12478e-09
2.12476e-09
2.12459e-09
2.12462e-09
2.12453e-09
2.12455e-09
2.1245e-09
2.12452e-09
2.12451e-09
2.12451e-09
2.12452e-09
2.1245e-09
2.12455e-09
2.12452e-09
2.12461e-09
2.12458e-09
2.12475e-09
2.12477e-09
2.12509e-09
2.12523e-09
2.12578e-09
2.12621e-09
2.12707e-09
2.12813e-09
2.1296e-09
2.13195e-09
2.13474e-09
2.1393e-09
2.14478e-09
2.15366e-09
2.16374e-09
2.17495e-09
2.19501e-09
2.20376e-09
2.07085e-09
2.06161e-09
2.04345e-09
2.03231e-09
2.02239e-09
2.01356e-09
2.00823e-09
2.00371e-09
2.00103e-09
1.99873e-09
1.99727e-09
1.99627e-09
1.99542e-09
1.99501e-09
1.99448e-09
1.99434e-09
1.99403e-09
1.99402e-09
1.99385e-09
1.99388e-09
1.99379e-09
1.99381e-09
1.99376e-09
1.99378e-09
1.99377e-09
1.99376e-09
1.99378e-09
1.99376e-09
1.99381e-09
1.99378e-09
1.99387e-09
1.99384e-09
1.99401e-09
1.99403e-09
1.99433e-09
1.99447e-09
1.99501e-09
1.99541e-09
1.99625e-09
1.99728e-09
1.99871e-09
2.00101e-09
2.00372e-09
2.00822e-09
2.01356e-09
2.02236e-09
2.03232e-09
2.04343e-09
2.06158e-09
2.0708e-09
1.94136e-09
1.9319e-09
1.9137e-09
1.90237e-09
1.89231e-09
1.88352e-09
1.87822e-09
1.87372e-09
1.8711e-09
1.86883e-09
1.86739e-09
1.86641e-09
1.86557e-09
1.86517e-09
1.86465e-09
1.86452e-09
1.86421e-09
1.8642e-09
1.86403e-09
1.86406e-09
1.86397e-09
1.86399e-09
1.86394e-09
1.86396e-09
1.86395e-09
1.86395e-09
1.86396e-09
1.86394e-09
1.86399e-09
1.86396e-09
1.86405e-09
1.86402e-09
1.86419e-09
1.8642e-09
1.86451e-09
1.86464e-09
1.86517e-09
1.86557e-09
1.86639e-09
1.8674e-09
1.86881e-09
1.87108e-09
1.87373e-09
1.87821e-09
1.88351e-09
1.89228e-09
1.90238e-09
1.91368e-09
1.93187e-09
1.94131e-09
1.81406e-09
1.80439e-09
1.78639e-09
1.77522e-09
1.76538e-09
1.75686e-09
1.75167e-09
1.7473e-09
1.74478e-09
1.74257e-09
1.74118e-09
1.74024e-09
1.73944e-09
1.73906e-09
1.73855e-09
1.73843e-09
1.73813e-09
1.73812e-09
1.73796e-09
1.73799e-09
1.73789e-09
1.73792e-09
1.73787e-09
1.73789e-09
1.73787e-09
1.73787e-09
1.73788e-09
1.73786e-09
1.73792e-09
1.73789e-09
1.73798e-09
1.73795e-09
1.73812e-09
1.73813e-09
1.73842e-09
1.73854e-09
1.73905e-09
1.73943e-09
1.74022e-09
1.7412e-09
1.74256e-09
1.74476e-09
1.7473e-09
1.75166e-09
1.75686e-09
1.76535e-09
1.77523e-09
1.78637e-09
1.80436e-09
1.81402e-09
1.68854e-09
1.67969e-09
1.66202e-09
1.65109e-09
1.64154e-09
1.6333e-09
1.62823e-09
1.62399e-09
1.6216e-09
1.61947e-09
1.61814e-09
1.61724e-09
1.61647e-09
1.61611e-09
1.61562e-09
1.61551e-09
1.61523e-09
1.61522e-09
1.61506e-09
1.61508e-09
1.61499e-09
1.61502e-09
1.61497e-09
1.61498e-09
1.61497e-09
1.61497e-09
1.61498e-09
1.61496e-09
1.61501e-09
1.61499e-09
1.61508e-09
1.61505e-09
1.61521e-09
1.61522e-09
1.6155e-09
1.61562e-09
1.6161e-09
1.61646e-09
1.61722e-09
1.61815e-09
1.61946e-09
1.62158e-09
1.624e-09
1.62822e-09
1.63329e-09
1.64152e-09
1.6511e-09
1.66201e-09
1.67966e-09
1.6885e-09
1.56724e-09
1.55837e-09
1.54112e-09
1.53048e-09
1.52127e-09
1.51335e-09
1.50841e-09
1.50432e-09
1.50206e-09
1.50001e-09
1.49875e-09
1.4979e-09
1.49716e-09
1.49682e-09
1.49636e-09
1.49626e-09
1.49599e-09
1.49598e-09
1.49582e-09
1.49585e-09
1.49576e-09
1.49578e-09
1.49573e-09
1.49575e-09
1.49573e-09
1.49573e-09
1.49574e-09
1.49573e-09
1.49578e-09
1.49575e-09
1.49584e-09
1.49582e-09
1.49597e-09
1.49598e-09
1.49625e-09
1.49635e-09
1.49682e-09
1.49715e-09
1.49788e-09
1.49876e-09
1.50001e-09
1.50204e-09
1.50433e-09
1.5084e-09
1.51334e-09
1.52125e-09
1.53049e-09
1.5411e-09
1.55834e-09
1.56721e-09
1.44933e-09
1.44019e-09
1.42414e-09
1.41386e-09
1.40504e-09
1.39747e-09
1.39264e-09
1.38873e-09
1.38659e-09
1.38466e-09
1.38346e-09
1.38265e-09
1.38196e-09
1.38164e-09
1.3812e-09
1.38111e-09
1.38085e-09
1.38085e-09
1.3807e-09
1.38073e-09
1.38064e-09
1.38066e-09
1.38061e-09
1.38062e-09
1.3806e-09
1.3806e-09
1.38062e-09
1.3806e-09
1.38065e-09
1.38063e-09
1.38072e-09
1.38069e-09
1.38085e-09
1.38085e-09
1.38111e-09
1.3812e-09
1.38164e-09
1.38195e-09
1.38264e-09
1.38347e-09
1.38466e-09
1.38659e-09
1.38873e-09
1.39263e-09
1.39746e-09
1.40501e-09
1.41387e-09
1.42412e-09
1.44015e-09
1.4493e-09
1.33596e-09
1.32693e-09
1.31097e-09
1.30084e-09
1.29216e-09
1.28484e-09
1.28133e-09
1.27759e-09
1.27559e-09
1.27377e-09
1.27265e-09
1.2719e-09
1.27124e-09
1.27095e-09
1.27054e-09
1.27046e-09
1.27021e-09
1.27021e-09
1.27007e-09
1.27009e-09
1.27e-09
1.27002e-09
1.26997e-09
1.26999e-09
1.26997e-09
1.26997e-09
1.26999e-09
1.26997e-09
1.27002e-09
1.27e-09
1.27008e-09
1.27006e-09
1.27021e-09
1.27021e-09
1.27045e-09
1.27053e-09
1.27094e-09
1.27123e-09
1.27188e-09
1.27265e-09
1.27377e-09
1.27559e-09
1.27759e-09
1.28132e-09
1.28483e-09
1.29214e-09
1.30085e-09
1.31095e-09
1.3269e-09
1.33594e-09
1.22715e-09
1.21831e-09
1.20299e-09
1.19334e-09
1.18504e-09
1.17813e-09
1.1748e-09
1.17124e-09
1.16938e-09
1.16768e-09
1.16663e-09
)
;

boundaryField
{
    fuel
    {
        type            fixedValue;
        value           nonuniform 0();
    }
    wall
    {
        type            zeroGradient;
    }
    outlet
    {
        type            zeroGradient;
    }
    frontAndBack
    {
        type            empty;
    }
    procBoundary2to0
    {
        type            processor;
        value           nonuniform List<scalar> 
53
(
5.84314e-09
5.86146e-09
5.86981e-09
5.87545e-09
5.87503e-09
5.8746e-09
5.8726e-09
5.87231e-09
5.87079e-09
5.87005e-09
5.86914e-09
5.86882e-09
5.86828e-09
5.86819e-09
5.86787e-09
5.86788e-09
5.86768e-09
5.86774e-09
5.75625e-09
5.75625e-09
5.7563e-09
5.75622e-09
5.75626e-09
5.75622e-09
5.75623e-09
5.75622e-09
5.75622e-09
5.75623e-09
5.75621e-09
5.64856e-09
5.64856e-09
5.64853e-09
5.6486e-09
5.64855e-09
5.64866e-09
5.64861e-09
5.64879e-09
5.64879e-09
5.64909e-09
5.6492e-09
5.6497e-09
5.65002e-09
5.54651e-09
5.54651e-09
5.54726e-09
5.54866e-09
5.54929e-09
5.55121e-09
5.55205e-09
5.55302e-09
5.54883e-09
5.5433e-09
5.52841e-09
)
;
    }
    procBoundary2to3
    {
        type            processor;
        value           nonuniform List<scalar> 
51
(
1.16594e-09
1.16532e-09
1.16506e-09
1.16467e-09
1.1646e-09
1.16437e-09
1.16438e-09
1.16424e-09
1.16426e-09
1.16418e-09
1.1642e-09
1.16415e-09
1.16416e-09
1.16415e-09
1.16415e-09
1.16416e-09
1.16415e-09
1.16419e-09
1.16417e-09
1.16426e-09
1.16423e-09
1.16437e-09
1.16437e-09
1.1646e-09
1.16467e-09
1.16505e-09
1.16531e-09
1.16591e-09
1.16663e-09
1.16768e-09
1.16938e-09
1.17124e-09
1.17479e-09
1.17813e-09
1.18503e-09
1.19335e-09
1.20298e-09
1.21828e-09
1.22713e-09
1.12321e-09
1.11462e-09
1.09998e-09
1.09086e-09
1.08293e-09
1.07646e-09
1.0733e-09
1.06994e-09
1.06819e-09
1.06663e-09
1.16594e-09
1.06565e-09
)
;
    }
}


// ************************************************************************* //
