/*--------------------------------*- C++ -*----------------------------------*\
| =========                 |                                                 |
| \\      /  F ield         | OpenFOAM: The Open Source CFD Toolbox           |
|  \\    /   O peration     | Version:  dev                                   |
|   \\  /    A nd           | Web:      www.OpenFOAM.org                      |
|    \\/     M anipulation  |                                                 |
\*---------------------------------------------------------------------------*/
FoamFile
{
    version     2.0;
    format      ascii;
    class       volScalarField;
    location    "0.06";
    object      A2R5-;
}
// * * * * * * * * * * * * * * * * * * * * * * * * * * * * * * * * * * * * * //

dimensions      [0 0 0 0 0 0 0];

internalField   nonuniform List<scalar> 
250
(
2.29417e-10
3.64356e-08
2.39935e-08
2.26494e-08
2.2511e-08
2.24928e-08
2.2503e-08
2.24872e-08
2.24884e-08
4.11053e-10
5.12066e-08
3.05995e-08
2.84445e-08
2.82137e-08
2.81712e-08
2.81719e-08
2.8166e-08
2.81695e-08
3.76023e-10
5.00536e-08
3.04426e-08
2.8071e-08
2.77939e-08
2.77382e-08
2.77391e-08
2.77299e-08
2.77376e-08
2.65563e-10
4.32126e-08
2.8297e-08
2.6035e-08
2.57362e-08
2.56675e-08
2.5673e-08
2.56582e-08
2.56673e-08
1.71989e-10
3.55844e-08
2.57541e-08
2.37393e-08
2.34291e-08
2.3349e-08
2.3358e-08
2.33386e-08
2.33486e-08
1.10366e-10
2.91042e-08
2.33269e-08
2.16338e-08
2.12676e-08
2.11563e-08
2.11703e-08
2.11422e-08
2.11543e-08
7.19781e-11
2.36046e-08
2.13183e-08
1.98811e-08
1.94907e-08
1.93625e-08
1.93777e-08
1.93458e-08
1.93593e-08
5.20585e-11
1.99942e-08
1.96576e-08
1.84219e-08
1.79942e-08
1.78478e-08
1.78638e-08
1.78283e-08
1.78436e-08
5.44132e-11
1.74651e-08
1.81754e-08
1.71026e-08
1.66766e-08
1.65239e-08
1.65455e-08
1.65003e-08
1.65217e-08
8.14099e-11
1.53357e-08
1.67957e-08
1.58344e-08
1.5496e-08
1.53662e-08
1.53898e-08
1.53395e-08
1.53646e-08
1.3666e-10
1.37547e-08
1.57203e-08
1.48263e-08
1.44474e-08
1.42959e-08
1.43267e-08
1.42617e-08
1.42948e-08
1.4269e-08
2.41373e-10
1.2588e-08
1.46535e-08
1.37737e-08
1.33546e-08
1.3187e-08
1.32215e-08
1.31486e-08
1.31872e-08
1.31564e-08
4.18673e-10
1.18778e-08
1.36313e-08
1.27552e-08
1.23197e-08
1.21334e-08
1.2172e-08
1.20912e-08
1.21353e-08
1.20997e-08
6.84513e-10
1.13502e-08
1.26684e-08
1.17783e-08
1.1332e-08
1.11288e-08
1.11717e-08
1.10832e-08
1.11327e-08
1.10926e-08
1.05058e-09
1.09401e-08
1.1754e-08
1.08402e-08
1.03893e-08
1.01721e-08
1.02191e-08
1.01239e-08
1.01782e-08
1.01342e-08
1.5323e-09
1.06061e-08
1.08818e-08
9.94182e-09
9.4925e-09
9.26499e-09
9.31547e-09
9.21483e-09
9.27308e-09
9.22602e-09
2.1484e-09
1.02616e-08
1.00487e-08
9.08546e-09
8.6439e-09
8.40966e-09
8.46281e-09
8.35846e-09
8.41955e-09
8.37035e-09
2.90485e-09
9.95997e-09
9.25367e-09
8.27386e-09
7.8457e-09
7.60812e-09
7.66286e-09
7.55673e-09
7.61944e-09
7.56911e-09
3.78087e-09
9.63907e-09
8.49614e-09
7.50941e-09
7.09937e-09
6.86138e-09
6.91647e-09
6.81064e-09
6.87363e-09
6.82325e-09
4.72043e-09
9.26986e-09
7.77587e-09
6.79358e-09
6.4053e-09
6.1691e-09
6.22325e-09
6.11985e-09
6.18176e-09
6.1324e-09
5.64305e-09
8.88169e-09
7.09249e-09
6.12664e-09
5.76266e-09
5.52941e-09
5.58132e-09
5.48251e-09
5.54194e-09
5.49469e-09
6.46423e-09
8.45866e-09
6.44471e-09
5.50734e-09
5.16934e-09
4.93831e-09
4.98678e-09
4.89475e-09
4.95026e-09
4.90624e-09
7.1154e-09
8.00174e-09
5.82971e-09
4.93215e-09
4.62155e-09
4.4538e-09
4.49877e-09
4.41306e-09
4.46514e-09
4.424e-09
7.55392e-09
7.4953e-09
5.31072e-09
4.4648e-09
4.17018e-09
3.9988e-09
4.04744e-09
3.95828e-09
4.01259e-09
3.96915e-09
7.76498e-09
6.98002e-09
4.78918e-09
3.99598e-09
3.75888e-09
3.59858e-09
3.64373e-09
3.56082e-09
3.61165e-09
3.57098e-09
7.75505e-09
6.39399e-09
4.32997e-09
3.60115e-09
3.38242e-09
3.23547e-09
3.2771e-09
3.20044e-09
3.24779e-09
3.20987e-09
)
;

boundaryField
{
    fuel
    {
        type            fixedValue;
        value           uniform 0;
    }
    wall
    {
        type            zeroGradient;
    }
    outlet
    {
        type            zeroGradient;
    }
    frontAndBack
    {
        type            empty;
    }
    procBoundary2to0
    {
        type            processor;
        value           nonuniform List<scalar> 
12
(
3.58277e-09
7.54436e-09
5.8513e-09
3.89949e-09
3.23884e-09
3.0404e-09
2.90532e-09
2.94349e-09
2.87294e-09
2.91692e-09
3.22064e-09
2.88162e-09
)
;
    }
    procBoundary2to3
    {
        type            processor;
        value           nonuniform List<scalar> 
25
(
2.24885e-08
2.81723e-08
2.7738e-08
2.5667e-08
2.33473e-08
2.11502e-08
1.93532e-08
1.78353e-08
1.65068e-08
1.53462e-08
1.53462e-08
1.42767e-08
1.31663e-08
1.21116e-08
1.11063e-08
1.01494e-08
9.24233e-09
8.38732e-09
7.5863e-09
6.84021e-09
6.14874e-09
5.51003e-09
4.92024e-09
4.43684e-09
3.98188e-09
)
;
    }
}


// ************************************************************************* //
