/*--------------------------------*- C++ -*----------------------------------*\
| =========                 |                                                 |
| \\      /  F ield         | OpenFOAM: The Open Source CFD Toolbox           |
|  \\    /   O peration     | Version:  dev                                   |
|   \\  /    A nd           | Web:      www.OpenFOAM.org                      |
|    \\/     M anipulation  |                                                 |
\*---------------------------------------------------------------------------*/
FoamFile
{
    version     2.0;
    format      ascii;
    class       volScalarField;
    location    "0.06";
    object      A4;
}
// * * * * * * * * * * * * * * * * * * * * * * * * * * * * * * * * * * * * * //

dimensions      [0 0 0 0 0 0 0];

internalField   nonuniform List<scalar> 
1997
(
5.70141e-08
5.71002e-08
5.71403e-08
5.71708e-08
5.71741e-08
5.71765e-08
5.71716e-08
5.71742e-08
5.71706e-08
5.717e-08
5.71682e-08
5.71686e-08
5.71677e-08
5.71686e-08
5.71681e-08
5.71689e-08
5.71687e-08
5.71694e-08
5.65668e-08
5.66489e-08
5.66869e-08
5.67165e-08
5.67203e-08
5.67229e-08
5.67188e-08
5.67211e-08
5.6718e-08
5.67176e-08
5.6716e-08
5.67165e-08
5.67158e-08
5.67166e-08
5.67162e-08
5.67171e-08
5.67169e-08
5.67176e-08
5.67174e-08
5.67179e-08
5.67178e-08
5.67181e-08
5.6718e-08
5.67181e-08
5.67181e-08
5.67181e-08
5.67181e-08
5.6718e-08
5.61412e-08
5.62196e-08
5.62556e-08
5.62844e-08
5.62887e-08
5.62915e-08
5.62881e-08
5.62904e-08
5.62877e-08
5.62875e-08
5.62861e-08
5.62867e-08
5.6286e-08
5.62869e-08
5.62866e-08
5.62875e-08
5.62873e-08
5.62881e-08
5.62879e-08
5.62884e-08
5.62883e-08
5.62886e-08
5.62885e-08
5.62886e-08
5.62886e-08
5.62886e-08
5.62886e-08
5.62885e-08
5.62885e-08
5.62883e-08
5.62884e-08
5.62879e-08
5.6288e-08
5.62872e-08
5.62874e-08
5.62865e-08
5.62868e-08
5.62859e-08
5.62865e-08
5.62859e-08
5.57372e-08
5.5812e-08
5.58462e-08
5.58742e-08
5.58791e-08
5.58821e-08
5.58794e-08
5.58816e-08
5.58794e-08
5.58793e-08
5.58781e-08
5.58788e-08
5.58783e-08
5.58793e-08
5.58791e-08
5.58799e-08
5.58798e-08
5.58805e-08
5.58804e-08
5.58809e-08
5.58808e-08
5.58811e-08
5.5881e-08
5.58812e-08
5.58811e-08
5.58811e-08
5.58812e-08
5.5881e-08
5.58811e-08
5.58808e-08
5.58809e-08
5.58804e-08
5.58804e-08
5.58797e-08
5.58798e-08
5.58789e-08
5.58791e-08
5.58782e-08
5.58787e-08
5.5878e-08
5.58791e-08
5.58791e-08
5.58813e-08
5.58791e-08
5.58817e-08
5.58788e-08
5.58738e-08
5.58458e-08
5.58116e-08
5.57368e-08
5.53546e-08
5.54257e-08
5.54583e-08
5.54856e-08
5.54912e-08
5.54943e-08
5.54923e-08
5.54946e-08
5.54928e-08
5.54929e-08
5.54919e-08
5.54927e-08
5.54923e-08
5.54933e-08
5.54932e-08
5.54941e-08
5.5494e-08
5.54947e-08
5.54946e-08
5.54951e-08
5.54951e-08
5.54953e-08
5.54953e-08
5.54954e-08
5.54954e-08
5.54954e-08
5.54954e-08
5.54953e-08
5.54953e-08
5.5495e-08
5.54951e-08
5.54946e-08
5.54946e-08
5.54939e-08
5.54939e-08
5.5493e-08
5.54931e-08
5.54922e-08
5.54925e-08
5.54917e-08
5.54926e-08
5.54925e-08
5.54943e-08
5.5492e-08
5.5494e-08
5.54908e-08
5.54852e-08
5.54579e-08
5.54253e-08
5.53542e-08
5.4988e-08
5.50567e-08
5.50878e-08
5.51142e-08
5.51193e-08
5.51224e-08
5.51206e-08
5.51227e-08
5.5121e-08
5.51212e-08
5.51203e-08
5.51211e-08
5.51208e-08
5.51218e-08
5.51217e-08
5.51226e-08
5.51225e-08
5.51232e-08
5.51232e-08
5.51237e-08
5.51236e-08
5.51239e-08
5.51238e-08
5.51239e-08
5.51239e-08
5.51239e-08
5.51239e-08
5.51238e-08
5.51238e-08
5.51236e-08
5.51236e-08
5.51231e-08
5.51231e-08
5.51224e-08
5.51225e-08
5.51216e-08
5.51216e-08
5.51207e-08
5.51209e-08
5.51202e-08
5.5121e-08
5.51208e-08
5.51224e-08
5.51203e-08
5.5122e-08
5.51189e-08
5.51138e-08
5.50874e-08
5.50563e-08
5.49876e-08
5.46467e-08
5.47121e-08
5.47419e-08
5.47676e-08
5.47733e-08
5.47767e-08
5.47755e-08
5.47776e-08
5.47764e-08
5.47767e-08
5.47761e-08
5.47769e-08
5.47768e-08
5.47778e-08
5.47778e-08
5.47787e-08
5.47787e-08
5.47794e-08
5.47793e-08
5.47798e-08
5.47798e-08
5.478e-08
5.478e-08
5.47801e-08
5.47801e-08
5.47801e-08
5.47801e-08
5.478e-08
5.478e-08
5.47797e-08
5.47798e-08
5.47793e-08
5.47793e-08
5.47786e-08
5.47785e-08
5.47776e-08
5.47776e-08
5.47766e-08
5.47768e-08
5.47759e-08
5.47765e-08
5.47762e-08
5.47773e-08
5.47752e-08
5.47763e-08
5.4773e-08
5.47672e-08
5.47415e-08
5.47117e-08
5.46462e-08
5.43256e-08
5.43878e-08
5.44166e-08
5.44417e-08
5.4448e-08
5.44516e-08
5.4451e-08
5.44532e-08
5.44524e-08
5.44529e-08
5.44524e-08
5.44534e-08
5.44533e-08
5.44544e-08
5.44544e-08
5.44553e-08
5.44554e-08
5.44561e-08
5.44561e-08
5.44566e-08
5.44565e-08
5.44568e-08
5.44568e-08
5.44569e-08
5.44569e-08
5.44569e-08
5.44569e-08
5.44567e-08
5.44568e-08
5.44565e-08
5.44565e-08
5.4456e-08
5.4456e-08
5.44553e-08
5.44552e-08
5.44543e-08
5.44542e-08
5.44532e-08
5.44532e-08
5.44522e-08
5.44526e-08
5.44521e-08
5.44529e-08
5.44507e-08
5.44512e-08
5.44476e-08
5.44413e-08
5.44162e-08
5.43874e-08
5.43251e-08
5.40243e-08
5.40836e-08
5.41113e-08
5.41359e-08
5.41428e-08
5.41467e-08
5.41467e-08
5.4149e-08
5.41486e-08
5.41492e-08
5.4149e-08
5.415e-08
5.41501e-08
5.41511e-08
5.41513e-08
5.41522e-08
5.41523e-08
5.4153e-08
5.4153e-08
5.41535e-08
5.41535e-08
5.41537e-08
5.41537e-08
5.41538e-08
5.41538e-08
5.41538e-08
5.41538e-08
5.41537e-08
5.41537e-08
5.41534e-08
5.41534e-08
5.41529e-08
5.41529e-08
5.41522e-08
5.4152e-08
5.41511e-08
5.4151e-08
5.41499e-08
5.41498e-08
5.41488e-08
5.4149e-08
5.41483e-08
5.41487e-08
5.41464e-08
5.41463e-08
5.41424e-08
5.41355e-08
5.41109e-08
5.40832e-08
5.40239e-08
5.37386e-08
5.37964e-08
5.38238e-08
5.38481e-08
5.38552e-08
5.38591e-08
5.38593e-08
5.38617e-08
5.38614e-08
5.38621e-08
5.38621e-08
5.38631e-08
5.38633e-08
5.38643e-08
5.38645e-08
5.38654e-08
5.38656e-08
5.38662e-08
5.38663e-08
5.38667e-08
5.38667e-08
5.3867e-08
5.3867e-08
5.38671e-08
5.38671e-08
5.38671e-08
5.38671e-08
5.38669e-08
5.3867e-08
5.38667e-08
5.38667e-08
5.38662e-08
5.38661e-08
5.38654e-08
5.38653e-08
5.38644e-08
5.38642e-08
5.38631e-08
5.38629e-08
5.38619e-08
5.38619e-08
5.38612e-08
5.38614e-08
5.3859e-08
5.38587e-08
5.38548e-08
5.38476e-08
5.38234e-08
5.3796e-08
5.37382e-08
5.34672e-08
5.3522e-08
5.35489e-08
5.35727e-08
5.35805e-08
5.35846e-08
5.35855e-08
5.3588e-08
5.35881e-08
5.3589e-08
5.35891e-08
5.35902e-08
5.35905e-08
5.35916e-08
5.35919e-08
5.35928e-08
5.3593e-08
5.35936e-08
5.35937e-08
5.35942e-08
5.35942e-08
5.35944e-08
5.35944e-08
5.35945e-08
5.35945e-08
5.35945e-08
5.35945e-08
5.35944e-08
5.35944e-08
5.35941e-08
5.35941e-08
5.35936e-08
5.35935e-08
5.35928e-08
5.35927e-08
5.35917e-08
5.35915e-08
5.35904e-08
5.359e-08
5.35889e-08
5.35888e-08
5.35878e-08
5.35877e-08
5.35851e-08
5.35843e-08
5.35801e-08
5.35723e-08
5.35485e-08
5.35216e-08
5.34667e-08
5.3222e-08
5.32743e-08
5.33007e-08
5.3324e-08
5.33323e-08
5.33368e-08
5.33382e-08
5.33408e-08
5.33413e-08
5.33423e-08
5.33426e-08
5.33438e-08
5.33442e-08
5.33453e-08
5.33456e-08
5.33466e-08
5.33468e-08
5.33474e-08
5.33475e-08
5.3348e-08
5.3348e-08
5.33483e-08
5.33482e-08
5.33484e-08
5.33483e-08
5.33483e-08
5.33483e-08
5.33482e-08
5.33482e-08
5.3348e-08
5.33479e-08
5.33475e-08
5.33473e-08
5.33466e-08
5.33464e-08
5.33455e-08
5.33451e-08
5.3344e-08
5.33436e-08
5.33424e-08
5.33421e-08
5.3341e-08
5.33405e-08
5.33378e-08
5.33364e-08
5.33319e-08
5.33236e-08
5.33002e-08
5.32739e-08
5.32216e-08
5.29948e-08
5.30447e-08
5.30706e-08
5.30936e-08
5.31023e-08
5.31071e-08
5.3109e-08
5.31118e-08
5.31125e-08
5.31137e-08
5.31142e-08
5.31155e-08
5.3116e-08
5.31171e-08
5.31175e-08
5.31184e-08
5.31187e-08
5.31194e-08
5.31195e-08
5.31199e-08
5.312e-08
5.31202e-08
5.31202e-08
5.31203e-08
5.31203e-08
5.31203e-08
5.31203e-08
5.31202e-08
5.31202e-08
5.31199e-08
5.31199e-08
5.31194e-08
5.31192e-08
5.31186e-08
5.31183e-08
5.31174e-08
5.31169e-08
5.31158e-08
5.31153e-08
5.3114e-08
5.31135e-08
5.31123e-08
5.31115e-08
5.31086e-08
5.31067e-08
5.31019e-08
5.30932e-08
5.30701e-08
5.30443e-08
5.29943e-08
5.27849e-08
5.28326e-08
5.28581e-08
5.28808e-08
5.28899e-08
5.2895e-08
5.28974e-08
5.29003e-08
5.29014e-08
5.29027e-08
5.29034e-08
5.29047e-08
5.29053e-08
5.29065e-08
5.29069e-08
5.29078e-08
5.29081e-08
5.29088e-08
5.2909e-08
5.29094e-08
5.29094e-08
5.29097e-08
5.29097e-08
5.29098e-08
5.29098e-08
5.29098e-08
5.29098e-08
5.29097e-08
5.29096e-08
5.29094e-08
5.29093e-08
5.29089e-08
5.29087e-08
5.2908e-08
5.29077e-08
5.29068e-08
5.29063e-08
5.29051e-08
5.29045e-08
5.29031e-08
5.29025e-08
5.29011e-08
5.29e-08
5.2897e-08
5.28946e-08
5.28895e-08
5.28803e-08
5.28576e-08
5.28321e-08
5.27844e-08
5.25883e-08
5.26339e-08
5.26586e-08
5.26808e-08
5.269e-08
5.26953e-08
5.26979e-08
5.27009e-08
5.27022e-08
5.27036e-08
5.27044e-08
5.27057e-08
5.27064e-08
5.27076e-08
5.27081e-08
5.2709e-08
5.27093e-08
5.271e-08
5.27101e-08
5.27106e-08
5.27106e-08
5.27109e-08
5.27109e-08
5.2711e-08
5.2711e-08
5.2711e-08
5.2711e-08
5.27108e-08
5.27108e-08
5.27106e-08
5.27105e-08
5.27101e-08
5.27099e-08
5.27092e-08
5.27088e-08
5.27079e-08
5.27074e-08
5.27062e-08
5.27055e-08
5.27041e-08
5.27034e-08
5.27019e-08
5.27005e-08
5.26975e-08
5.26949e-08
5.26896e-08
5.26803e-08
5.26582e-08
5.26334e-08
5.25879e-08
5.24058e-08
5.24492e-08
5.24738e-08
5.24956e-08
5.25053e-08
5.25109e-08
5.25139e-08
5.2517e-08
5.25186e-08
5.25202e-08
5.25211e-08
5.25225e-08
5.25233e-08
5.25245e-08
5.25251e-08
5.2526e-08
5.25264e-08
5.2527e-08
5.25272e-08
5.25276e-08
5.25277e-08
5.25279e-08
5.25279e-08
5.2528e-08
5.2528e-08
5.2528e-08
5.2528e-08
5.25279e-08
5.25279e-08
5.25276e-08
5.25275e-08
5.25271e-08
5.25269e-08
5.25262e-08
5.25258e-08
5.25249e-08
5.25243e-08
5.25231e-08
5.25223e-08
5.25209e-08
5.252e-08
5.25184e-08
5.25167e-08
5.25135e-08
5.25104e-08
5.25049e-08
5.24952e-08
5.24733e-08
5.24487e-08
5.24053e-08
5.22389e-08
5.22802e-08
5.23048e-08
5.23263e-08
5.23365e-08
5.23423e-08
5.23457e-08
5.2349e-08
5.23509e-08
5.23526e-08
5.23537e-08
5.23552e-08
5.2356e-08
5.23572e-08
5.23578e-08
5.23588e-08
5.23592e-08
5.23598e-08
5.236e-08
5.23604e-08
5.23605e-08
5.23607e-08
5.23608e-08
5.23609e-08
5.23609e-08
5.23608e-08
5.23608e-08
5.23607e-08
5.23607e-08
5.23605e-08
5.23604e-08
5.23599e-08
5.23597e-08
5.2359e-08
5.23586e-08
5.23577e-08
5.2357e-08
5.23558e-08
5.2355e-08
5.23535e-08
5.23524e-08
5.23506e-08
5.23487e-08
5.23453e-08
5.23419e-08
5.23361e-08
5.23259e-08
5.23043e-08
5.22798e-08
5.22384e-08
5.20871e-08
5.21265e-08
5.21509e-08
5.21723e-08
5.21828e-08
5.21889e-08
5.21926e-08
5.21962e-08
5.21983e-08
5.22001e-08
5.22013e-08
5.22028e-08
5.22038e-08
5.2205e-08
5.22057e-08
5.22066e-08
5.2207e-08
5.22077e-08
5.22079e-08
5.22083e-08
5.22084e-08
5.22086e-08
5.22087e-08
5.22088e-08
5.22088e-08
5.22088e-08
5.22087e-08
5.22086e-08
5.22086e-08
5.22084e-08
5.22082e-08
5.22078e-08
5.22076e-08
5.22069e-08
5.22064e-08
5.22055e-08
5.22048e-08
5.22036e-08
5.22026e-08
5.22011e-08
5.21999e-08
5.2198e-08
5.21958e-08
5.21922e-08
5.21884e-08
5.21824e-08
5.21718e-08
5.21505e-08
5.2126e-08
5.20866e-08
5.19536e-08
5.19913e-08
5.20157e-08
5.20367e-08
5.20477e-08
5.20537e-08
5.20579e-08
5.20616e-08
5.2064e-08
5.20659e-08
5.20672e-08
5.20688e-08
5.20698e-08
5.20711e-08
5.20718e-08
5.20727e-08
5.20732e-08
5.20738e-08
5.2074e-08
5.20744e-08
5.20746e-08
5.20748e-08
5.20748e-08
5.20749e-08
5.20749e-08
5.20749e-08
5.20749e-08
5.20748e-08
5.20747e-08
5.20745e-08
5.20744e-08
5.2074e-08
5.20737e-08
5.2073e-08
5.20725e-08
5.20716e-08
5.20709e-08
5.20696e-08
5.20686e-08
5.2067e-08
5.20657e-08
5.20637e-08
5.20613e-08
5.20575e-08
5.20533e-08
5.20473e-08
5.20363e-08
5.20152e-08
5.19908e-08
5.19531e-08
5.18313e-08
5.18675e-08
5.18917e-08
5.19124e-08
5.19236e-08
5.19314e-08
5.19367e-08
5.19405e-08
5.19431e-08
5.19452e-08
5.19466e-08
5.19482e-08
5.19493e-08
5.19505e-08
5.19513e-08
5.19522e-08
5.19527e-08
5.19533e-08
5.19536e-08
5.1954e-08
5.19541e-08
5.19544e-08
5.19544e-08
5.19545e-08
5.19545e-08
5.19545e-08
5.19545e-08
5.19544e-08
5.19543e-08
5.19541e-08
5.19539e-08
5.19535e-08
5.19532e-08
5.19526e-08
5.19521e-08
5.19511e-08
5.19504e-08
5.19491e-08
5.1948e-08
5.19464e-08
5.19449e-08
5.19428e-08
5.19402e-08
5.19363e-08
5.1931e-08
5.19232e-08
5.19119e-08
5.18912e-08
5.18671e-08
5.18308e-08
5.17239e-08
5.17587e-08
5.17827e-08
5.18032e-08
5.18147e-08
5.18224e-08
5.1828e-08
5.18317e-08
5.18343e-08
5.18364e-08
5.18378e-08
5.18394e-08
5.18405e-08
5.18418e-08
5.18425e-08
5.18434e-08
5.18439e-08
5.18445e-08
5.18448e-08
5.18452e-08
5.18453e-08
5.18455e-08
5.18456e-08
5.18457e-08
5.18457e-08
5.18457e-08
5.18457e-08
5.18456e-08
5.18455e-08
5.18453e-08
5.18451e-08
5.18447e-08
5.18444e-08
5.18438e-08
5.18433e-08
5.18423e-08
5.18416e-08
5.18403e-08
5.18392e-08
5.18376e-08
5.18361e-08
5.1834e-08
5.18314e-08
5.18276e-08
5.18221e-08
5.18143e-08
5.18027e-08
5.17822e-08
5.17582e-08
5.17234e-08
5.16286e-08
5.16619e-08
5.16859e-08
5.1706e-08
5.17179e-08
5.17257e-08
5.17315e-08
5.17354e-08
5.17382e-08
5.17403e-08
5.17419e-08
5.17435e-08
5.17446e-08
5.17459e-08
5.17466e-08
5.17475e-08
5.17481e-08
5.17487e-08
5.1749e-08
5.17494e-08
5.17495e-08
5.17497e-08
5.17498e-08
5.17499e-08
5.17499e-08
5.17499e-08
5.17499e-08
5.17498e-08
5.17497e-08
5.17495e-08
5.17493e-08
5.17489e-08
5.17486e-08
5.17479e-08
5.17474e-08
5.17465e-08
5.17457e-08
5.17444e-08
5.17433e-08
5.17416e-08
5.17401e-08
5.17379e-08
5.17351e-08
5.17311e-08
5.17254e-08
5.17175e-08
5.17056e-08
5.16854e-08
5.16614e-08
5.16281e-08
5.1543e-08
5.1575e-08
5.15988e-08
5.16187e-08
5.16308e-08
5.16387e-08
5.16446e-08
5.16486e-08
5.16515e-08
5.16537e-08
5.16553e-08
5.16569e-08
5.16581e-08
5.16593e-08
5.16602e-08
5.1661e-08
5.16616e-08
5.16622e-08
5.16625e-08
5.16629e-08
5.16631e-08
5.16633e-08
5.16633e-08
5.16634e-08
5.16634e-08
5.16634e-08
5.16634e-08
5.16633e-08
5.16632e-08
5.1663e-08
5.16628e-08
5.16624e-08
5.16621e-08
5.16614e-08
5.16609e-08
5.166e-08
5.16591e-08
5.16579e-08
5.16567e-08
5.1655e-08
5.16534e-08
5.16511e-08
5.16482e-08
5.16442e-08
5.16383e-08
5.16303e-08
5.16182e-08
5.15984e-08
5.15745e-08
5.15425e-08
5.14694e-08
5.15002e-08
5.15239e-08
5.15435e-08
5.15557e-08
5.15638e-08
5.15699e-08
5.15739e-08
5.15769e-08
5.15792e-08
5.15809e-08
5.15826e-08
5.15838e-08
5.1585e-08
5.15859e-08
5.15868e-08
5.15873e-08
5.15879e-08
5.15883e-08
5.15886e-08
5.15888e-08
5.1589e-08
5.15891e-08
5.15892e-08
5.15892e-08
5.15892e-08
5.15892e-08
5.15891e-08
5.1589e-08
5.15888e-08
5.15886e-08
5.15882e-08
5.15878e-08
5.15872e-08
5.15866e-08
5.15857e-08
5.15848e-08
5.15836e-08
5.15824e-08
5.15806e-08
5.1579e-08
5.15766e-08
5.15736e-08
5.15695e-08
5.15634e-08
5.15553e-08
5.1543e-08
5.15234e-08
5.14997e-08
5.14689e-08
5.14057e-08
5.14352e-08
5.14589e-08
5.14782e-08
5.14905e-08
5.14987e-08
5.1505e-08
5.1509e-08
5.15121e-08
5.15145e-08
5.15161e-08
5.15178e-08
5.1519e-08
5.15203e-08
5.15211e-08
5.1522e-08
5.15226e-08
5.15232e-08
5.15235e-08
5.15239e-08
5.15241e-08
5.15243e-08
5.15244e-08
5.15245e-08
5.15245e-08
5.15245e-08
5.15244e-08
5.15243e-08
5.15242e-08
5.1524e-08
5.15238e-08
5.15234e-08
5.1523e-08
5.15224e-08
5.15218e-08
5.15209e-08
5.15201e-08
5.15188e-08
5.15176e-08
5.15159e-08
5.15142e-08
5.15118e-08
5.15087e-08
5.15045e-08
5.14984e-08
5.14901e-08
5.14777e-08
5.14584e-08
5.14347e-08
5.14052e-08
5.13502e-08
5.13784e-08
5.14019e-08
5.14207e-08
5.14331e-08
5.14414e-08
5.14476e-08
5.14518e-08
5.14549e-08
5.14573e-08
5.1459e-08
5.14607e-08
5.1462e-08
5.14632e-08
5.1464e-08
5.14649e-08
5.14655e-08
5.14661e-08
5.14665e-08
5.14668e-08
5.1467e-08
5.14672e-08
5.14673e-08
5.14674e-08
5.14674e-08
5.14674e-08
5.14674e-08
5.14673e-08
5.14672e-08
5.1467e-08
5.14667e-08
5.14664e-08
5.1466e-08
5.14654e-08
5.14648e-08
5.14639e-08
5.1463e-08
5.14617e-08
5.14605e-08
5.14588e-08
5.14571e-08
5.14546e-08
5.14514e-08
5.14472e-08
5.1441e-08
5.14327e-08
5.14202e-08
5.14014e-08
5.13779e-08
5.13497e-08
5.13039e-08
5.1331e-08
5.13543e-08
5.13728e-08
5.13853e-08
5.13936e-08
5.13999e-08
5.14041e-08
5.14073e-08
5.14097e-08
5.14115e-08
5.14132e-08
5.14144e-08
5.14157e-08
5.14165e-08
5.14174e-08
5.1418e-08
5.14186e-08
5.1419e-08
5.14193e-08
5.14195e-08
5.14197e-08
5.14198e-08
5.14199e-08
5.142e-08
5.142e-08
5.14199e-08
5.14198e-08
5.14197e-08
5.14195e-08
5.14193e-08
5.14189e-08
5.14185e-08
5.14178e-08
5.14172e-08
5.14164e-08
5.14155e-08
5.14142e-08
5.1413e-08
5.14112e-08
5.14095e-08
5.1407e-08
5.14037e-08
5.13995e-08
5.13932e-08
5.13848e-08
5.13723e-08
5.13538e-08
5.13305e-08
5.13034e-08
5.1265e-08
5.12909e-08
5.13137e-08
5.13318e-08
5.13442e-08
5.13525e-08
5.13587e-08
5.1363e-08
5.13662e-08
5.13687e-08
5.13705e-08
5.13722e-08
5.13734e-08
5.13746e-08
5.13755e-08
5.13764e-08
5.1377e-08
5.13775e-08
5.13779e-08
5.13783e-08
5.13785e-08
5.13787e-08
5.13788e-08
5.13789e-08
5.13789e-08
5.13789e-08
5.13789e-08
5.13788e-08
5.13787e-08
5.13785e-08
5.13782e-08
5.13778e-08
5.13774e-08
5.13768e-08
5.13762e-08
5.13753e-08
5.13744e-08
5.13732e-08
5.13719e-08
5.13702e-08
5.13684e-08
5.13659e-08
5.13626e-08
5.13583e-08
5.13521e-08
5.13437e-08
5.13313e-08
5.13132e-08
5.12904e-08
5.12645e-08
5.12333e-08
5.12582e-08
5.12807e-08
5.12983e-08
5.13108e-08
5.13191e-08
5.13253e-08
5.13296e-08
5.13328e-08
5.13353e-08
5.13371e-08
5.13388e-08
5.134e-08
5.13412e-08
5.13421e-08
5.1343e-08
5.13436e-08
5.13442e-08
5.13446e-08
5.13449e-08
5.13452e-08
5.13454e-08
5.13455e-08
5.13456e-08
5.13456e-08
5.13456e-08
5.13455e-08
5.13454e-08
5.13453e-08
5.13451e-08
5.13449e-08
5.13445e-08
5.13441e-08
5.13435e-08
5.13428e-08
5.1342e-08
5.1341e-08
5.13398e-08
5.13386e-08
5.13368e-08
5.13351e-08
5.13325e-08
5.13292e-08
5.13249e-08
5.13186e-08
5.13103e-08
5.12978e-08
5.12802e-08
5.12577e-08
5.12328e-08
5.12079e-08
5.12318e-08
5.12539e-08
5.12711e-08
5.12835e-08
5.12916e-08
5.12978e-08
5.1302e-08
5.13052e-08
5.13078e-08
5.13096e-08
5.13112e-08
5.13125e-08
5.13137e-08
5.13146e-08
5.13154e-08
5.1316e-08
5.13166e-08
5.1317e-08
5.13174e-08
5.13176e-08
5.13178e-08
5.13179e-08
5.1318e-08
5.1318e-08
5.1318e-08
5.1318e-08
5.13179e-08
5.13177e-08
5.13175e-08
5.13173e-08
5.13169e-08
5.13165e-08
5.13159e-08
5.13152e-08
5.13144e-08
5.13135e-08
5.13123e-08
5.1311e-08
5.13093e-08
5.13075e-08
5.13049e-08
5.13016e-08
5.12974e-08
5.12912e-08
5.1283e-08
5.12706e-08
5.12534e-08
5.12313e-08
5.12074e-08
5.11877e-08
5.1211e-08
5.12327e-08
5.12493e-08
5.12617e-08
5.12698e-08
5.12759e-08
5.12801e-08
5.12833e-08
5.12858e-08
5.12876e-08
5.12893e-08
5.12905e-08
5.12917e-08
5.12926e-08
5.12934e-08
5.1294e-08
5.12946e-08
5.1295e-08
5.12954e-08
5.12956e-08
5.12958e-08
5.12959e-08
5.1296e-08
5.1296e-08
5.1296e-08
5.1296e-08
5.12959e-08
5.12957e-08
5.12955e-08
5.12953e-08
5.12949e-08
5.12945e-08
5.12939e-08
5.12933e-08
5.12924e-08
5.12915e-08
5.12903e-08
5.12891e-08
5.12873e-08
5.12855e-08
5.1283e-08
5.12797e-08
5.12755e-08
5.12693e-08
5.12612e-08
5.12488e-08
5.12322e-08
5.12105e-08
5.11871e-08
5.11727e-08
5.1195e-08
5.12162e-08
5.12323e-08
5.12444e-08
5.12524e-08
5.12584e-08
5.12625e-08
5.12657e-08
5.12683e-08
5.127e-08
5.12717e-08
5.12729e-08
5.1274e-08
5.12749e-08
5.12758e-08
5.12764e-08
5.12769e-08
5.12773e-08
5.12777e-08
5.12779e-08
5.12781e-08
5.12782e-08
5.12783e-08
5.12783e-08
5.12783e-08
5.12783e-08
5.12782e-08
5.12781e-08
5.12779e-08
5.12776e-08
5.12772e-08
5.12768e-08
5.12762e-08
5.12756e-08
5.12748e-08
5.12739e-08
5.12727e-08
5.12715e-08
5.12697e-08
5.1268e-08
5.12654e-08
5.12621e-08
5.1258e-08
5.12519e-08
5.12439e-08
5.12317e-08
5.12156e-08
5.11945e-08
5.11722e-08
5.11617e-08
5.11831e-08
5.12037e-08
5.12193e-08
5.12315e-08
5.12394e-08
5.12453e-08
5.12494e-08
5.12526e-08
5.12551e-08
5.12569e-08
5.12585e-08
5.12597e-08
5.12608e-08
5.12617e-08
5.12625e-08
5.12631e-08
5.12637e-08
5.12641e-08
5.12644e-08
5.12647e-08
5.12648e-08
5.1265e-08
5.1265e-08
5.12651e-08
5.12651e-08
5.1265e-08
5.12649e-08
5.12648e-08
5.12646e-08
5.12643e-08
5.1264e-08
5.12635e-08
5.1263e-08
5.12623e-08
5.12615e-08
5.12606e-08
5.12595e-08
5.12583e-08
5.12565e-08
5.12548e-08
5.12522e-08
5.1249e-08
5.12449e-08
5.1239e-08
5.12311e-08
5.12187e-08
5.12032e-08
5.11825e-08
5.11612e-08
5.11546e-08
5.11751e-08
5.11952e-08
5.12103e-08
5.12222e-08
5.123e-08
5.12356e-08
5.12397e-08
5.12428e-08
5.12453e-08
5.12471e-08
5.12487e-08
5.12498e-08
5.1251e-08
5.12518e-08
5.12526e-08
5.12533e-08
5.12538e-08
5.12542e-08
5.12545e-08
5.12548e-08
5.1255e-08
5.12551e-08
5.12551e-08
5.12552e-08
5.12552e-08
5.12551e-08
5.1255e-08
5.12549e-08
5.12547e-08
5.12545e-08
5.12541e-08
5.12537e-08
5.12531e-08
5.12525e-08
5.12517e-08
5.12508e-08
5.12496e-08
5.12485e-08
5.12467e-08
5.1245e-08
5.12425e-08
5.12393e-08
5.12352e-08
5.12295e-08
5.12217e-08
5.12097e-08
5.11946e-08
5.11745e-08
5.11541e-08
5.11505e-08
5.117e-08
5.11897e-08
5.12043e-08
5.12158e-08
5.12235e-08
5.1229e-08
5.1233e-08
5.1236e-08
5.12385e-08
5.12403e-08
5.12418e-08
5.1243e-08
5.12441e-08
5.12449e-08
5.12457e-08
5.12463e-08
5.12468e-08
5.12473e-08
5.12476e-08
5.12478e-08
5.1248e-08
5.12481e-08
5.12482e-08
5.12482e-08
5.12482e-08
5.12482e-08
5.12481e-08
5.1248e-08
5.12478e-08
5.12475e-08
5.12472e-08
5.12467e-08
5.12462e-08
5.12455e-08
5.12448e-08
5.12439e-08
5.12428e-08
5.12416e-08
5.12399e-08
5.12382e-08
5.12357e-08
5.12326e-08
5.12285e-08
5.1223e-08
5.12153e-08
5.12038e-08
5.11891e-08
5.11695e-08
5.11499e-08
5.11489e-08
5.11676e-08
5.11867e-08
5.12008e-08
5.12118e-08
5.12193e-08
5.12246e-08
5.12286e-08
5.12316e-08
5.1234e-08
5.12357e-08
5.12373e-08
5.12384e-08
5.12395e-08
5.12403e-08
5.12411e-08
5.12417e-08
5.12422e-08
5.12426e-08
5.12429e-08
5.12432e-08
5.12433e-08
5.12434e-08
5.12435e-08
5.12435e-08
5.12435e-08
5.12435e-08
5.12434e-08
5.12433e-08
5.12431e-08
5.12429e-08
5.12425e-08
5.12421e-08
5.12416e-08
5.12409e-08
5.12402e-08
5.12393e-08
5.12382e-08
5.12371e-08
5.12354e-08
5.12337e-08
5.12312e-08
5.12282e-08
5.12242e-08
5.12189e-08
5.12114e-08
5.12003e-08
5.11861e-08
5.11671e-08
5.11484e-08
5.11493e-08
5.11672e-08
5.11856e-08
5.11993e-08
5.12099e-08
5.12171e-08
5.12223e-08
5.12261e-08
5.1229e-08
5.12314e-08
5.12331e-08
5.12346e-08
5.12357e-08
5.12368e-08
5.12376e-08
5.12384e-08
5.1239e-08
5.12395e-08
5.12398e-08
5.12402e-08
5.12404e-08
5.12406e-08
5.12407e-08
5.12407e-08
5.12408e-08
5.12408e-08
5.12407e-08
5.12406e-08
5.12405e-08
5.12403e-08
5.12401e-08
5.12398e-08
5.12393e-08
5.12388e-08
5.12382e-08
5.12374e-08
5.12366e-08
5.12355e-08
5.12344e-08
5.12328e-08
5.12311e-08
5.12287e-08
5.12257e-08
5.12218e-08
5.12166e-08
5.12094e-08
5.11987e-08
5.11851e-08
5.11667e-08
5.11488e-08
5.11513e-08
5.11684e-08
5.1186e-08
5.11992e-08
5.12093e-08
5.12163e-08
5.12213e-08
5.1225e-08
5.12279e-08
5.12302e-08
5.12319e-08
5.12333e-08
5.12344e-08
5.12354e-08
5.12363e-08
5.1237e-08
5.12376e-08
5.12381e-08
5.12385e-08
5.12388e-08
5.1239e-08
5.12392e-08
5.12393e-08
5.12393e-08
5.12394e-08
5.12394e-08
5.12393e-08
5.12392e-08
5.12391e-08
5.12389e-08
5.12387e-08
5.12384e-08
5.1238e-08
5.12374e-08
5.12368e-08
5.12361e-08
5.12352e-08
5.12342e-08
5.12331e-08
5.12315e-08
5.12299e-08
5.12275e-08
5.12246e-08
5.12209e-08
5.12158e-08
5.12089e-08
5.11986e-08
5.11855e-08
5.11678e-08
5.11508e-08
5.11543e-08
5.11706e-08
5.11874e-08
5.12001e-08
5.12098e-08
5.12165e-08
5.12213e-08
5.12249e-08
5.12277e-08
5.123e-08
5.12316e-08
5.1233e-08
5.12341e-08
5.12351e-08
5.12359e-08
5.12366e-08
5.12372e-08
5.12377e-08
5.1238e-08
5.12383e-08
5.12386e-08
5.12387e-08
5.12388e-08
5.12389e-08
5.12389e-08
5.12389e-08
5.12389e-08
5.12388e-08
5.12387e-08
5.12385e-08
5.12383e-08
5.12379e-08
5.12375e-08
5.1237e-08
5.12364e-08
5.12357e-08
5.12349e-08
5.12339e-08
5.12328e-08
5.12313e-08
5.12297e-08
5.12273e-08
5.12245e-08
5.12209e-08
5.1216e-08
5.12094e-08
5.11996e-08
5.11869e-08
5.11701e-08
5.11538e-08
5.1158e-08
5.11734e-08
5.11895e-08
5.12017e-08
5.12109e-08
5.12173e-08
5.12219e-08
5.12254e-08
5.12281e-08
5.12303e-08
5.12319e-08
5.12333e-08
5.12343e-08
5.12353e-08
5.12361e-08
5.12368e-08
5.12373e-08
5.12378e-08
5.12382e-08
5.12385e-08
5.12387e-08
5.12388e-08
5.12389e-08
5.1239e-08
5.1239e-08
5.1239e-08
5.1239e-08
5.12389e-08
5.12388e-08
5.12386e-08
5.12384e-08
5.12381e-08
5.12377e-08
5.12372e-08
5.12366e-08
5.12359e-08
5.12351e-08
5.12341e-08
5.12331e-08
5.12316e-08
5.123e-08
5.12277e-08
5.1225e-08
5.12215e-08
5.12168e-08
5.12105e-08
5.12011e-08
5.1189e-08
5.11729e-08
5.11574e-08
5.11619e-08
5.11766e-08
5.11919e-08
5.12035e-08
5.12123e-08
5.12183e-08
5.12228e-08
5.12261e-08
5.12288e-08
5.12309e-08
5.12325e-08
5.12337e-08
5.12347e-08
5.12357e-08
5.12365e-08
5.12371e-08
5.12377e-08
5.12382e-08
5.12385e-08
5.12388e-08
5.1239e-08
5.12392e-08
5.12393e-08
5.12393e-08
5.12394e-08
5.12394e-08
5.12393e-08
5.12393e-08
5.12391e-08
5.1239e-08
5.12387e-08
5.12384e-08
5.1238e-08
5.12376e-08
5.1237e-08
5.12363e-08
5.12355e-08
5.12345e-08
5.12335e-08
5.12321e-08
5.12305e-08
5.12284e-08
5.12257e-08
5.12223e-08
5.12179e-08
5.12119e-08
5.1203e-08
5.11914e-08
5.11761e-08
5.11614e-08
5.11657e-08
5.11797e-08
5.11942e-08
5.12052e-08
5.12136e-08
5.12193e-08
5.12235e-08
5.12268e-08
5.12293e-08
5.12314e-08
5.12329e-08
)
;

boundaryField
{
    fuel
    {
        type            fixedValue;
        value           nonuniform 0();
    }
    wall
    {
        type            zeroGradient;
    }
    outlet
    {
        type            zeroGradient;
    }
    frontAndBack
    {
        type            empty;
    }
    procBoundary2to0
    {
        type            processor;
        value           nonuniform List<scalar> 
53
(
5.74836e-08
5.75735e-08
5.76162e-08
5.76475e-08
5.76503e-08
5.76526e-08
5.7647e-08
5.76497e-08
5.76457e-08
5.7645e-08
5.76429e-08
5.76433e-08
5.76422e-08
5.7643e-08
5.76425e-08
5.76433e-08
5.7643e-08
5.76437e-08
5.71692e-08
5.71692e-08
5.71697e-08
5.71695e-08
5.71698e-08
5.71697e-08
5.71699e-08
5.71698e-08
5.71698e-08
5.71699e-08
5.71697e-08
5.67181e-08
5.67181e-08
5.67178e-08
5.67179e-08
5.67174e-08
5.67175e-08
5.67168e-08
5.6717e-08
5.67161e-08
5.67165e-08
5.67156e-08
5.67164e-08
5.67158e-08
5.62873e-08
5.62873e-08
5.62875e-08
5.62901e-08
5.62878e-08
5.62912e-08
5.62884e-08
5.6284e-08
5.62552e-08
5.62192e-08
5.61408e-08
)
;
    }
    procBoundary2to3
    {
        type            processor;
        value           nonuniform List<scalar> 
51
(
5.12343e-08
5.12353e-08
5.12362e-08
5.1237e-08
5.12376e-08
5.12382e-08
5.12386e-08
5.1239e-08
5.12393e-08
5.12395e-08
5.12396e-08
5.12397e-08
5.12398e-08
5.12398e-08
5.12398e-08
5.12398e-08
5.12397e-08
5.12396e-08
5.12394e-08
5.12392e-08
5.12389e-08
5.12385e-08
5.1238e-08
5.12375e-08
5.12368e-08
5.1236e-08
5.12351e-08
5.12341e-08
5.12327e-08
5.12312e-08
5.12291e-08
5.12266e-08
5.12233e-08
5.1219e-08
5.12134e-08
5.12049e-08
5.11939e-08
5.11794e-08
5.11654e-08
5.11695e-08
5.11826e-08
5.11964e-08
5.12068e-08
5.12148e-08
5.12201e-08
5.12242e-08
5.12272e-08
5.12297e-08
5.12317e-08
5.12343e-08
5.12332e-08
)
;
    }
}


// ************************************************************************* //
