/*--------------------------------*- C++ -*----------------------------------*\
| =========                 |                                                 |
| \\      /  F ield         | OpenFOAM: The Open Source CFD Toolbox           |
|  \\    /   O peration     | Version:  dev                                   |
|   \\  /    A nd           | Web:      www.OpenFOAM.org                      |
|    \\/     M anipulation  |                                                 |
\*---------------------------------------------------------------------------*/
FoamFile
{
    version     2.0;
    format      ascii;
    class       volScalarField;
    location    "0.06";
    object      c-C6H7;
}
// * * * * * * * * * * * * * * * * * * * * * * * * * * * * * * * * * * * * * //

dimensions      [0 0 0 0 0 0 0];

internalField   nonuniform List<scalar> 
250
(
2.81724e-09
1.29635e-08
1.01556e-08
9.91914e-09
9.89858e-09
9.89814e-09
9.89731e-09
9.89287e-09
9.8965e-09
6.6738e-09
9.47881e-09
6.09531e-09
5.86244e-09
5.84348e-09
5.84085e-09
5.83964e-09
5.83825e-09
5.84046e-09
2.93894e-09
5.71554e-09
2.99171e-09
2.82645e-09
2.81217e-09
2.80946e-09
2.80947e-09
2.80864e-09
2.80973e-09
1.08955e-09
3.45966e-09
1.46152e-09
1.35065e-09
1.34141e-09
1.33951e-09
1.33986e-09
1.33934e-09
1.33987e-09
6.93957e-10
2.2063e-09
7.7302e-10
6.95904e-10
6.90153e-10
6.89329e-10
6.89553e-10
6.89363e-10
6.89613e-10
8.04571e-10
1.48905e-09
4.48078e-10
3.95818e-10
3.87803e-10
3.85876e-10
3.86207e-10
3.85752e-10
3.85986e-10
1.00622e-09
1.01117e-09
2.91708e-10
2.52127e-10
2.45548e-10
2.44097e-10
2.44262e-10
2.43984e-10
2.4413e-10
1.03579e-09
7.35879e-10
2.08229e-10
1.76921e-10
1.70707e-10
1.69422e-10
1.69469e-10
1.69307e-10
1.69395e-10
8.26655e-10
5.58701e-10
1.57204e-10
1.32186e-10
1.27319e-10
1.26296e-10
1.26395e-10
1.26152e-10
1.26299e-10
5.17757e-10
4.20811e-10
1.23279e-10
1.02988e-10
1.00631e-10
1.00263e-10
1.00314e-10
1.00124e-10
1.00249e-10
3.01927e-10
3.22143e-10
1.03335e-10
8.63642e-11
8.36685e-11
8.31926e-11
8.32846e-11
8.30004e-11
8.31663e-11
8.30829e-11
1.98424e-10
2.4947e-10
8.81899e-11
7.37622e-11
7.09321e-11
7.04246e-11
7.05055e-11
7.02349e-11
7.03967e-11
7.02969e-11
1.48935e-10
2.03472e-10
7.68829e-11
6.46159e-11
6.19157e-11
6.13208e-11
6.14029e-11
6.11314e-11
6.12962e-11
6.11848e-11
1.21069e-10
1.68275e-10
6.83833e-11
5.77737e-11
5.52079e-11
5.45313e-11
5.46215e-11
5.4342e-11
5.45131e-11
5.43916e-11
1.03639e-10
1.41035e-10
6.17802e-11
5.24423e-11
5.00034e-11
4.9263e-11
4.9364e-11
4.90744e-11
4.92525e-11
4.91225e-11
9.25275e-11
1.20209e-10
5.65027e-11
4.81394e-11
4.58208e-11
4.50352e-11
4.51467e-11
4.48485e-11
4.50323e-11
4.48963e-11
8.56689e-11
1.02082e-10
5.21767e-11
4.45657e-11
4.23632e-11
4.15497e-11
4.16697e-11
4.13666e-11
4.15535e-11
4.14144e-11
8.17311e-11
8.95242e-11
4.85641e-11
4.15329e-11
3.94446e-11
3.86184e-11
3.87431e-11
3.84406e-11
3.86272e-11
3.84884e-11
7.97158e-11
7.96469e-11
4.54961e-11
3.89214e-11
3.69465e-11
3.61202e-11
3.62452e-11
3.59496e-11
3.61319e-11
3.5997e-11
7.88958e-11
7.16037e-11
4.28578e-11
3.66547e-11
3.47924e-11
3.39756e-11
3.40958e-11
3.38142e-11
3.39876e-11
3.38605e-11
7.88137e-11
6.55957e-11
4.05727e-11
3.46826e-11
3.29317e-11
3.21303e-11
3.22402e-11
3.19803e-11
3.214e-11
3.20249e-11
7.92202e-11
6.09476e-11
3.85844e-11
3.29714e-11
3.13302e-11
3.05459e-11
3.06405e-11
3.04105e-11
3.05509e-11
3.04522e-11
8.00011e-11
5.73322e-11
3.68523e-11
3.14974e-11
2.99651e-11
2.93673e-11
2.94452e-11
2.92448e-11
2.93669e-11
2.92841e-11
8.10883e-11
5.43925e-11
3.55367e-11
3.04221e-11
2.89619e-11
2.83796e-11
2.84568e-11
2.82643e-11
2.83801e-11
2.8302e-11
8.24141e-11
5.21468e-11
3.4351e-11
2.94662e-11
2.8173e-11
2.76427e-11
2.77005e-11
2.75408e-11
2.76355e-11
2.75752e-11
8.39517e-11
5.01903e-11
3.34541e-11
2.88038e-11
2.75876e-11
2.71166e-11
2.71532e-11
2.70286e-11
2.71005e-11
2.70593e-11
)
;

boundaryField
{
    fuel
    {
        type            fixedValue;
        value           uniform 0;
    }
    wall
    {
        type            zeroGradient;
    }
    outlet
    {
        type            zeroGradient;
    }
    frontAndBack
    {
        type            empty;
    }
    procBoundary2to0
    {
        type            processor;
        value           nonuniform List<scalar> 
12
(
2.76005e-11
8.52632e-11
4.87539e-11
3.27526e-11
2.83447e-11
2.72049e-11
2.67928e-11
2.68071e-11
2.67181e-11
2.67667e-11
2.70808e-11
2.6745e-11
)
;
    }
    procBoundary2to3
    {
        type            processor;
        value           nonuniform List<scalar> 
25
(
9.89621e-09
5.84046e-09
2.80977e-09
1.33998e-09
6.89766e-10
3.86017e-10
2.44171e-10
1.69449e-10
1.26251e-10
1.00208e-10
1.00208e-10
8.30551e-11
7.02958e-11
6.12002e-11
5.44189e-11
4.91586e-11
4.49386e-11
4.14606e-11
3.85363e-11
3.60449e-11
3.39067e-11
3.20678e-11
3.04904e-11
2.93176e-11
2.83325e-11
)
;
    }
}


// ************************************************************************* //
