/*--------------------------------*- C++ -*----------------------------------*\
| =========                 |                                                 |
| \\      /  F ield         | OpenFOAM: The Open Source CFD Toolbox           |
|  \\    /   O peration     | Version:  dev                                   |
|   \\  /    A nd           | Web:      www.OpenFOAM.org                      |
|    \\/     M anipulation  |                                                 |
\*---------------------------------------------------------------------------*/
FoamFile
{
    version     2.0;
    format      ascii;
    class       volScalarField;
    location    "0.06";
    object      CO;
}
// * * * * * * * * * * * * * * * * * * * * * * * * * * * * * * * * * * * * * //

dimensions      [0 0 0 0 0 0 0];

internalField   nonuniform List<scalar> 
250
(
0.0095492
0.132992
0.135245
0.135566
0.135609
0.135616
0.135619
0.135617
0.135618
0.0260632
0.154657
0.157303
0.157709
0.157778
0.157785
0.157787
0.157786
0.157788
0.04298
0.160124
0.163505
0.164058
0.164161
0.16417
0.164174
0.164173
0.164174
0.0595273
0.162068
0.166205
0.16692
0.167064
0.167077
0.167081
0.16708
0.167081
0.0751599
0.163014
0.167827
0.168713
0.168896
0.168913
0.168918
0.168918
0.168918
0.0894898
0.163624
0.169005
0.170074
0.170285
0.170307
0.170313
0.170314
0.170313
0.102306
0.164117
0.169953
0.171194
0.171443
0.171471
0.171477
0.171479
0.171477
0.11357
0.164588
0.170839
0.172159
0.172453
0.172487
0.172494
0.172497
0.172493
0.123395
0.165102
0.171707
0.173159
0.173464
0.173498
0.173504
0.173509
0.173504
0.132017
0.165637
0.17242
0.174111
0.17445
0.17449
0.174497
0.174503
0.174497
0.139641
0.166221
0.173123
0.174898
0.175256
0.175302
0.17531
0.175317
0.175309
0.175313
0.146254
0.166858
0.173873
0.175671
0.176104
0.176161
0.176171
0.17618
0.176171
0.176175
0.151667
0.167541
0.17462
0.176469
0.176928
0.176993
0.177004
0.177015
0.177004
0.177009
0.15589
0.168263
0.17526
0.177235
0.17772
0.177791
0.177804
0.177815
0.177804
0.177809
0.15917
0.169017
0.175953
0.17797
0.178479
0.178556
0.17857
0.178582
0.17857
0.178575
0.161775
0.169794
0.176666
0.178675
0.179204
0.179286
0.179301
0.179314
0.179301
0.179306
0.16391
0.170651
0.177279
0.179349
0.179894
0.17998
0.179996
0.180011
0.179997
0.180002
0.165715
0.171591
0.177936
0.179993
0.180549
0.180637
0.180655
0.18067
0.180655
0.180661
0.167284
0.172549
0.178601
0.180607
0.181166
0.181256
0.181275
0.18129
0.181276
0.181281
0.168679
0.173522
0.179249
0.181189
0.181744
0.181836
0.181855
0.181871
0.181856
0.181862
0.169941
0.174359
0.179876
0.181739
0.182283
0.182376
0.182396
0.182411
0.182397
0.182402
0.171099
0.175255
0.180478
0.182257
0.182782
0.182875
0.182895
0.18291
0.182896
0.182901
0.172238
0.17617
0.181054
0.182678
0.183184
0.183276
0.183296
0.18331
0.183297
0.183301
0.173264
0.176997
0.181533
0.183079
0.183573
0.183664
0.183684
0.183697
0.183685
0.183689
0.174232
0.177763
0.181977
0.183416
0.183884
0.183973
0.183993
0.184005
0.183994
0.183996
0.175149
0.178481
0.182372
0.183705
0.184145
0.184232
0.184251
0.184262
0.184252
0.184253
)
;

boundaryField
{
    fuel
    {
        type            fixedValue;
        value           uniform 0;
    }
    wall
    {
        type            zeroGradient;
    }
    outlet
    {
        type            zeroGradient;
    }
    frontAndBack
    {
        type            empty;
    }
    procBoundary2to0
    {
        type            processor;
        value           nonuniform List<scalar> 
12
(
0.184001
0.176011
0.179138
0.182717
0.183947
0.184356
0.184439
0.184458
0.184467
0.184459
0.184257
0.184459
)
;
    }
    procBoundary2to3
    {
        type            processor;
        value           nonuniform List<scalar> 
25
(
0.135618
0.157789
0.164175
0.167082
0.168919
0.170314
0.171478
0.172495
0.173506
0.1745
0.1745
0.175315
0.176177
0.177012
0.177812
0.178579
0.179311
0.180007
0.180666
0.181287
0.181867
0.182407
0.182906
0.183305
0.183693
)
;
    }
}


// ************************************************************************* //
