/*--------------------------------*- C++ -*----------------------------------*\
| =========                 |                                                 |
| \\      /  F ield         | OpenFOAM: The Open Source CFD Toolbox           |
|  \\    /   O peration     | Version:  dev                                   |
|   \\  /    A nd           | Web:      www.OpenFOAM.org                      |
|    \\/     M anipulation  |                                                 |
\*---------------------------------------------------------------------------*/
FoamFile
{
    version     2.0;
    format      ascii;
    class       volScalarField;
    location    "0.06";
    object      CO2;
}
// * * * * * * * * * * * * * * * * * * * * * * * * * * * * * * * * * * * * * //

dimensions      [0 0 0 0 0 0 0];

internalField   nonuniform List<scalar> 
25
(
0.0285519
0.0285113
0.0284643
0.0284097
0.028346
0.0282719
0.0281857
0.0280859
0.0279697
0.0278383
0.0276883
0.0275182
0.0273254
0.0271069
0.0268639
0.0266011
0.026314
0.0260024
0.0256655
0.0252998
0.0249003
0.0244745
0.024034
0.0235707
0.0230839
)
;

boundaryField
{
    wall
    {
        type            zeroGradient;
    }
    fuel
    {
        type            fixedValue;
        value           nonuniform 0();
    }
    outlet
    {
        type            inletOutlet;
        inletValue      nonuniform 0();
        value           nonuniform 0();
    }
    procBoundary2to1
    {
        type            processor;
        value           uniform 0.0285876;
    }
    procBoundary2to3
    {
        type            processor;
        value           uniform 0.022563;
    }
}


// ************************************************************************* //
