/*--------------------------------*- C++ -*----------------------------------*\
| =========                 |                                                 |
| \\      /  F ield         | OpenFOAM: The Open Source CFD Toolbox           |
|  \\    /   O peration     | Version:  dev                                   |
|   \\  /    A nd           | Web:      www.OpenFOAM.org                      |
|    \\/     M anipulation  |                                                 |
\*---------------------------------------------------------------------------*/
FoamFile
{
    version     2.0;
    format      ascii;
    class       volScalarField;
    location    "0.06";
    object      H2;
}
// * * * * * * * * * * * * * * * * * * * * * * * * * * * * * * * * * * * * * //

dimensions      [0 0 0 0 0 0 0];

internalField   nonuniform List<scalar> 
1997
(
0.00899212
0.00899071
0.00899005
0.00898957
0.00898956
0.00898956
0.00898968
0.00898968
0.00898978
0.00898983
0.00898989
0.00898991
0.00898995
0.00898995
0.00898997
0.00898997
0.00898998
0.00898998
0.00899972
0.00899837
0.00899777
0.00899731
0.00899731
0.00899731
0.00899742
0.00899744
0.00899753
0.00899758
0.00899763
0.00899765
0.00899769
0.00899769
0.00899771
0.00899771
0.00899772
0.00899772
0.00899772
0.00899772
0.00899772
0.00899772
0.00899772
0.00899772
0.00899772
0.00899772
0.00899772
0.00899772
0.00900708
0.0090058
0.00900524
0.00900482
0.00900481
0.00900482
0.00900493
0.00900495
0.00900504
0.00900508
0.00900514
0.00900516
0.00900519
0.00900519
0.00900521
0.00900521
0.00900522
0.00900522
0.00900522
0.00900522
0.00900522
0.00900522
0.00900522
0.00900522
0.00900522
0.00900522
0.00900522
0.00900522
0.00900521
0.00900522
0.00900521
0.00900521
0.00900521
0.00900521
0.0090052
0.0090052
0.00900518
0.00900518
0.00900515
0.00900513
0.00901421
0.00901299
0.00901249
0.00901208
0.00901208
0.00901209
0.0090122
0.00901222
0.00901231
0.00901235
0.0090124
0.00901242
0.00901245
0.00901246
0.00901248
0.00901247
0.00901248
0.00901248
0.00901248
0.00901248
0.00901248
0.00901248
0.00901248
0.00901248
0.00901248
0.00901248
0.00901248
0.00901248
0.00901248
0.00901248
0.00901247
0.00901248
0.00901247
0.00901247
0.00901246
0.00901247
0.00901245
0.00901244
0.00901241
0.00901239
0.00901233
0.00901229
0.0090122
0.00901218
0.00901208
0.00901207
0.00901206
0.00901247
0.00901298
0.00901419
0.00902111
0.00901996
0.0090195
0.00901911
0.00901912
0.00901913
0.00901923
0.00901926
0.00901934
0.00901938
0.00901944
0.00901945
0.00901948
0.00901949
0.0090195
0.0090195
0.00901951
0.00901951
0.00901951
0.00901951
0.00901951
0.00901951
0.00901951
0.00901951
0.00901951
0.00901951
0.00901951
0.00901951
0.0090195
0.00901951
0.0090195
0.0090195
0.0090195
0.0090195
0.00901949
0.00901949
0.00901948
0.00901947
0.00901944
0.00901942
0.00901937
0.00901933
0.00901924
0.00901922
0.00901912
0.0090191
0.0090191
0.00901948
0.00901994
0.00902109
0.00902788
0.00902677
0.00902635
0.00902599
0.00902602
0.00902604
0.00902615
0.00902618
0.00902626
0.00902631
0.00902636
0.00902638
0.00902641
0.00902641
0.00902643
0.00902643
0.00902644
0.00902643
0.00902644
0.00902643
0.00902644
0.00902643
0.00902644
0.00902644
0.00902644
0.00902644
0.00902644
0.00902644
0.00902643
0.00902643
0.00902643
0.00902643
0.00902642
0.00902643
0.00902642
0.00902642
0.0090264
0.0090264
0.00902637
0.00902635
0.00902629
0.00902625
0.00902617
0.00902613
0.00902603
0.00902601
0.00902598
0.00902633
0.00902675
0.00902786
0.00903433
0.00903329
0.00903291
0.00903257
0.0090326
0.00903263
0.00903273
0.00903276
0.00903284
0.00903288
0.00903293
0.00903295
0.00903298
0.00903298
0.009033
0.009033
0.00903301
0.009033
0.00903301
0.009033
0.00903301
0.00903301
0.00903301
0.00903301
0.00903301
0.00903301
0.00903301
0.00903301
0.009033
0.009033
0.009033
0.009033
0.00903299
0.009033
0.00903299
0.00903299
0.00903297
0.00903297
0.00903294
0.00903292
0.00903287
0.00903283
0.00903275
0.00903271
0.00903261
0.00903259
0.00903256
0.00903289
0.00903327
0.00903432
0.00904057
0.00903958
0.00903924
0.00903892
0.00903896
0.00903899
0.00903908
0.00903912
0.00903919
0.00903923
0.00903928
0.0090393
0.00903933
0.00903933
0.00903935
0.00903934
0.00903935
0.00903935
0.00903935
0.00903935
0.00903935
0.00903935
0.00903935
0.00903935
0.00903935
0.00903935
0.00903935
0.00903935
0.00903935
0.00903935
0.00903934
0.00903935
0.00903934
0.00903934
0.00903933
0.00903933
0.00903932
0.00903931
0.00903929
0.00903927
0.00903922
0.00903918
0.0090391
0.00903907
0.00903897
0.00903894
0.00903891
0.00903922
0.00903957
0.00904056
0.00904659
0.00904566
0.00904535
0.00904505
0.00904509
0.00904512
0.00904521
0.00904525
0.00904532
0.00904536
0.0090454
0.00904542
0.00904544
0.00904545
0.00904546
0.00904546
0.00904547
0.00904547
0.00904547
0.00904547
0.00904547
0.00904547
0.00904547
0.00904547
0.00904547
0.00904547
0.00904547
0.00904547
0.00904546
0.00904546
0.00904546
0.00904546
0.00904546
0.00904546
0.00904545
0.00904545
0.00904544
0.00904543
0.00904541
0.00904539
0.00904534
0.0090453
0.00904523
0.00904519
0.0090451
0.00904507
0.00904503
0.00904533
0.00904564
0.00904658
0.00905247
0.00905156
0.00905127
0.00905099
0.00905104
0.00905108
0.00905117
0.00905121
0.00905128
0.00905132
0.00905137
0.00905138
0.00905141
0.00905141
0.00905143
0.00905142
0.00905143
0.00905143
0.00905143
0.00905143
0.00905143
0.00905143
0.00905143
0.00905143
0.00905143
0.00905143
0.00905143
0.00905143
0.00905143
0.00905143
0.00905142
0.00905143
0.00905142
0.00905142
0.00905141
0.00905142
0.0090514
0.0090514
0.00905137
0.00905135
0.00905131
0.00905127
0.0090512
0.00905116
0.00905106
0.00905102
0.00905098
0.00905126
0.00905155
0.00905246
0.00905824
0.00905739
0.00905712
0.00905686
0.0090569
0.00905695
0.00905704
0.00905708
0.00905714
0.00905718
0.00905722
0.00905724
0.00905726
0.00905726
0.00905728
0.00905728
0.00905729
0.00905728
0.00905728
0.00905728
0.00905729
0.00905728
0.00905729
0.00905729
0.00905729
0.00905729
0.00905728
0.00905728
0.00905728
0.00905728
0.00905728
0.00905728
0.00905727
0.00905728
0.00905727
0.00905727
0.00905725
0.00905725
0.00905723
0.00905721
0.00905717
0.00905713
0.00905706
0.00905702
0.00905693
0.00905689
0.00905684
0.00905711
0.00905737
0.00905823
0.00906364
0.00906283
0.00906259
0.00906234
0.00906238
0.00906243
0.00906252
0.00906256
0.00906262
0.00906266
0.00906269
0.00906271
0.00906273
0.00906273
0.00906275
0.00906274
0.00906275
0.00906275
0.00906275
0.00906275
0.00906275
0.00906275
0.00906275
0.00906275
0.00906275
0.00906275
0.00906275
0.00906275
0.00906275
0.00906275
0.00906274
0.00906275
0.00906274
0.00906274
0.00906273
0.00906274
0.00906272
0.00906272
0.0090627
0.00906268
0.00906264
0.0090626
0.00906254
0.0090625
0.00906241
0.00906237
0.00906232
0.00906257
0.00906281
0.00906362
0.00906882
0.00906806
0.00906784
0.00906761
0.00906765
0.0090677
0.00906778
0.00906782
0.00906788
0.00906791
0.00906795
0.00906796
0.00906798
0.00906799
0.009068
0.009068
0.009068
0.009068
0.009068
0.009068
0.009068
0.009068
0.009068
0.009068
0.00906801
0.00906801
0.009068
0.009068
0.009068
0.009068
0.00906799
0.009068
0.00906799
0.00906799
0.00906799
0.00906799
0.00906797
0.00906797
0.00906795
0.00906794
0.0090679
0.00906786
0.0090678
0.00906776
0.00906768
0.00906763
0.00906759
0.00906782
0.00906804
0.0090688
0.00907379
0.00907307
0.00907288
0.00907266
0.0090727
0.00907275
0.00907283
0.00907287
0.00907292
0.00907295
0.00907299
0.009073
0.00907302
0.00907302
0.00907303
0.00907303
0.00907304
0.00907303
0.00907304
0.00907303
0.00907304
0.00907304
0.00907304
0.00907304
0.00907304
0.00907304
0.00907304
0.00907304
0.00907303
0.00907303
0.00907303
0.00907303
0.00907303
0.00907303
0.00907302
0.00907302
0.00907301
0.00907301
0.00907299
0.00907298
0.00907294
0.00907291
0.00907285
0.00907281
0.00907273
0.00907268
0.00907264
0.00907286
0.00907306
0.00907377
0.00907864
0.00907797
0.0090778
0.0090776
0.00907765
0.0090777
0.00907778
0.00907782
0.00907788
0.00907791
0.00907794
0.00907795
0.00907797
0.00907797
0.00907798
0.00907798
0.00907799
0.00907798
0.00907799
0.00907798
0.00907799
0.00907799
0.00907799
0.00907799
0.00907799
0.00907799
0.00907799
0.00907799
0.00907798
0.00907798
0.00907798
0.00907798
0.00907798
0.00907798
0.00907797
0.00907797
0.00907796
0.00907796
0.00907794
0.00907793
0.00907789
0.00907786
0.0090778
0.00907776
0.00907768
0.00907763
0.00907758
0.00907778
0.00907795
0.00907863
0.00908335
0.00908272
0.00908256
0.00908237
0.00908242
0.00908247
0.00908255
0.00908259
0.00908264
0.00908267
0.0090827
0.00908271
0.00908272
0.00908272
0.00908274
0.00908273
0.00908274
0.00908273
0.00908274
0.00908274
0.00908274
0.00908274
0.00908274
0.00908274
0.00908274
0.00908274
0.00908274
0.00908274
0.00908273
0.00908273
0.00908273
0.00908273
0.00908273
0.00908273
0.00908272
0.00908273
0.00908271
0.00908271
0.00908269
0.00908268
0.00908265
0.00908262
0.00908257
0.00908253
0.00908245
0.0090824
0.00908235
0.00908254
0.0090827
0.00908333
0.00908785
0.00908726
0.00908711
0.00908694
0.00908698
0.00908703
0.0090871
0.00908714
0.00908719
0.00908721
0.00908724
0.00908725
0.00908727
0.00908727
0.00908728
0.00908727
0.00908728
0.00908728
0.00908728
0.00908728
0.00908728
0.00908728
0.00908728
0.00908728
0.00908728
0.00908728
0.00908728
0.00908728
0.00908727
0.00908727
0.00908727
0.00908727
0.00908727
0.00908727
0.00908726
0.00908727
0.00908726
0.00908726
0.00908724
0.00908723
0.0090872
0.00908717
0.00908712
0.00908709
0.00908701
0.00908696
0.00908692
0.00908709
0.00908724
0.00908783
0.00909215
0.0090916
0.00909146
0.00909129
0.00909133
0.00909138
0.00909145
0.00909149
0.00909153
0.00909155
0.00909158
0.00909158
0.0090916
0.0090916
0.00909161
0.0090916
0.00909161
0.00909161
0.00909161
0.00909161
0.00909161
0.00909161
0.00909161
0.00909161
0.00909161
0.00909161
0.00909161
0.00909161
0.0090916
0.0090916
0.0090916
0.0090916
0.0090916
0.0090916
0.00909159
0.0090916
0.00909159
0.00909159
0.00909157
0.00909156
0.00909154
0.00909151
0.00909147
0.00909143
0.00909136
0.00909131
0.00909127
0.00909144
0.00909158
0.00909213
0.00909613
0.00909561
0.00909548
0.00909532
0.00909535
0.00909541
0.00909547
0.0090955
0.00909554
0.00909556
0.00909559
0.00909559
0.00909561
0.0090956
0.00909561
0.00909561
0.00909561
0.00909561
0.00909561
0.00909561
0.00909561
0.00909561
0.00909561
0.00909561
0.00909561
0.00909561
0.00909561
0.00909561
0.00909561
0.00909561
0.0090956
0.00909561
0.0090956
0.00909561
0.0090956
0.0090956
0.00909559
0.00909559
0.00909558
0.00909557
0.00909555
0.00909553
0.00909549
0.00909546
0.00909539
0.00909533
0.0090953
0.00909546
0.00909559
0.00909611
0.00909998
0.00909948
0.00909936
0.00909921
0.00909924
0.00909925
0.00909928
0.00909931
0.00909935
0.00909936
0.00909938
0.00909939
0.0090994
0.0090994
0.00909941
0.0090994
0.00909941
0.0090994
0.00909941
0.0090994
0.00909941
0.0090994
0.00909941
0.00909941
0.00909941
0.00909941
0.00909941
0.0090994
0.0090994
0.0090994
0.0090994
0.0090994
0.0090994
0.0090994
0.00909939
0.0090994
0.00909939
0.00909939
0.00909938
0.00909937
0.00909935
0.00909933
0.0090993
0.00909927
0.00909923
0.00909922
0.0090992
0.00909934
0.00909946
0.00909996
0.00910356
0.00910309
0.00910297
0.00910283
0.00910285
0.00910286
0.00910289
0.00910293
0.00910296
0.00910298
0.009103
0.00910301
0.00910302
0.00910302
0.00910302
0.00910302
0.00910303
0.00910302
0.00910302
0.00910302
0.00910302
0.00910302
0.00910302
0.00910302
0.00910303
0.00910302
0.00910302
0.00910302
0.00910302
0.00910302
0.00910302
0.00910302
0.00910301
0.00910302
0.00910301
0.00910301
0.00910301
0.00910301
0.009103
0.00910299
0.00910297
0.00910295
0.00910291
0.00910288
0.00910284
0.00910283
0.00910281
0.00910295
0.00910307
0.00910354
0.00910693
0.00910649
0.00910637
0.00910623
0.00910624
0.00910626
0.00910628
0.00910631
0.00910634
0.00910636
0.00910638
0.00910638
0.00910639
0.00910639
0.0091064
0.00910639
0.0091064
0.00910639
0.00910639
0.00910639
0.00910639
0.00910639
0.00910639
0.00910639
0.0091064
0.0091064
0.00910639
0.00910639
0.00910639
0.00910639
0.00910639
0.00910639
0.00910639
0.00910639
0.00910638
0.00910639
0.00910638
0.00910638
0.00910637
0.00910637
0.00910635
0.00910633
0.0091063
0.00910627
0.00910624
0.00910623
0.00910621
0.00910635
0.00910647
0.00910691
0.00911016
0.00910973
0.00910962
0.00910949
0.00910949
0.0091095
0.00910953
0.00910955
0.00910958
0.00910959
0.00910961
0.00910961
0.00910962
0.00910962
0.00910962
0.00910962
0.00910962
0.00910962
0.00910962
0.00910962
0.00910962
0.00910962
0.00910962
0.00910962
0.00910962
0.00910962
0.00910962
0.00910962
0.00910961
0.00910961
0.00910961
0.00910961
0.00910961
0.00910961
0.00910961
0.00910961
0.00910961
0.00910961
0.0091096
0.0091096
0.00910958
0.00910956
0.00910953
0.00910951
0.00910948
0.00910947
0.00910947
0.0091096
0.00910972
0.00911014
0.00911312
0.00911272
0.0091126
0.00911247
0.00911247
0.00911247
0.00911249
0.00911251
0.00911254
0.00911255
0.00911256
0.00911256
0.00911257
0.00911257
0.00911257
0.00911257
0.00911257
0.00911256
0.00911256
0.00911256
0.00911256
0.00911256
0.00911256
0.00911256
0.00911256
0.00911256
0.00911256
0.00911256
0.00911256
0.00911256
0.00911256
0.00911256
0.00911256
0.00911256
0.00911256
0.00911256
0.00911256
0.00911256
0.00911255
0.00911255
0.00911253
0.00911252
0.0091125
0.00911247
0.00911245
0.00911245
0.00911245
0.00911258
0.0091127
0.0091131
0.00911587
0.00911549
0.00911537
0.00911523
0.00911522
0.00911522
0.00911524
0.00911526
0.00911527
0.00911529
0.0091153
0.0091153
0.0091153
0.0091153
0.0091153
0.0091153
0.0091153
0.0091153
0.0091153
0.00911529
0.0091153
0.00911529
0.0091153
0.0091153
0.0091153
0.0091153
0.00911529
0.00911529
0.00911529
0.00911529
0.00911529
0.00911529
0.00911529
0.00911529
0.00911529
0.00911529
0.00911529
0.00911529
0.00911529
0.00911528
0.00911527
0.00911526
0.00911524
0.00911522
0.0091152
0.0091152
0.00911521
0.00911535
0.00911547
0.00911585
0.00911845
0.00911809
0.00911797
0.00911784
0.00911782
0.00911782
0.00911782
0.00911784
0.00911785
0.00911786
0.00911787
0.00911787
0.00911787
0.00911787
0.00911787
0.00911787
0.00911787
0.00911787
0.00911787
0.00911786
0.00911786
0.00911786
0.00911786
0.00911786
0.00911786
0.00911786
0.00911786
0.00911786
0.00911786
0.00911786
0.00911786
0.00911786
0.00911786
0.00911786
0.00911786
0.00911786
0.00911786
0.00911786
0.00911786
0.00911786
0.00911785
0.00911784
0.00911782
0.0091178
0.0091178
0.0091178
0.00911782
0.00911795
0.00911807
0.00911843
0.00912078
0.00912043
0.0091203
0.00912016
0.00912014
0.00912013
0.00912013
0.00912014
0.00912015
0.00912015
0.00912016
0.00912016
0.00912016
0.00912016
0.00912016
0.00912015
0.00912015
0.00912015
0.00912015
0.00912014
0.00912014
0.00912014
0.00912014
0.00912014
0.00912014
0.00912014
0.00912014
0.00912014
0.00912014
0.00912014
0.00912014
0.00912014
0.00912014
0.00912014
0.00912014
0.00912015
0.00912015
0.00912015
0.00912014
0.00912014
0.00912014
0.00912013
0.00912012
0.00912011
0.00912011
0.00912012
0.00912014
0.00912028
0.00912041
0.00912076
0.0091229
0.00912257
0.00912244
0.0091223
0.00912227
0.00912225
0.00912225
0.00912226
0.00912226
0.00912227
0.00912227
0.00912226
0.00912227
0.00912226
0.00912226
0.00912226
0.00912226
0.00912225
0.00912225
0.00912225
0.00912225
0.00912225
0.00912225
0.00912225
0.00912225
0.00912225
0.00912225
0.00912225
0.00912224
0.00912224
0.00912224
0.00912225
0.00912225
0.00912225
0.00912225
0.00912225
0.00912225
0.00912226
0.00912225
0.00912225
0.00912225
0.00912224
0.00912224
0.00912223
0.00912223
0.00912225
0.00912228
0.00912242
0.00912255
0.00912287
0.00912477
0.00912446
0.00912431
0.00912417
0.00912413
0.00912411
0.0091241
0.0091241
0.0091241
0.0091241
0.0091241
0.00912409
0.00912409
0.00912409
0.00912409
0.00912408
0.00912408
0.00912408
0.00912407
0.00912407
0.00912407
0.00912407
0.00912407
0.00912407
0.00912407
0.00912407
0.00912407
0.00912407
0.00912407
0.00912407
0.00912407
0.00912407
0.00912407
0.00912407
0.00912407
0.00912408
0.00912408
0.00912408
0.00912408
0.00912408
0.00912408
0.00912408
0.00912408
0.00912408
0.00912408
0.00912411
0.00912415
0.00912429
0.00912444
0.00912475
0.00912642
0.00912612
0.00912596
0.00912581
0.00912576
0.00912573
0.00912571
0.00912571
0.00912571
0.00912571
0.00912571
0.0091257
0.0091257
0.00912569
0.00912569
0.00912569
0.00912568
0.00912568
0.00912568
0.00912567
0.00912567
0.00912567
0.00912567
0.00912567
0.00912567
0.00912567
0.00912567
0.00912567
0.00912567
0.00912567
0.00912567
0.00912567
0.00912567
0.00912567
0.00912568
0.00912568
0.00912568
0.00912569
0.00912569
0.00912569
0.00912569
0.00912569
0.00912569
0.00912569
0.00912571
0.00912574
0.00912579
0.00912593
0.0091261
0.0091264
0.00912787
0.00912754
0.00912736
0.00912721
0.00912714
0.00912711
0.00912708
0.00912707
0.00912707
0.00912706
0.00912706
0.00912705
0.00912705
0.00912704
0.00912704
0.00912703
0.00912703
0.00912702
0.00912702
0.00912702
0.00912702
0.00912702
0.00912702
0.00912702
0.00912702
0.00912702
0.00912702
0.00912702
0.00912701
0.00912701
0.00912701
0.00912702
0.00912702
0.00912702
0.00912702
0.00912703
0.00912703
0.00912704
0.00912704
0.00912704
0.00912704
0.00912705
0.00912705
0.00912706
0.00912708
0.00912712
0.00912719
0.00912734
0.00912752
0.00912784
0.00912904
0.00912873
0.00912854
0.00912838
0.0091283
0.00912826
0.00912823
0.00912821
0.0091282
0.00912819
0.00912819
0.00912818
0.00912817
0.00912817
0.00912816
0.00912816
0.00912815
0.00912815
0.00912814
0.00912814
0.00912814
0.00912814
0.00912814
0.00912814
0.00912814
0.00912814
0.00912814
0.00912814
0.00912814
0.00912814
0.00912814
0.00912814
0.00912814
0.00912814
0.00912815
0.00912815
0.00912816
0.00912816
0.00912816
0.00912817
0.00912817
0.00912818
0.00912819
0.00912821
0.00912823
0.00912828
0.00912836
0.00912851
0.00912871
0.00912902
0.00913
0.00912969
0.00912947
0.00912931
0.0091292
0.00912914
0.0091291
0.00912908
0.00912907
0.00912905
0.00912905
0.00912903
0.00912903
0.00912902
0.00912901
0.00912901
0.009129
0.009129
0.009129
0.00912899
0.00912899
0.00912899
0.00912899
0.00912899
0.00912899
0.00912899
0.00912899
0.00912899
0.00912899
0.00912899
0.00912899
0.00912899
0.00912899
0.009129
0.009129
0.009129
0.00912901
0.00912902
0.00912902
0.00912903
0.00912904
0.00912905
0.00912906
0.00912908
0.00912912
0.00912918
0.00912929
0.00912945
0.00912967
0.00912998
0.00913069
0.00913038
0.00913014
0.00912996
0.00912984
0.00912977
0.00912973
0.0091297
0.00912968
0.00912966
0.00912965
0.00912964
0.00912963
0.00912962
0.00912962
0.00912961
0.00912961
0.0091296
0.0091296
0.00912959
0.00912959
0.00912959
0.00912959
0.00912959
0.00912959
0.00912959
0.00912959
0.00912959
0.00912959
0.00912959
0.00912959
0.00912959
0.00912959
0.0091296
0.0091296
0.00912961
0.00912961
0.00912962
0.00912963
0.00912964
0.00912964
0.00912966
0.00912968
0.0091297
0.00912975
0.00912982
0.00912994
0.00913012
0.00913035
0.00913066
0.00913113
0.00913081
0.00913055
0.00913036
0.00913022
0.00913014
0.00913009
0.00913006
0.00913003
0.00913001
0.00913
0.00912998
0.00912997
0.00912996
0.00912996
0.00912995
0.00912994
0.00912994
0.00912994
0.00912993
0.00912993
0.00912993
0.00912993
0.00912993
0.00912993
0.00912993
0.00912993
0.00912993
0.00912993
0.00912993
0.00912993
0.00912993
0.00912993
0.00912994
0.00912994
0.00912995
0.00912995
0.00912996
0.00912997
0.00912998
0.00912999
0.00913001
0.00913003
0.00913007
0.00913012
0.0091302
0.00913033
0.00913052
0.00913079
0.00913111
0.00913131
0.00913099
0.00913069
0.00913049
0.00913034
0.00913025
0.00913019
0.00913015
0.00913012
0.0091301
0.00913008
0.00913006
0.00913005
0.00913004
0.00913003
0.00913003
0.00913002
0.00913002
0.00913001
0.00913001
0.00913001
0.00913001
0.00913001
0.00913001
0.00913001
0.00913001
0.00913001
0.00913001
0.00913001
0.00913
0.00913001
0.00913001
0.00913001
0.00913001
0.00913002
0.00913003
0.00913003
0.00913004
0.00913005
0.00913006
0.00913008
0.0091301
0.00913013
0.00913017
0.00913023
0.00913032
0.00913047
0.00913067
0.00913096
0.00913128
0.00913122
0.0091309
0.00913058
0.00913036
0.0091302
0.00913009
0.00913003
0.00912998
0.00912995
0.00912992
0.0091299
0.00912988
0.00912986
0.00912986
0.00912985
0.00912984
0.00912983
0.00912983
0.00912982
0.00912982
0.00912982
0.00912982
0.00912982
0.00912982
0.00912982
0.00912982
0.00912982
0.00912982
0.00912982
0.00912982
0.00912982
0.00912982
0.00912982
0.00912982
0.00912983
0.00912984
0.00912984
0.00912985
0.00912986
0.00912988
0.0091299
0.00912992
0.00912995
0.00913
0.00913007
0.00913017
0.00913033
0.00913055
0.00913087
0.0091312
0.00913087
0.00913054
0.00913019
0.00912996
0.00912979
0.00912967
0.00912959
0.00912953
0.0091295
0.00912947
0.00912945
0.00912942
0.00912941
0.0091294
0.00912939
0.00912938
0.00912938
0.00912937
0.00912937
0.00912936
0.00912936
0.00912936
0.00912936
0.00912936
0.00912936
0.00912936
0.00912936
0.00912936
0.00912936
0.00912936
0.00912936
0.00912936
0.00912936
0.00912937
0.00912937
0.00912938
0.00912939
0.0091294
0.00912941
0.00912943
0.00912945
0.00912948
0.00912951
0.00912957
0.00912964
0.00912976
0.00912993
0.00913017
0.00913051
0.00913085
0.00913026
0.00912991
0.00912954
0.00912929
0.0091291
0.00912897
0.00912889
0.00912882
0.00912878
0.00912875
0.00912873
0.0091287
0.00912868
0.00912867
0.00912866
0.00912865
0.00912865
0.00912864
0.00912864
0.00912864
0.00912863
0.00912863
0.00912863
0.00912863
0.00912863
0.00912863
0.00912863
0.00912863
0.00912863
0.00912863
0.00912863
0.00912863
0.00912864
0.00912864
0.00912865
0.00912865
0.00912866
0.00912867
0.00912869
0.0091287
0.00912873
0.00912876
0.0091288
0.00912886
0.00912894
0.00912908
0.00912926
0.00912951
0.00912989
0.00913023
0.00912937
0.00912901
0.00912861
0.00912835
0.00912814
0.009128
0.00912791
0.00912784
0.0091278
0.00912776
0.00912773
0.0091277
0.00912768
0.00912767
0.00912766
0.00912765
0.00912764
0.00912764
0.00912764
0.00912763
0.00912763
0.00912763
0.00912763
0.00912763
0.00912763
0.00912763
0.00912763
0.00912763
0.00912763
0.00912763
0.00912763
0.00912763
0.00912763
0.00912764
0.00912764
0.00912765
0.00912766
0.00912767
0.00912769
0.00912771
0.00912773
0.00912777
0.00912781
0.00912788
0.00912797
0.00912812
0.00912832
0.00912858
0.00912898
0.00912934
0.00912821
0.00912783
0.0091274
0.00912712
0.0091269
0.00912674
0.00912666
0.00912658
0.00912653
0.00912649
0.00912646
0.00912642
0.00912641
0.0091264
0.00912638
0.00912638
0.00912637
0.00912636
0.00912636
0.00912636
0.00912635
0.00912636
0.00912635
0.00912636
0.00912636
0.00912636
0.00912635
0.00912635
0.00912635
0.00912635
0.00912635
0.00912635
0.00912636
0.00912636
0.00912637
0.00912637
0.00912639
0.0091264
0.00912641
0.00912643
0.00912646
0.0091265
0.00912655
0.00912663
0.00912671
0.00912687
0.00912709
0.00912737
0.0091278
0.00912818
0.00912678
0.00912639
0.00912593
0.00912563
0.00912539
0.00912522
0.00912513
0.00912504
0.00912499
0.00912495
0.00912492
)
;

boundaryField
{
    fuel
    {
        type            fixedValue;
        value           nonuniform 0();
    }
    wall
    {
        type            zeroGradient;
    }
    outlet
    {
        type            zeroGradient;
    }
    frontAndBack
    {
        type            empty;
    }
    procBoundary2to0
    {
        type            processor;
        value           nonuniform List<scalar> 
53
(
0.0089843
0.00898282
0.0089821
0.0089816
0.00898158
0.00898157
0.00898169
0.00898169
0.0089818
0.00898185
0.00898191
0.00898193
0.00898197
0.00898197
0.00898199
0.00898199
0.008982
0.008982
0.00898998
0.00898998
0.00898998
0.00898998
0.00898998
0.00898998
0.00898998
0.00898998
0.00898998
0.00898998
0.00898998
0.00899772
0.00899772
0.00899772
0.00899771
0.00899772
0.00899771
0.00899771
0.0089977
0.0089977
0.00899768
0.00899768
0.00899764
0.00899763
0.00900507
0.00900507
0.00900502
0.00900493
0.00900492
0.0090048
0.0090048
0.0090048
0.00900523
0.00900579
0.00900706
)
;
    }
    procBoundary2to3
    {
        type            processor;
        value           nonuniform List<scalar> 
51
(
0.0091249
0.00912489
0.00912487
0.00912486
0.00912485
0.00912484
0.00912484
0.00912484
0.00912483
0.00912483
0.00912483
0.00912483
0.00912483
0.00912483
0.00912483
0.00912483
0.00912483
0.00912483
0.00912483
0.00912483
0.00912483
0.00912483
0.00912484
0.00912484
0.00912485
0.00912486
0.00912487
0.00912489
0.00912491
0.00912494
0.00912499
0.00912504
0.00912512
0.00912521
0.00912539
0.00912562
0.00912592
0.00912638
0.00912678
0.00912511
0.00912469
0.0091242
0.00912389
0.00912364
0.00912345
0.00912336
0.00912326
0.00912321
0.00912316
0.0091249
0.00912313
)
;
    }
}


// ************************************************************************* //
