/*--------------------------------*- C++ -*----------------------------------*\
| =========                 |                                                 |
| \\      /  F ield         | OpenFOAM: The Open Source CFD Toolbox           |
|  \\    /   O peration     | Version:  dev                                   |
|   \\  /    A nd           | Web:      www.OpenFOAM.org                      |
|    \\/     M anipulation  |                                                 |
\*---------------------------------------------------------------------------*/
FoamFile
{
    version     2.0;
    format      ascii;
    class       volScalarField;
    location    "0.06";
    object      HCCOH;
}
// * * * * * * * * * * * * * * * * * * * * * * * * * * * * * * * * * * * * * //

dimensions      [0 0 0 0 0 0 0];

internalField   nonuniform List<scalar> 
250
(
3.05074e-07
2.01856e-05
2.17298e-05
2.17934e-05
2.1798e-05
2.1793e-05
2.18128e-05
2.1795e-05
2.17938e-05
6.29194e-07
1.90137e-05
2.04271e-05
2.04561e-05
2.04513e-05
2.04417e-05
2.04507e-05
2.04451e-05
2.04439e-05
7.81807e-07
1.63611e-05
1.83673e-05
1.83969e-05
1.83841e-05
1.83723e-05
1.83786e-05
1.83742e-05
1.83749e-05
8.03532e-07
1.41601e-05
1.68832e-05
1.69341e-05
1.69118e-05
1.68966e-05
1.69026e-05
1.68976e-05
1.68991e-05
7.52631e-07
1.25149e-05
1.57864e-05
1.58618e-05
1.58296e-05
1.58104e-05
1.58163e-05
1.58104e-05
1.58125e-05
6.72775e-07
1.13527e-05
1.48834e-05
1.49947e-05
1.49318e-05
1.48993e-05
1.49064e-05
1.48972e-05
1.49006e-05
5.88685e-07
1.04822e-05
1.41445e-05
1.42695e-05
1.41886e-05
1.41478e-05
1.4155e-05
1.41442e-05
1.41486e-05
5.14911e-07
9.96793e-06
1.35075e-05
1.3635e-05
1.35307e-05
1.34808e-05
1.34882e-05
1.34755e-05
1.34812e-05
4.68647e-07
9.63433e-06
1.29076e-05
1.30302e-05
1.29216e-05
1.28684e-05
1.28784e-05
1.28609e-05
1.28698e-05
4.61897e-07
9.35495e-06
1.23243e-05
1.24273e-05
1.23572e-05
1.23151e-05
1.23261e-05
1.23058e-05
1.23167e-05
4.96139e-07
9.14946e-06
1.1858e-05
1.19408e-05
1.18488e-05
1.17956e-05
1.18103e-05
1.17825e-05
1.17975e-05
1.17859e-05
6.00761e-07
9.0007e-06
1.13883e-05
1.14319e-05
1.13181e-05
1.12561e-05
1.12727e-05
1.12407e-05
1.12586e-05
1.12445e-05
8.32897e-07
8.91664e-06
1.09352e-05
1.09426e-05
1.08184e-05
1.07458e-05
1.07648e-05
1.07284e-05
1.07492e-05
1.07327e-05
1.23592e-06
8.85308e-06
1.05076e-05
1.04769e-05
1.0345e-05
1.02622e-05
1.02837e-05
1.02428e-05
1.02665e-05
1.02477e-05
1.80976e-06
8.79589e-06
1.0101e-05
1.00323e-05
9.89499e-06
9.80297e-06
9.827e-06
9.78189e-06
9.80837e-06
9.78731e-06
2.51677e-06
8.73608e-06
9.71187e-06
9.60674e-06
9.4664e-06
9.36638e-06
9.39281e-06
9.34387e-06
9.37285e-06
9.34982e-06
3.2987e-06
8.65112e-06
9.33708e-06
9.19858e-06
9.05746e-06
8.95068e-06
8.97925e-06
8.92703e-06
8.95815e-06
8.93344e-06
4.08914e-06
8.55713e-06
8.97421e-06
8.80642e-06
8.6665e-06
8.55414e-06
8.58444e-06
8.5296e-06
8.56246e-06
8.53641e-06
4.83005e-06
8.43829e-06
8.62107e-06
8.42887e-06
8.29184e-06
8.17484e-06
8.20641e-06
8.1497e-06
8.18382e-06
8.15682e-06
5.47691e-06
8.28447e-06
8.27573e-06
8.06454e-06
7.93166e-06
7.81066e-06
7.84297e-06
7.78522e-06
7.8201e-06
7.79255e-06
6.0013e-06
8.11056e-06
7.93639e-06
7.71182e-06
7.58394e-06
7.45909e-06
7.49162e-06
7.4337e-06
7.4688e-06
7.44111e-06
6.38979e-06
7.91087e-06
7.60111e-06
7.36869e-06
7.24642e-06
7.1168e-06
7.14904e-06
7.09192e-06
7.12661e-06
7.09926e-06
6.64159e-06
7.68654e-06
7.26729e-06
7.03212e-06
6.91607e-06
6.81834e-06
6.8502e-06
6.79373e-06
6.82828e-06
6.80109e-06
6.76491e-06
7.42966e-06
6.96986e-06
6.74062e-06
6.6248e-06
6.51844e-06
6.55474e-06
6.4923e-06
6.53062e-06
6.50003e-06
6.77411e-06
7.16024e-06
6.65331e-06
6.42755e-06
6.33927e-06
6.23363e-06
6.26984e-06
6.20759e-06
6.2461e-06
6.21528e-06
6.68563e-06
6.84465e-06
6.35595e-06
6.14221e-06
6.05612e-06
5.95273e-06
5.98889e-06
5.92674e-06
5.96555e-06
5.93439e-06
)
;

boundaryField
{
    fuel
    {
        type            fixedValue;
        value           uniform 0;
    }
    wall
    {
        type            zeroGradient;
    }
    outlet
    {
        type            zeroGradient;
    }
    frontAndBack
    {
        type            empty;
    }
    procBoundary2to0
    {
        type            processor;
        value           nonuniform List<scalar> 
12
(
6.2236e-06
6.51585e-06
6.54228e-06
6.0573e-06
5.85751e-06
5.77537e-06
5.67316e-06
5.70934e-06
5.64719e-06
5.68644e-06
5.94266e-06
5.6548e-06
)
;
    }
    procBoundary2to3
    {
        type            processor;
        value           nonuniform List<scalar> 
25
(
2.17941e-05
2.04455e-05
1.83752e-05
1.68991e-05
1.58121e-05
1.4899e-05
1.41461e-05
1.34778e-05
1.28632e-05
1.23085e-05
1.23085e-05
1.17882e-05
1.12479e-05
1.07371e-05
1.02531e-05
9.79361e-06
9.35687e-06
8.94108e-06
8.54446e-06
8.16511e-06
7.8009e-06
7.44938e-06
7.10728e-06
6.80894e-06
6.50843e-06
)
;
    }
}


// ************************************************************************* //
