/*--------------------------------*- C++ -*----------------------------------*\
| =========                 |                                                 |
| \\      /  F ield         | OpenFOAM: The Open Source CFD Toolbox           |
|  \\    /   O peration     | Version:  dev                                   |
|   \\  /    A nd           | Web:      www.OpenFOAM.org                      |
|    \\/     M anipulation  |                                                 |
\*---------------------------------------------------------------------------*/
FoamFile
{
    version     2.0;
    format      ascii;
    class       volScalarField;
    location    "0.06";
    object      HO2;
}
// * * * * * * * * * * * * * * * * * * * * * * * * * * * * * * * * * * * * * //

dimensions      [0 0 0 0 0 0 0];

internalField   nonuniform List<scalar> 
250
(
4.28807e-05
9.05688e-06
7.53901e-06
7.35253e-06
7.33644e-06
7.33179e-06
7.32563e-06
7.32485e-06
7.3306e-06
8.07244e-05
2.2224e-06
1.80916e-06
1.76596e-06
1.7606e-06
1.75693e-06
1.75898e-06
1.75896e-06
1.75655e-06
9.48219e-05
6.80947e-07
4.79678e-07
4.66975e-07
4.65001e-07
4.64564e-07
4.64728e-07
4.64778e-07
4.64432e-07
9.74939e-05
3.07374e-07
1.49146e-07
1.4401e-07
1.4317e-07
1.43132e-07
1.43107e-07
1.43137e-07
1.4308e-07
9.6531e-05
2.00829e-07
5.40402e-08
5.1363e-08
5.09617e-08
5.09643e-08
5.09382e-08
5.09526e-08
5.0942e-08
9.60744e-05
1.64061e-07
2.21985e-08
2.04761e-08
2.02996e-08
2.0303e-08
2.02878e-08
2.02947e-08
2.02925e-08
9.84927e-05
1.49488e-07
1.01693e-08
8.84021e-09
8.76728e-09
8.76813e-09
8.75985e-09
8.76322e-09
8.76303e-09
0.00010376
1.43222e-07
4.923e-09
4.10664e-09
4.05887e-09
4.05618e-09
4.05121e-09
4.05306e-09
4.05348e-09
0.000107155
1.36355e-07
2.51838e-09
1.86923e-09
1.87656e-09
1.8811e-09
1.87971e-09
1.87994e-09
1.88056e-09
8.35249e-05
1.1236e-07
1.49034e-09
8.79004e-10
8.80552e-10
8.82797e-10
8.82185e-10
8.82222e-10
8.82678e-10
4.79259e-05
7.90772e-08
9.40812e-10
4.67641e-10
4.69139e-10
4.70774e-10
4.70547e-10
4.70494e-10
4.70862e-10
4.78098e-10
2.48372e-05
5.32923e-08
6.22033e-10
2.63239e-10
2.56661e-10
2.57049e-10
2.56869e-10
2.56747e-10
2.57066e-10
2.60364e-10
1.21711e-05
3.60279e-08
4.36351e-10
1.58522e-10
1.54655e-10
1.54969e-10
1.549e-10
1.54793e-10
1.55005e-10
1.56496e-10
5.98091e-06
2.50089e-08
3.31486e-10
1.07268e-10
1.05176e-10
1.0546e-10
1.05441e-10
1.05345e-10
1.05492e-10
1.06143e-10
3.09603e-06
1.78687e-08
2.55186e-10
8.13048e-11
8.03386e-11
8.06083e-11
8.06095e-11
8.052e-11
8.06287e-11
8.08927e-11
1.70854e-06
1.3044e-08
1.98934e-10
6.74138e-11
6.71482e-11
6.74086e-11
6.74155e-11
6.73263e-11
6.74154e-11
6.74997e-11
9.91477e-07
9.46758e-09
1.6071e-10
5.93242e-11
5.94766e-11
5.97278e-11
5.97333e-11
5.96398e-11
5.97208e-11
5.97191e-11
5.93059e-07
6.75574e-09
1.28753e-10
5.40066e-11
5.44047e-11
5.46439e-11
5.46441e-11
5.45434e-11
5.46229e-11
5.4577e-11
3.60086e-07
4.78539e-09
1.03435e-10
5.00033e-11
5.05263e-11
5.07498e-11
5.07424e-11
5.06324e-11
5.07146e-11
5.06426e-11
2.20113e-07
3.33649e-09
8.3981e-11
4.65961e-11
4.71543e-11
4.73582e-11
4.73417e-11
4.72212e-11
4.73085e-11
4.72181e-11
1.35174e-07
2.40068e-09
6.9223e-11
4.34173e-11
4.39454e-11
4.41257e-11
4.40995e-11
4.3968e-11
4.40616e-11
4.39561e-11
8.36306e-08
1.67499e-09
5.75807e-11
4.02612e-11
4.0717e-11
4.08706e-11
4.08342e-11
4.06922e-11
4.07923e-11
4.06732e-11
5.08333e-08
1.14109e-09
4.81243e-11
3.73898e-11
3.77467e-11
3.78764e-11
3.78319e-11
3.76792e-11
3.77873e-11
3.76559e-11
3.15889e-08
7.84221e-10
4.11399e-11
3.42876e-11
3.4415e-11
3.45143e-11
3.44585e-11
3.429e-11
3.44098e-11
3.42594e-11
1.96523e-08
5.37706e-10
3.52407e-11
3.12314e-11
3.1225e-11
3.12997e-11
3.12376e-11
3.10604e-11
3.11875e-11
3.10264e-11
1.2159e-08
3.64013e-10
3.02426e-11
2.80864e-11
2.79483e-11
2.80002e-11
2.79332e-11
2.77495e-11
2.7883e-11
2.77127e-11
)
;

boundaryField
{
    fuel
    {
        type            fixedValue;
        value           uniform 0;
    }
    wall
    {
        type            zeroGradient;
    }
    outlet
    {
        type            zeroGradient;
    }
    frontAndBack
    {
        type            empty;
    }
    procBoundary2to0
    {
        type            processor;
        value           nonuniform List<scalar> 
12
(
3.10133e-11
7.46393e-09
2.46169e-10
2.58819e-11
2.48746e-11
2.46206e-11
2.46522e-11
2.45828e-11
2.4396e-11
2.45337e-11
2.77047e-11
2.43575e-11
)
;
    }
    procBoundary2to3
    {
        type            processor;
        value           nonuniform List<scalar> 
25
(
7.33092e-06
1.75656e-06
4.64411e-07
1.43066e-07
5.09345e-08
2.02885e-08
8.76091e-09
4.05272e-09
1.88107e-09
8.86869e-10
8.86869e-10
4.7072e-10
2.56942e-10
1.5491e-10
1.0541e-10
8.05514e-11
6.73368e-11
5.9637e-11
5.45314e-11
5.06135e-11
4.71967e-11
4.39385e-11
4.0658e-11
3.76417e-11
3.42448e-11
)
;
    }
}


// ************************************************************************* //
