/*--------------------------------*- C++ -*----------------------------------*\
| =========                 |                                                 |
| \\      /  F ield         | OpenFOAM: The Open Source CFD Toolbox           |
|  \\    /   O peration     | Version:  dev                                   |
|   \\  /    A nd           | Web:      www.OpenFOAM.org                      |
|    \\/     M anipulation  |                                                 |
\*---------------------------------------------------------------------------*/
FoamFile
{
    version     2.0;
    format      ascii;
    class       volScalarField;
    location    "0.06";
    object      i-C6H5;
}
// * * * * * * * * * * * * * * * * * * * * * * * * * * * * * * * * * * * * * //

dimensions      [0 0 0 0 0 0 0];

internalField   nonuniform List<scalar> 
25
(
2.13172e-14
2.41087e-14
2.65812e-14
2.85685e-14
2.9954e-14
3.06542e-14
3.06455e-14
2.99483e-14
2.85985e-14
2.67257e-14
2.44356e-14
2.18628e-14
1.91353e-14
1.63751e-14
1.36902e-14
1.12332e-14
9.01891e-15
7.08605e-15
5.44519e-15
4.08469e-15
2.98168e-15
2.12262e-15
1.49074e-15
1.03039e-15
7.07747e-16
)
;

boundaryField
{
    wall
    {
        type            zeroGradient;
    }
    fuel
    {
        type            fixedValue;
        value           nonuniform 0();
    }
    outlet
    {
        type            inletOutlet;
        inletValue      nonuniform 0();
        value           nonuniform 0();
    }
    procBoundary2to1
    {
        type            processor;
        value           uniform 1.82906e-14;
    }
    procBoundary2to3
    {
        type            processor;
        value           uniform 4.90079e-16;
    }
}


// ************************************************************************* //
