/*--------------------------------*- C++ -*----------------------------------*\
| =========                 |                                                 |
| \\      /  F ield         | OpenFOAM: The Open Source CFD Toolbox           |
|  \\    /   O peration     | Version:  dev                                   |
|   \\  /    A nd           | Web:      www.OpenFOAM.org                      |
|    \\/     M anipulation  |                                                 |
\*---------------------------------------------------------------------------*/
FoamFile
{
    version     2.0;
    format      ascii;
    class       volScalarField;
    location    "0.06";
    object      A1-;
}
// * * * * * * * * * * * * * * * * * * * * * * * * * * * * * * * * * * * * * //

dimensions      [0 0 0 0 0 0 0];

internalField   nonuniform List<scalar> 
1989
(
1.01986e-07
1.01936e-07
1.01915e-07
1.01884e-07
1.01878e-07
1.01859e-07
1.01859e-07
1.01848e-07
1.0185e-07
1.01843e-07
1.01844e-07
1.0184e-07
1.01841e-07
1.0184e-07
1.0184e-07
1.01841e-07
1.0184e-07
1.01844e-07
1.01842e-07
1.01849e-07
1.01848e-07
1.01859e-07
1.01859e-07
1.01877e-07
1.01883e-07
1.01915e-07
1.01936e-07
1.01984e-07
1.02043e-07
1.02127e-07
1.02264e-07
1.02415e-07
1.027e-07
1.0297e-07
1.03524e-07
1.04193e-07
1.04967e-07
1.06193e-07
1.06905e-07
9.86481e-08
9.79517e-08
9.67688e-08
9.60287e-08
9.53865e-08
9.48622e-08
9.46048e-08
9.43316e-08
9.41892e-08
9.40618e-08
9.39825e-08
9.39312e-08
9.38845e-08
9.3865e-08
9.3836e-08
9.38309e-08
9.38135e-08
9.38137e-08
9.3803e-08
9.38048e-08
9.37983e-08
9.37998e-08
9.3796e-08
9.3797e-08
9.37958e-08
9.37957e-08
9.37969e-08
9.37959e-08
9.37995e-08
9.37979e-08
9.38044e-08
9.38027e-08
9.38134e-08
9.38131e-08
9.38306e-08
9.38357e-08
9.38647e-08
9.3884e-08
9.39289e-08
9.39828e-08
9.40617e-08
9.41891e-08
9.43311e-08
9.46041e-08
9.4862e-08
9.53858e-08
9.60293e-08
9.67684e-08
9.79506e-08
9.86472e-08
9.07224e-08
9.0044e-08
8.89076e-08
8.82114e-08
8.75962e-08
8.70991e-08
8.68553e-08
8.65941e-08
8.64594e-08
8.63425e-08
8.62695e-08
8.6224e-08
8.61807e-08
8.61636e-08
8.61367e-08
8.61327e-08
8.61164e-08
8.61171e-08
8.6107e-08
8.61089e-08
8.61027e-08
8.61042e-08
8.61006e-08
8.61015e-08
8.61004e-08
8.61003e-08
8.61015e-08
8.61005e-08
8.61039e-08
8.61023e-08
8.61085e-08
8.61066e-08
8.61167e-08
8.61161e-08
8.61324e-08
8.61365e-08
8.61632e-08
8.61801e-08
8.62213e-08
8.62701e-08
8.63434e-08
8.646e-08
8.65933e-08
8.68544e-08
8.70987e-08
8.75955e-08
8.82116e-08
8.89073e-08
9.00431e-08
9.07216e-08
8.30798e-08
8.24096e-08
8.13146e-08
8.06647e-08
8.01722e-08
7.97004e-08
7.94708e-08
7.92215e-08
7.90902e-08
7.89586e-08
7.88798e-08
7.88213e-08
7.87756e-08
7.87544e-08
7.87253e-08
7.87186e-08
7.87008e-08
7.86998e-08
7.86889e-08
7.86899e-08
7.86834e-08
7.86846e-08
7.86812e-08
7.8682e-08
7.8681e-08
7.86809e-08
7.86819e-08
7.8681e-08
7.86844e-08
7.86832e-08
7.86896e-08
7.86887e-08
7.86995e-08
7.87006e-08
7.87185e-08
7.87253e-08
7.87543e-08
7.87755e-08
7.88204e-08
7.88772e-08
7.8956e-08
7.90881e-08
7.92206e-08
7.94698e-08
7.96998e-08
8.01714e-08
8.06646e-08
8.13141e-08
8.24086e-08
8.30788e-08
7.58739e-08
7.52228e-08
7.4183e-08
7.35856e-08
7.31259e-08
7.26805e-08
7.24655e-08
7.22285e-08
7.21054e-08
7.19837e-08
7.1911e-08
7.18577e-08
7.18154e-08
7.17963e-08
7.17694e-08
7.17635e-08
7.17469e-08
7.17461e-08
7.1736e-08
7.1737e-08
7.1731e-08
7.17322e-08
7.17289e-08
7.17297e-08
7.17287e-08
7.17287e-08
7.17296e-08
7.17287e-08
7.1732e-08
7.17307e-08
7.17367e-08
7.17357e-08
7.17459e-08
7.17467e-08
7.17634e-08
7.17693e-08
7.17962e-08
7.18153e-08
7.18565e-08
7.19086e-08
7.19821e-08
7.21038e-08
7.22275e-08
7.24644e-08
7.26798e-08
7.31251e-08
7.35854e-08
7.41826e-08
7.52219e-08
7.5873e-08
6.90133e-08
6.84199e-08
6.74333e-08
6.67946e-08
6.63597e-08
6.59363e-08
6.57318e-08
6.55052e-08
6.53894e-08
6.5276e-08
6.52085e-08
6.51592e-08
6.512e-08
6.51025e-08
6.50774e-08
6.50722e-08
6.50567e-08
6.50561e-08
6.50466e-08
6.50476e-08
6.5042e-08
6.50431e-08
6.50401e-08
6.50409e-08
6.50399e-08
6.50399e-08
6.50408e-08
6.50399e-08
6.5043e-08
6.50417e-08
6.50474e-08
6.50464e-08
6.50559e-08
6.50565e-08
6.50721e-08
6.50774e-08
6.51024e-08
6.51198e-08
6.5158e-08
6.52062e-08
6.52749e-08
6.53881e-08
6.55041e-08
6.57307e-08
6.59355e-08
6.63589e-08
6.67943e-08
6.7433e-08
6.84191e-08
6.90125e-08
6.25726e-08
6.2008e-08
6.10732e-08
6.04853e-08
6.00852e-08
5.96895e-08
5.94993e-08
5.92854e-08
5.91793e-08
5.9075e-08
5.90133e-08
5.89684e-08
5.89324e-08
5.89168e-08
5.88937e-08
5.88892e-08
5.88748e-08
5.88745e-08
5.88656e-08
5.88667e-08
5.88614e-08
5.88626e-08
5.88597e-08
5.88605e-08
5.88596e-08
5.88595e-08
5.88604e-08
5.88596e-08
5.88624e-08
5.88612e-08
5.88665e-08
5.88654e-08
5.88743e-08
5.88746e-08
5.8889e-08
5.88937e-08
5.89167e-08
5.89322e-08
5.89671e-08
5.90114e-08
5.90742e-08
5.91785e-08
5.92844e-08
5.94982e-08
5.96887e-08
6.00844e-08
6.0485e-08
6.10731e-08
6.20073e-08
6.25718e-08
5.65203e-08
5.59823e-08
5.51118e-08
5.45653e-08
5.42005e-08
5.38329e-08
5.36564e-08
5.34553e-08
5.33592e-08
5.32634e-08
5.32074e-08
5.31668e-08
5.31339e-08
5.31199e-08
5.30988e-08
5.30949e-08
5.30817e-08
5.30816e-08
5.30734e-08
5.30745e-08
5.30696e-08
5.30707e-08
5.3068e-08
5.30688e-08
5.30679e-08
5.30679e-08
5.30687e-08
5.30679e-08
5.30705e-08
5.30694e-08
5.30743e-08
5.30731e-08
5.30813e-08
5.30815e-08
5.30948e-08
5.30988e-08
5.31199e-08
5.31337e-08
5.31655e-08
5.3206e-08
5.32626e-08
5.33587e-08
5.34544e-08
5.36553e-08
5.3832e-08
5.41997e-08
5.45649e-08
5.51117e-08
5.59817e-08
5.65197e-08
5.08426e-08
5.03052e-08
4.94864e-08
4.9032e-08
4.8703e-08
4.83639e-08
4.82005e-08
4.80122e-08
4.7926e-08
4.78383e-08
4.77879e-08
4.77513e-08
4.77213e-08
4.7709e-08
4.76897e-08
4.76864e-08
4.76743e-08
4.76743e-08
4.76668e-08
4.76679e-08
4.76634e-08
4.76645e-08
4.7662e-08
4.76627e-08
4.76619e-08
4.76619e-08
4.76627e-08
4.76619e-08
4.76644e-08
4.76632e-08
4.76677e-08
4.76666e-08
4.76741e-08
4.76741e-08
4.76863e-08
4.76897e-08
4.7709e-08
4.77211e-08
4.775e-08
4.77869e-08
4.78374e-08
4.79259e-08
4.80114e-08
4.81995e-08
4.83631e-08
4.87023e-08
4.90316e-08
4.94862e-08
5.03045e-08
5.08418e-08
4.55612e-08
4.5049e-08
4.42998e-08
4.38794e-08
4.3551e-08
4.32228e-08
4.30607e-08
4.28774e-08
4.27961e-08
4.2714e-08
4.2666e-08
4.2631e-08
4.26028e-08
4.25911e-08
4.25729e-08
4.25697e-08
4.25583e-08
4.25582e-08
4.25511e-08
4.25521e-08
4.25479e-08
4.25489e-08
4.25466e-08
4.25472e-08
4.25465e-08
4.25465e-08
4.25472e-08
4.25465e-08
4.25488e-08
4.25477e-08
4.25519e-08
4.25509e-08
4.2558e-08
4.25581e-08
4.25696e-08
4.25729e-08
4.2591e-08
4.26026e-08
4.26299e-08
4.2665e-08
4.27129e-08
4.2796e-08
4.28766e-08
4.30597e-08
4.3222e-08
4.35503e-08
4.3879e-08
4.42996e-08
4.50483e-08
4.55604e-08
4.06568e-08
4.01704e-08
3.9487e-08
3.91012e-08
3.88061e-08
3.85059e-08
3.8354e-08
3.81816e-08
3.81094e-08
3.8035e-08
3.79917e-08
3.79603e-08
3.79346e-08
3.79242e-08
3.79077e-08
3.7905e-08
3.78945e-08
3.78946e-08
3.78881e-08
3.78891e-08
3.78852e-08
3.78862e-08
3.78841e-08
3.78847e-08
3.7884e-08
3.7884e-08
3.78846e-08
3.7884e-08
3.7886e-08
3.7885e-08
3.78889e-08
3.78879e-08
3.78944e-08
3.78944e-08
3.79049e-08
3.79077e-08
3.79242e-08
3.79344e-08
3.79592e-08
3.79909e-08
3.80342e-08
3.81093e-08
3.8181e-08
3.83531e-08
3.85052e-08
3.88055e-08
3.91009e-08
3.94868e-08
4.01698e-08
4.06561e-08
3.61206e-08
3.56603e-08
3.50379e-08
3.46759e-08
3.4404e-08
3.41243e-08
3.3977e-08
3.38446e-08
3.3781e-08
3.37137e-08
3.36748e-08
3.36467e-08
3.36234e-08
3.36143e-08
3.35993e-08
3.3597e-08
3.35875e-08
3.35876e-08
3.35817e-08
3.35827e-08
3.35792e-08
3.35801e-08
3.35781e-08
3.35787e-08
3.35781e-08
3.35781e-08
3.35787e-08
3.35781e-08
3.35799e-08
3.3579e-08
3.35825e-08
3.35816e-08
3.35875e-08
3.35874e-08
3.35969e-08
3.35993e-08
3.36142e-08
3.36233e-08
3.36457e-08
3.36742e-08
3.37131e-08
3.37808e-08
3.3844e-08
3.39763e-08
3.41236e-08
3.44034e-08
3.46756e-08
3.50377e-08
3.56598e-08
3.612e-08
3.18675e-08
3.14329e-08
3.08705e-08
3.05447e-08
3.03025e-08
3.0052e-08
2.99757e-08
2.98542e-08
2.97985e-08
2.97381e-08
2.97032e-08
2.96781e-08
2.9657e-08
2.9649e-08
2.96356e-08
2.96336e-08
2.9625e-08
2.96252e-08
2.96198e-08
2.96208e-08
2.96175e-08
2.96184e-08
2.96166e-08
2.96172e-08
2.96166e-08
2.96166e-08
2.96171e-08
2.96166e-08
2.96183e-08
2.96174e-08
2.96206e-08
2.96197e-08
2.96251e-08
2.96249e-08
2.96335e-08
2.96356e-08
2.9649e-08
2.96569e-08
2.96772e-08
2.97027e-08
2.97375e-08
2.97983e-08
2.98537e-08
2.9975e-08
3.00514e-08
3.0302e-08
3.05444e-08
3.08703e-08
3.14324e-08
3.1867e-08
2.796e-08
2.76186e-08
2.71078e-08
2.68163e-08
2.6602e-08
2.63769e-08
2.63079e-08
2.61972e-08
2.61487e-08
2.60947e-08
2.60636e-08
2.60413e-08
2.60223e-08
2.60153e-08
2.60032e-08
2.60015e-08
2.59938e-08
2.59941e-08
2.59892e-08
2.59901e-08
2.59872e-08
2.5988e-08
2.59864e-08
2.59869e-08
2.59864e-08
2.59864e-08
2.59869e-08
2.59863e-08
2.59879e-08
2.59871e-08
2.599e-08
2.59891e-08
2.59939e-08
2.59937e-08
2.60015e-08
2.60032e-08
2.60153e-08
2.60222e-08
2.60405e-08
2.60633e-08
2.60942e-08
2.61486e-08
2.61968e-08
2.63073e-08
2.63764e-08
2.66015e-08
2.6816e-08
2.71076e-08
2.76182e-08
2.79595e-08
2.44466e-08
2.41291e-08
2.36725e-08
2.34113e-08
2.32228e-08
2.30217e-08
2.296e-08
2.28599e-08
2.28179e-08
2.27698e-08
2.27425e-08
2.27225e-08
2.27055e-08
2.26994e-08
2.26886e-08
2.26872e-08
2.26803e-08
2.26806e-08
2.26762e-08
2.26771e-08
2.26745e-08
2.26752e-08
2.26738e-08
2.26742e-08
2.26738e-08
2.26737e-08
2.26742e-08
2.26737e-08
2.26751e-08
2.26743e-08
2.2677e-08
2.26761e-08
2.26805e-08
2.26802e-08
2.26872e-08
2.26886e-08
2.26994e-08
2.27054e-08
2.27218e-08
2.27422e-08
2.27694e-08
2.28179e-08
2.28595e-08
2.29596e-08
2.30212e-08
2.32224e-08
2.3411e-08
2.36723e-08
2.41288e-08
2.44462e-08
2.12447e-08
2.09548e-08
2.05497e-08
2.0316e-08
2.01517e-08
1.9973e-08
1.99185e-08
1.98284e-08
1.97925e-08
1.97498e-08
1.97261e-08
1.97082e-08
1.96929e-08
1.96877e-08
1.96781e-08
1.9677e-08
1.96708e-08
1.96711e-08
1.96672e-08
1.9668e-08
1.96657e-08
1.96664e-08
1.96651e-08
1.96655e-08
1.96651e-08
1.9665e-08
1.96654e-08
1.9665e-08
1.96663e-08
1.96656e-08
1.96679e-08
1.96671e-08
1.9671e-08
1.96707e-08
1.96769e-08
1.96781e-08
1.96877e-08
1.96929e-08
1.97076e-08
1.97257e-08
1.97495e-08
1.97924e-08
1.98281e-08
1.99181e-08
1.99726e-08
2.01513e-08
2.03158e-08
2.05495e-08
2.09545e-08
2.12443e-08
1.83438e-08
1.808e-08
1.77262e-08
1.7517e-08
1.73752e-08
1.72175e-08
1.717e-08
1.70895e-08
1.7059e-08
1.70215e-08
1.70009e-08
1.69851e-08
1.69714e-08
1.69669e-08
1.69584e-08
1.69575e-08
1.69521e-08
1.69524e-08
1.6949e-08
1.69497e-08
1.69476e-08
1.69482e-08
1.69471e-08
1.69475e-08
1.69471e-08
1.69471e-08
1.69474e-08
1.69471e-08
1.69482e-08
1.69475e-08
1.69496e-08
1.69489e-08
1.69523e-08
1.6952e-08
1.69575e-08
1.69584e-08
1.69669e-08
1.69713e-08
1.69847e-08
1.70005e-08
1.70213e-08
1.70589e-08
1.70892e-08
1.71697e-08
1.72171e-08
1.73748e-08
1.75167e-08
1.77259e-08
1.80798e-08
1.83434e-08
1.57315e-08
1.54936e-08
1.51877e-08
1.50022e-08
1.48809e-08
1.47428e-08
1.4702e-08
1.46307e-08
1.46051e-08
1.45724e-08
1.45546e-08
1.45409e-08
1.45285e-08
1.45247e-08
1.45173e-08
1.45166e-08
1.45118e-08
1.45121e-08
1.45091e-08
1.45097e-08
1.45079e-08
1.45085e-08
1.45075e-08
1.45078e-08
1.45075e-08
1.45075e-08
1.45078e-08
1.45074e-08
1.45084e-08
1.45078e-08
1.45097e-08
1.4509e-08
1.45121e-08
1.45117e-08
1.45165e-08
1.45173e-08
1.45247e-08
1.45285e-08
1.45405e-08
1.45543e-08
1.45722e-08
1.4605e-08
1.46305e-08
1.47017e-08
1.47425e-08
1.48806e-08
1.5002e-08
1.51875e-08
1.54934e-08
1.57312e-08
1.33882e-08
1.31716e-08
1.29052e-08
1.27408e-08
1.26365e-08
1.25159e-08
1.24806e-08
1.24178e-08
1.23962e-08
1.23678e-08
1.23525e-08
1.23406e-08
1.23292e-08
1.2326e-08
1.23195e-08
1.23189e-08
1.23147e-08
1.23151e-08
1.23124e-08
1.2313e-08
1.23114e-08
1.23119e-08
1.2311e-08
1.23113e-08
1.23111e-08
1.2311e-08
1.23113e-08
1.2311e-08
1.23119e-08
1.23114e-08
1.2313e-08
1.23124e-08
1.2315e-08
1.23147e-08
1.23189e-08
1.23195e-08
1.2326e-08
1.23292e-08
1.23403e-08
1.23523e-08
1.23677e-08
1.23961e-08
1.24176e-08
1.24804e-08
1.25156e-08
1.26362e-08
1.27405e-08
1.29051e-08
1.31714e-08
1.3388e-08
1.13194e-08
1.11278e-08
1.09017e-08
1.07594e-08
1.0672e-08
1.05685e-08
1.05391e-08
1.04846e-08
1.04669e-08
1.04427e-08
1.04298e-08
1.04197e-08
1.04092e-08
1.04065e-08
1.0401e-08
1.04005e-08
1.03969e-08
1.03972e-08
1.03949e-08
1.03955e-08
1.03941e-08
1.03945e-08
1.03938e-08
1.0394e-08
1.03938e-08
1.03938e-08
1.0394e-08
1.03938e-08
1.03945e-08
1.03941e-08
1.03954e-08
1.03949e-08
1.03972e-08
1.03969e-08
1.04005e-08
1.0401e-08
1.04065e-08
1.04092e-08
1.04194e-08
1.04296e-08
1.04425e-08
1.04668e-08
1.04844e-08
1.05389e-08
1.05683e-08
1.06718e-08
1.07592e-08
1.09015e-08
1.11276e-08
1.13191e-08
9.50866e-09
9.34125e-09
9.15205e-09
9.03102e-09
8.95899e-09
8.87141e-09
8.84736e-09
8.80082e-09
8.78658e-09
8.76623e-09
8.75544e-09
8.74705e-09
8.73737e-09
8.7351e-09
8.73043e-09
8.7301e-09
8.72704e-09
8.72735e-09
8.72541e-09
8.72588e-09
8.72471e-09
8.7251e-09
8.72445e-09
8.72467e-09
8.72446e-09
8.72445e-09
8.72466e-09
8.72443e-09
8.72506e-09
8.72467e-09
8.72584e-09
8.72538e-09
8.72731e-09
8.72701e-09
8.73009e-09
8.73044e-09
8.73511e-09
8.73734e-09
8.74683e-09
8.75529e-09
8.76609e-09
8.78652e-09
8.8007e-09
8.84723e-09
8.87123e-09
8.9588e-09
9.03087e-09
9.1519e-09
9.34112e-09
9.50846e-09
7.94993e-09
7.80553e-09
7.65015e-09
7.54678e-09
7.48713e-09
7.41297e-09
7.39329e-09
7.35362e-09
7.34215e-09
7.3251e-09
7.31607e-09
7.30914e-09
7.2998e-09
7.29793e-09
7.294e-09
7.29375e-09
7.29117e-09
7.29144e-09
7.28981e-09
7.29021e-09
7.28923e-09
7.28956e-09
7.28901e-09
7.2892e-09
7.28902e-09
7.28901e-09
7.28918e-09
7.28899e-09
7.28953e-09
7.28919e-09
7.29018e-09
7.28978e-09
7.29141e-09
7.29114e-09
7.29374e-09
7.29401e-09
7.29793e-09
7.29978e-09
7.30896e-09
7.31595e-09
7.32499e-09
7.3421e-09
7.35352e-09
7.39318e-09
7.41282e-09
7.48698e-09
7.54665e-09
7.65002e-09
7.80543e-09
7.94975e-09
6.63787e-09
6.51771e-09
6.39296e-09
6.3084e-09
6.26093e-09
6.20063e-09
6.1852e-09
6.15271e-09
6.1438e-09
6.13002e-09
6.12276e-09
6.11733e-09
6.10817e-09
6.10669e-09
6.1035e-09
6.10332e-09
6.10122e-09
6.10146e-09
6.10013e-09
6.10047e-09
6.09966e-09
6.09993e-09
6.09949e-09
6.09964e-09
6.09949e-09
6.09949e-09
6.09963e-09
6.09947e-09
6.09991e-09
6.09963e-09
6.10044e-09
6.10011e-09
6.10143e-09
6.1012e-09
6.10331e-09
6.10351e-09
6.1067e-09
6.10816e-09
6.11721e-09
6.12266e-09
6.12993e-09
6.14375e-09
6.15263e-09
6.18512e-09
6.20052e-09
6.26081e-09
6.30829e-09
6.39286e-09
6.51764e-09
6.63772e-09
5.57154e-09
5.47288e-09
5.37302e-09
5.30485e-09
5.26731e-09
5.21939e-09
5.20724e-09
5.18133e-09
5.17439e-09
5.16349e-09
5.15776e-09
5.15367e-09
5.15317e-09
5.15204e-09
5.14953e-09
5.1494e-09
5.14774e-09
5.14794e-09
5.14688e-09
5.14715e-09
5.14652e-09
5.14673e-09
5.14638e-09
5.1465e-09
5.14639e-09
5.14638e-09
5.1465e-09
5.14637e-09
5.14672e-09
5.14649e-09
5.14713e-09
5.14687e-09
5.14792e-09
5.14772e-09
5.14939e-09
5.14954e-09
5.15205e-09
5.15316e-09
5.15359e-09
5.15769e-09
5.16342e-09
5.17436e-09
5.18128e-09
5.20718e-09
5.21931e-09
5.26722e-09
5.30476e-09
5.37294e-09
5.47283e-09
5.57142e-09
4.75238e-09
4.67647e-09
4.6008e-09
4.54886e-09
4.5204e-09
4.48418e-09
4.47495e-09
4.45533e-09
4.45008e-09
4.4418e-09
4.43752e-09
4.43454e-09
4.43405e-09
4.43321e-09
4.43131e-09
4.43121e-09
4.42996e-09
4.4301e-09
4.4293e-09
4.42951e-09
4.42902e-09
4.42919e-09
4.42892e-09
4.42901e-09
4.42892e-09
4.42892e-09
4.42901e-09
4.42891e-09
4.42918e-09
4.429e-09
4.42949e-09
4.42929e-09
4.43009e-09
4.42994e-09
4.43121e-09
4.43132e-09
4.43322e-09
4.43405e-09
4.4345e-09
4.43746e-09
4.44175e-09
4.45005e-09
4.45529e-09
4.4749e-09
4.48412e-09
4.52033e-09
4.5488e-09
4.60074e-09
4.67645e-09
4.75228e-09
4.17987e-09
4.12413e-09
4.06945e-09
4.03207e-09
4.01098e-09
3.98439e-09
3.97718e-09
3.96288e-09
3.95878e-09
3.95268e-09
3.94947e-09
3.94736e-09
3.9469e-09
3.94627e-09
3.94487e-09
3.94478e-09
3.94386e-09
3.94396e-09
3.94337e-09
3.94352e-09
3.94317e-09
3.94329e-09
3.94309e-09
3.94316e-09
3.9431e-09
3.9431e-09
3.94316e-09
3.94309e-09
3.94328e-09
3.94315e-09
3.94351e-09
3.94336e-09
3.94395e-09
3.94385e-09
3.94477e-09
3.94487e-09
3.94627e-09
3.94689e-09
3.94734e-09
3.94943e-09
3.95263e-09
3.95876e-09
3.96285e-09
3.97714e-09
3.98434e-09
4.01093e-09
4.03202e-09
4.06941e-09
4.12412e-09
4.17978e-09
3.84452e-09
3.80541e-09
3.76799e-09
3.7431e-09
3.72757e-09
3.70991e-09
3.70401e-09
3.6947e-09
3.69137e-09
3.68721e-09
3.68486e-09
3.68346e-09
3.6831e-09
3.68263e-09
3.68167e-09
3.68158e-09
3.68095e-09
3.681e-09
3.6806e-09
3.6807e-09
3.68045e-09
3.68053e-09
3.6804e-09
3.68045e-09
3.6804e-09
3.6804e-09
3.68044e-09
3.68039e-09
3.68053e-09
3.68044e-09
3.68069e-09
3.68059e-09
3.68099e-09
3.68094e-09
3.68157e-09
3.68167e-09
3.68263e-09
3.68309e-09
3.68345e-09
3.68483e-09
3.68718e-09
3.69136e-09
3.69468e-09
3.70399e-09
3.70988e-09
3.72754e-09
3.74307e-09
3.76796e-09
3.80543e-09
3.84445e-09
3.73646e-09
3.71088e-09
3.68574e-09
3.67036e-09
3.65848e-09
3.64737e-09
3.64211e-09
3.63653e-09
3.63357e-09
3.63082e-09
3.62901e-09
3.62813e-09
3.62786e-09
3.62749e-09
3.62684e-09
3.62674e-09
3.62632e-09
3.62633e-09
3.62607e-09
3.62612e-09
3.62595e-09
3.62601e-09
3.62591e-09
3.62594e-09
3.62591e-09
3.62591e-09
3.62594e-09
3.62591e-09
3.626e-09
3.62595e-09
3.62611e-09
3.62606e-09
3.62633e-09
3.62632e-09
3.62674e-09
3.62684e-09
3.62749e-09
3.62786e-09
3.62813e-09
3.62899e-09
3.6308e-09
3.63357e-09
3.63652e-09
3.6421e-09
3.64736e-09
3.65846e-09
3.67034e-09
3.68573e-09
3.71091e-09
3.73641e-09
3.82115e-09
3.80299e-09
3.78464e-09
3.77443e-09
3.7641e-09
3.75654e-09
3.75129e-09
3.74778e-09
3.74485e-09
3.74286e-09
3.74129e-09
3.74071e-09
3.74045e-09
3.74012e-09
3.73962e-09
3.73951e-09
3.73919e-09
3.73918e-09
3.73898e-09
3.73901e-09
3.73889e-09
3.73892e-09
3.73885e-09
3.73887e-09
3.73885e-09
3.73885e-09
3.73887e-09
3.73885e-09
3.73892e-09
3.73888e-09
3.73901e-09
3.73898e-09
3.73918e-09
3.73919e-09
3.73951e-09
3.73962e-09
3.74012e-09
3.74044e-09
3.74072e-09
3.74127e-09
3.74283e-09
3.74485e-09
3.74778e-09
3.75129e-09
3.75653e-09
3.76409e-09
3.77442e-09
3.78463e-09
3.80302e-09
3.8211e-09
4.03374e-09
4.01636e-09
3.99876e-09
3.98904e-09
3.97829e-09
3.97103e-09
3.96535e-09
3.96206e-09
3.95893e-09
3.95698e-09
3.9554e-09
3.95493e-09
3.95454e-09
3.95419e-09
3.95369e-09
3.95357e-09
3.95325e-09
3.95323e-09
3.95303e-09
3.95306e-09
3.95293e-09
3.95297e-09
3.95289e-09
3.95292e-09
3.95289e-09
3.95289e-09
3.95292e-09
3.95289e-09
3.95296e-09
3.95293e-09
3.95305e-09
3.95303e-09
3.95323e-09
3.95324e-09
3.95356e-09
3.95369e-09
3.95419e-09
3.95453e-09
3.95495e-09
3.95538e-09
3.95695e-09
3.95893e-09
3.96206e-09
3.96535e-09
3.97102e-09
3.97827e-09
3.98903e-09
3.99875e-09
4.01641e-09
4.03369e-09
4.28368e-09
4.25981e-09
4.23729e-09
4.22348e-09
4.21079e-09
4.20078e-09
4.19455e-09
4.18964e-09
4.18626e-09
4.1837e-09
4.18194e-09
4.1814e-09
4.18072e-09
4.18032e-09
4.17967e-09
4.17954e-09
4.17912e-09
4.17911e-09
4.17884e-09
4.17889e-09
4.17872e-09
4.17877e-09
4.17868e-09
4.17871e-09
4.17868e-09
4.17868e-09
4.17871e-09
4.17867e-09
4.17877e-09
4.17872e-09
4.17888e-09
4.17884e-09
4.17911e-09
4.17911e-09
4.17953e-09
4.17966e-09
4.18032e-09
4.18072e-09
4.18142e-09
4.18192e-09
4.18367e-09
4.18626e-09
4.18963e-09
4.19455e-09
4.20076e-09
4.21077e-09
4.22346e-09
4.23728e-09
4.25987e-09
4.28361e-09
4.46596e-09
4.43063e-09
4.39986e-09
4.37858e-09
4.36334e-09
4.34841e-09
4.34188e-09
4.33397e-09
4.33049e-09
4.32685e-09
4.32487e-09
4.32412e-09
4.32306e-09
4.32257e-09
4.32168e-09
4.32155e-09
4.32097e-09
4.321e-09
4.32062e-09
4.3207e-09
4.32047e-09
4.32055e-09
4.32041e-09
4.32046e-09
4.32041e-09
4.32041e-09
4.32046e-09
4.32041e-09
4.32054e-09
4.32046e-09
4.32069e-09
4.32062e-09
4.32099e-09
4.32096e-09
4.32155e-09
4.32168e-09
4.32257e-09
4.32306e-09
4.32413e-09
4.32485e-09
4.32682e-09
4.33048e-09
4.33396e-09
4.34186e-09
4.34838e-09
4.36331e-09
4.37856e-09
4.39984e-09
4.4307e-09
4.46584e-09
4.4829e-09
4.43636e-09
4.39759e-09
4.3679e-09
4.35045e-09
4.33012e-09
4.32372e-09
4.31242e-09
4.30909e-09
4.30428e-09
4.30214e-09
4.30109e-09
4.29969e-09
4.2991e-09
4.29798e-09
4.29785e-09
4.29711e-09
4.29716e-09
4.29669e-09
4.2968e-09
4.29651e-09
4.29661e-09
4.29644e-09
4.2965e-09
4.29644e-09
4.29644e-09
4.29649e-09
4.29643e-09
4.2966e-09
4.29649e-09
4.29679e-09
4.29668e-09
4.29716e-09
4.2971e-09
4.29785e-09
4.29798e-09
4.2991e-09
4.29968e-09
4.30109e-09
4.30211e-09
4.30424e-09
4.30907e-09
4.3124e-09
4.3237e-09
4.33009e-09
4.3504e-09
4.36786e-09
4.39755e-09
4.43638e-09
4.48279e-09
4.27947e-09
4.22432e-09
4.17979e-09
4.14294e-09
4.12438e-09
4.09969e-09
4.09393e-09
4.07972e-09
4.07683e-09
4.07106e-09
4.06892e-09
4.06757e-09
4.06593e-09
4.06527e-09
4.06399e-09
4.06387e-09
4.06302e-09
4.06309e-09
4.06254e-09
4.06267e-09
4.06234e-09
4.06245e-09
4.06226e-09
4.06233e-09
4.06226e-09
4.06226e-09
4.06232e-09
4.06225e-09
4.06244e-09
4.06232e-09
4.06266e-09
4.06253e-09
4.06308e-09
4.06301e-09
4.06386e-09
4.06399e-09
4.06527e-09
4.06593e-09
4.06757e-09
4.06889e-09
4.07102e-09
4.0768e-09
4.07969e-09
4.09389e-09
4.09965e-09
4.12433e-09
4.14289e-09
4.17974e-09
4.22429e-09
4.27938e-09
3.85168e-09
3.79323e-09
3.74725e-09
3.70714e-09
3.68915e-09
3.66273e-09
3.65799e-09
3.64241e-09
3.64015e-09
3.634e-09
3.63204e-09
3.63049e-09
3.62882e-09
3.62813e-09
3.62683e-09
3.6267e-09
3.62584e-09
3.62591e-09
3.62535e-09
3.62549e-09
3.62515e-09
3.62526e-09
3.62507e-09
3.62514e-09
3.62507e-09
3.62506e-09
3.62513e-09
3.62506e-09
3.62525e-09
3.62513e-09
3.62547e-09
3.62534e-09
3.6259e-09
3.62583e-09
3.6267e-09
3.62683e-09
3.62813e-09
3.62882e-09
3.63048e-09
3.63201e-09
3.63395e-09
3.64012e-09
3.64237e-09
3.65795e-09
3.66268e-09
3.6891e-09
3.70709e-09
3.74719e-09
3.79316e-09
3.85161e-09
3.25984e-09
3.20451e-09
3.16196e-09
3.12341e-09
3.10746e-09
3.08247e-09
3.07881e-09
3.0638e-09
3.06218e-09
3.05635e-09
3.05472e-09
3.05313e-09
3.05162e-09
3.05095e-09
3.04978e-09
3.04965e-09
3.04886e-09
3.04892e-09
3.04842e-09
3.04853e-09
3.04822e-09
3.04833e-09
3.04815e-09
3.04821e-09
3.04815e-09
3.04814e-09
3.0482e-09
3.04814e-09
3.04832e-09
3.04821e-09
3.04852e-09
3.04841e-09
3.04891e-09
3.04885e-09
3.04965e-09
3.04978e-09
3.05095e-09
3.05162e-09
3.05312e-09
3.05469e-09
3.05631e-09
3.06215e-09
3.06376e-09
3.07876e-09
3.08242e-09
3.10741e-09
3.12336e-09
3.1619e-09
3.20443e-09
3.25979e-09
2.62818e-09
2.58125e-09
2.54573e-09
2.51296e-09
2.4998e-09
2.47892e-09
2.47603e-09
2.46334e-09
2.46217e-09
2.45726e-09
2.45599e-09
2.45453e-09
2.45331e-09
2.45272e-09
2.45177e-09
2.45163e-09
2.451e-09
2.45103e-09
2.45062e-09
2.45071e-09
2.45046e-09
2.45054e-09
2.45039e-09
2.45044e-09
2.45039e-09
2.45038e-09
2.45043e-09
2.45039e-09
2.45053e-09
2.45044e-09
2.4507e-09
2.45061e-09
2.45102e-09
2.45099e-09
2.45163e-09
2.45177e-09
2.45272e-09
2.45331e-09
2.45453e-09
2.45597e-09
2.45723e-09
2.46215e-09
2.46331e-09
2.47599e-09
2.47888e-09
2.49976e-09
2.51292e-09
2.54569e-09
2.58117e-09
2.62815e-09
2.1132e-09
2.07634e-09
2.04853e-09
2.02318e-09
2.01252e-09
1.99672e-09
1.99407e-09
1.98444e-09
1.98342e-09
1.97965e-09
1.97866e-09
1.97744e-09
1.9765e-09
1.976e-09
1.97528e-09
1.97515e-09
1.97467e-09
1.97468e-09
1.97437e-09
1.97443e-09
1.97424e-09
1.97429e-09
1.97418e-09
1.97422e-09
1.97417e-09
1.97417e-09
1.97421e-09
1.97418e-09
1.97428e-09
1.97423e-09
1.97442e-09
1.97436e-09
1.97467e-09
1.97466e-09
1.97515e-09
1.97529e-09
1.976e-09
1.9765e-09
1.97743e-09
1.97864e-09
1.97963e-09
1.98341e-09
1.98441e-09
1.99404e-09
1.99668e-09
2.01249e-09
2.02315e-09
2.04849e-09
2.07627e-09
2.11318e-09
1.82695e-09
1.79757e-09
1.7751e-09
1.75557e-09
1.74631e-09
1.73445e-09
1.73161e-09
1.72444e-09
1.72335e-09
1.72047e-09
1.71961e-09
1.71858e-09
1.71783e-09
1.71739e-09
1.71684e-09
1.7167e-09
1.71633e-09
1.71632e-09
1.71608e-09
1.71612e-09
1.71597e-09
1.71601e-09
1.71592e-09
1.71595e-09
1.71591e-09
1.71591e-09
1.71594e-09
1.71591e-09
1.716e-09
1.71596e-09
1.71611e-09
1.71608e-09
1.71631e-09
1.71633e-09
1.7167e-09
1.71684e-09
1.7174e-09
1.71783e-09
1.71858e-09
1.7196e-09
1.72045e-09
1.72333e-09
1.72442e-09
1.73159e-09
1.73443e-09
1.74628e-09
1.75554e-09
1.77507e-09
1.79752e-09
1.82692e-09
1.75534e-09
1.72861e-09
1.70788e-09
1.69061e-09
1.68161e-09
1.67135e-09
1.66823e-09
1.66207e-09
1.66086e-09
1.65834e-09
1.6575e-09
1.65653e-09
1.65584e-09
1.65542e-09
1.65492e-09
1.65477e-09
1.65444e-09
1.65442e-09
1.65421e-09
1.65423e-09
1.6541e-09
1.65413e-09
1.65405e-09
1.65407e-09
1.65404e-09
1.65404e-09
1.65407e-09
1.65405e-09
1.65413e-09
1.65409e-09
1.65423e-09
1.6542e-09
1.65441e-09
1.65444e-09
1.65477e-09
1.65492e-09
1.65542e-09
1.65584e-09
1.65652e-09
1.65749e-09
1.65832e-09
1.66085e-09
1.66206e-09
1.66821e-09
1.67133e-09
1.68159e-09
1.69058e-09
1.70785e-09
1.72858e-09
1.75532e-09
)
;

boundaryField
{
    fuel
    {
        type            fixedValue;
        value           nonuniform 0();
    }
    wall
    {
        type            zeroGradient;
    }
    outlet
    {
        type            zeroGradient;
    }
    frontAndBack
    {
        type            empty;
    }
    procBoundary3to2
    {
        type            processor;
        value           nonuniform List<scalar> 
51
(
1.10366e-07
1.10313e-07
1.1029e-07
1.10257e-07
1.1025e-07
1.1023e-07
1.1023e-07
1.10218e-07
1.1022e-07
1.10213e-07
1.10215e-07
1.10211e-07
1.10212e-07
1.1021e-07
1.1021e-07
1.10212e-07
1.1021e-07
1.10214e-07
1.10213e-07
1.1022e-07
1.10218e-07
1.1023e-07
1.1023e-07
1.1025e-07
1.10257e-07
1.1029e-07
1.10313e-07
1.10365e-07
1.10427e-07
1.10517e-07
1.10662e-07
1.10822e-07
1.11119e-07
1.114e-07
1.11981e-07
1.12675e-07
1.1348e-07
1.14747e-07
1.15469e-07
1.06906e-07
1.06195e-07
1.04968e-07
1.04192e-07
1.03525e-07
1.02971e-07
1.02701e-07
1.02415e-07
1.02264e-07
1.02128e-07
1.02042e-07
1.02042e-07
)
;
    }
}


// ************************************************************************* //
