/*--------------------------------*- C++ -*----------------------------------*\
| =========                 |                                                 |
| \\      /  F ield         | OpenFOAM: The Open Source CFD Toolbox           |
|  \\    /   O peration     | Version:  dev                                   |
|   \\  /    A nd           | Web:      www.OpenFOAM.org                      |
|    \\/     M anipulation  |                                                 |
\*---------------------------------------------------------------------------*/
FoamFile
{
    version     2.0;
    format      ascii;
    class       volScalarField;
    location    "0.06";
    object      A2R5-;
}
// * * * * * * * * * * * * * * * * * * * * * * * * * * * * * * * * * * * * * //

dimensions      [0 0 0 0 0 0 0];

internalField   nonuniform List<scalar> 
25
(
1.6535e-12
1.49554e-12
1.3379e-12
1.1892e-12
1.04617e-12
9.09201e-13
7.75288e-13
6.51389e-13
5.38409e-13
4.39625e-13
3.51648e-13
2.7482e-13
2.09086e-13
1.54331e-13
1.10083e-13
7.55572e-14
4.96988e-14
3.12384e-14
1.87697e-14
1.0857e-14
6.14036e-15
3.48849e-15
2.02533e-15
1.1721e-15
4.90476e-16
)
;

boundaryField
{
    wall
    {
        type            zeroGradient;
    }
    fuel
    {
        type            fixedValue;
        value           nonuniform 0();
    }
    outlet
    {
        type            inletOutlet;
        inletValue      uniform 0;
        value           uniform 0;
    }
    procBoundary3to2
    {
        type            processor;
        value           uniform 1.81188e-12;
    }
}


// ************************************************************************* //
