/*--------------------------------*- C++ -*----------------------------------*\
| =========                 |                                                 |
| \\      /  F ield         | OpenFOAM: The Open Source CFD Toolbox           |
|  \\    /   O peration     | Version:  dev                                   |
|   \\  /    A nd           | Web:      www.OpenFOAM.org                      |
|    \\/     M anipulation  |                                                 |
\*---------------------------------------------------------------------------*/
FoamFile
{
    version     2.0;
    format      ascii;
    class       volScalarField;
    location    "0.06";
    object      C6H;
}
// * * * * * * * * * * * * * * * * * * * * * * * * * * * * * * * * * * * * * //

dimensions      [0 0 0 0 0 0 0];

internalField   nonuniform List<scalar> 
1989
(
3.29285e-12
3.2896e-12
3.28816e-12
3.28613e-12
3.2857e-12
3.28448e-12
3.28444e-12
3.2837e-12
3.28379e-12
3.28334e-12
3.28343e-12
3.28317e-12
3.28323e-12
3.28315e-12
3.28315e-12
3.28322e-12
3.28316e-12
3.28341e-12
3.28332e-12
3.28377e-12
3.28369e-12
3.28443e-12
3.28447e-12
3.2857e-12
3.28613e-12
3.28816e-12
3.28959e-12
3.29275e-12
3.29659e-12
3.30211e-12
3.31105e-12
3.32091e-12
3.33948e-12
3.35729e-12
3.39355e-12
3.43757e-12
3.48911e-12
3.57137e-12
3.6203e-12
3.08685e-12
3.04303e-12
2.97041e-12
2.9253e-12
2.88667e-12
2.85525e-12
2.83976e-12
2.82348e-12
2.81498e-12
2.80737e-12
2.80263e-12
2.79951e-12
2.79673e-12
2.79554e-12
2.7938e-12
2.79347e-12
2.79242e-12
2.79241e-12
2.79176e-12
2.79185e-12
2.79145e-12
2.79153e-12
2.79131e-12
2.79136e-12
2.79129e-12
2.79129e-12
2.79136e-12
2.7913e-12
2.79152e-12
2.79144e-12
2.79183e-12
2.79175e-12
2.79239e-12
2.79241e-12
2.79346e-12
2.7938e-12
2.79553e-12
2.79671e-12
2.79939e-12
2.80263e-12
2.80734e-12
2.81495e-12
2.82343e-12
2.8397e-12
2.85522e-12
2.88662e-12
2.92532e-12
2.97036e-12
3.04295e-12
3.08678e-12
2.61694e-12
2.5779e-12
2.51412e-12
2.4753e-12
2.44144e-12
2.41421e-12
2.40081e-12
2.38659e-12
2.37926e-12
2.3729e-12
2.36893e-12
2.3664e-12
2.36405e-12
2.3631e-12
2.36164e-12
2.36139e-12
2.3605e-12
2.36051e-12
2.35996e-12
2.36005e-12
2.35971e-12
2.35978e-12
2.35959e-12
2.35963e-12
2.35957e-12
2.35957e-12
2.35963e-12
2.35958e-12
2.35977e-12
2.35969e-12
2.36003e-12
2.35995e-12
2.3605e-12
2.36049e-12
2.36138e-12
2.36163e-12
2.36309e-12
2.36403e-12
2.36627e-12
2.36894e-12
2.37293e-12
2.37928e-12
2.38653e-12
2.40074e-12
2.41417e-12
2.44139e-12
2.47529e-12
2.51408e-12
2.57783e-12
2.61688e-12
2.20162e-12
2.16642e-12
2.11039e-12
2.07733e-12
2.0525e-12
2.02891e-12
2.01739e-12
2.005e-12
1.99851e-12
1.99202e-12
1.98813e-12
1.98522e-12
1.98296e-12
1.98191e-12
1.98047e-12
1.98012e-12
1.97924e-12
1.97917e-12
1.97863e-12
1.97867e-12
1.97835e-12
1.9784e-12
1.97823e-12
1.97827e-12
1.97822e-12
1.97822e-12
1.97827e-12
1.97822e-12
1.97839e-12
1.97834e-12
1.97866e-12
1.97863e-12
1.97917e-12
1.97924e-12
1.98012e-12
1.98048e-12
1.98191e-12
1.98297e-12
1.98517e-12
1.98798e-12
1.99188e-12
1.9984e-12
2.00494e-12
2.01733e-12
2.02886e-12
2.05245e-12
2.0773e-12
2.11035e-12
2.16636e-12
2.20156e-12
1.84301e-12
1.81177e-12
1.76327e-12
1.73562e-12
1.71455e-12
1.69424e-12
1.68442e-12
1.67369e-12
1.66816e-12
1.66269e-12
1.65941e-12
1.65699e-12
1.65509e-12
1.65422e-12
1.65301e-12
1.65273e-12
1.65198e-12
1.65194e-12
1.65148e-12
1.65151e-12
1.65124e-12
1.65129e-12
1.65114e-12
1.65117e-12
1.65113e-12
1.65113e-12
1.65117e-12
1.65113e-12
1.65128e-12
1.65123e-12
1.6515e-12
1.65147e-12
1.65193e-12
1.65198e-12
1.65273e-12
1.65302e-12
1.65423e-12
1.65509e-12
1.65694e-12
1.65929e-12
1.6626e-12
1.66807e-12
1.67363e-12
1.68436e-12
1.6942e-12
1.7145e-12
1.7356e-12
1.76324e-12
1.81172e-12
1.84295e-12
1.53079e-12
1.50479e-12
1.46295e-12
1.43616e-12
1.41808e-12
1.40055e-12
1.39207e-12
1.38275e-12
1.37804e-12
1.37342e-12
1.37066e-12
1.36863e-12
1.36703e-12
1.36631e-12
1.36529e-12
1.36506e-12
1.36442e-12
1.36439e-12
1.364e-12
1.36403e-12
1.3638e-12
1.36384e-12
1.36372e-12
1.36375e-12
1.36371e-12
1.36371e-12
1.36375e-12
1.36371e-12
1.36384e-12
1.36379e-12
1.36403e-12
1.36399e-12
1.36438e-12
1.36442e-12
1.36506e-12
1.36529e-12
1.36631e-12
1.36702e-12
1.36858e-12
1.37056e-12
1.37337e-12
1.37799e-12
1.3827e-12
1.39202e-12
1.4005e-12
1.41804e-12
1.43614e-12
1.46293e-12
1.50475e-12
1.53075e-12
1.26317e-12
1.24068e-12
1.20471e-12
1.18231e-12
1.16722e-12
1.15234e-12
1.1452e-12
1.13722e-12
1.13331e-12
1.12945e-12
1.12717e-12
1.12549e-12
1.12415e-12
1.12357e-12
1.12272e-12
1.12254e-12
1.12201e-12
1.12199e-12
1.12166e-12
1.12169e-12
1.12149e-12
1.12153e-12
1.12143e-12
1.12145e-12
1.12142e-12
1.12142e-12
1.12145e-12
1.12142e-12
1.12153e-12
1.12149e-12
1.12168e-12
1.12165e-12
1.12198e-12
1.122e-12
1.12254e-12
1.12272e-12
1.12357e-12
1.12415e-12
1.12544e-12
1.12709e-12
1.12942e-12
1.13327e-12
1.13717e-12
1.14515e-12
1.1523e-12
1.16718e-12
1.18229e-12
1.20469e-12
1.24065e-12
1.26313e-12
1.03405e-12
1.01465e-12
9.84324e-13
9.65446e-13
9.53007e-13
9.40496e-13
9.34508e-13
9.27727e-13
9.24533e-13
9.21327e-13
9.19451e-13
9.1808e-13
9.16973e-13
9.16505e-13
9.15797e-13
9.15659e-13
9.15215e-13
9.15204e-13
9.14928e-13
9.14961e-13
9.14796e-13
9.14831e-13
9.14741e-13
9.14764e-13
9.14735e-13
9.14734e-13
9.14762e-13
9.14738e-13
9.14826e-13
9.1479e-13
9.14955e-13
9.14923e-13
9.15199e-13
9.15211e-13
9.15658e-13
9.15798e-13
9.16506e-13
9.1697e-13
9.18035e-13
9.194e-13
9.21297e-13
9.2451e-13
9.27691e-13
9.34467e-13
9.40462e-13
9.52975e-13
9.65424e-13
9.84312e-13
1.01462e-12
1.03402e-12
8.38771e-13
8.21316e-13
7.95605e-13
7.81421e-13
7.71335e-13
7.60937e-13
7.5596e-13
7.50244e-13
7.47672e-13
7.45029e-13
7.43508e-13
7.42394e-13
7.41487e-13
7.41115e-13
7.40532e-13
7.40428e-13
7.40061e-13
7.40057e-13
7.39829e-13
7.39859e-13
7.39723e-13
7.39753e-13
7.39678e-13
7.39698e-13
7.39674e-13
7.39673e-13
7.39696e-13
7.39675e-13
7.39749e-13
7.39717e-13
7.39854e-13
7.39824e-13
7.40053e-13
7.40057e-13
7.40427e-13
7.40533e-13
7.41115e-13
7.41483e-13
7.42356e-13
7.43475e-13
7.44999e-13
7.47661e-13
7.50215e-13
7.55927e-13
7.60908e-13
7.71308e-13
7.81401e-13
7.95592e-13
8.21287e-13
8.38739e-13
6.74271e-13
6.59324e-13
6.38187e-13
6.26402e-13
6.17387e-13
6.08366e-13
6.03964e-13
5.98982e-13
5.96815e-13
5.94598e-13
5.93302e-13
5.92349e-13
5.91584e-13
5.91267e-13
5.90776e-13
5.90686e-13
5.90376e-13
5.90371e-13
5.90179e-13
5.90203e-13
5.90089e-13
5.90114e-13
5.90052e-13
5.90069e-13
5.90049e-13
5.90048e-13
5.90067e-13
5.9005e-13
5.90111e-13
5.90085e-13
5.902e-13
5.90175e-13
5.90368e-13
5.90374e-13
5.90685e-13
5.90778e-13
5.91268e-13
5.91582e-13
5.92318e-13
5.93274e-13
5.94567e-13
5.96808e-13
5.98958e-13
6.03935e-13
6.08341e-13
6.17363e-13
6.26387e-13
6.38176e-13
6.59301e-13
6.74246e-13
5.36521e-13
5.23838e-13
5.06605e-13
4.96939e-13
4.89716e-13
4.82347e-13
4.78681e-13
4.74486e-13
4.72772e-13
4.70979e-13
4.69936e-13
4.69171e-13
4.68548e-13
4.68298e-13
4.679e-13
4.67832e-13
4.67579e-13
4.67578e-13
4.67421e-13
4.67443e-13
4.67349e-13
4.67371e-13
4.6732e-13
4.67334e-13
4.67318e-13
4.67317e-13
4.67333e-13
4.67318e-13
4.67369e-13
4.67346e-13
4.6744e-13
4.67418e-13
4.67575e-13
4.67577e-13
4.67831e-13
4.67901e-13
4.68299e-13
4.68546e-13
4.69146e-13
4.69915e-13
4.70957e-13
4.72766e-13
4.74467e-13
4.78658e-13
4.82326e-13
4.89697e-13
4.96926e-13
5.06596e-13
5.2382e-13
5.36501e-13
4.22245e-13
4.11579e-13
3.97634e-13
3.89571e-13
3.83675e-13
3.77583e-13
3.74415e-13
3.71549e-13
3.70212e-13
3.68777e-13
3.67946e-13
3.67336e-13
3.66834e-13
3.6664e-13
3.6632e-13
3.66268e-13
3.66065e-13
3.66067e-13
3.65939e-13
3.65959e-13
3.65883e-13
3.65901e-13
3.6586e-13
3.65872e-13
3.65858e-13
3.65858e-13
3.65871e-13
3.65858e-13
3.65899e-13
3.6588e-13
3.65956e-13
3.65937e-13
3.66064e-13
3.66063e-13
3.66268e-13
3.66321e-13
3.6664e-13
3.66833e-13
3.67316e-13
3.67931e-13
3.68762e-13
3.70207e-13
3.71535e-13
3.74397e-13
3.77566e-13
3.8366e-13
3.8956e-13
3.97626e-13
4.11565e-13
4.22229e-13
3.26856e-13
3.17959e-13
3.06869e-13
3.00468e-13
2.95858e-13
2.91053e-13
2.89619e-13
2.87303e-13
2.86275e-13
2.85139e-13
2.84483e-13
2.84003e-13
2.83602e-13
2.83452e-13
2.83198e-13
2.8316e-13
2.82998e-13
2.83001e-13
2.82899e-13
2.82916e-13
2.82855e-13
2.82871e-13
2.82837e-13
2.82847e-13
2.82836e-13
2.82836e-13
2.82846e-13
2.82836e-13
2.82869e-13
2.82853e-13
2.82914e-13
2.82897e-13
2.82999e-13
2.82996e-13
2.8316e-13
2.83198e-13
2.83453e-13
2.83601e-13
2.83987e-13
2.84473e-13
2.85127e-13
2.8627e-13
2.87292e-13
2.89605e-13
2.9104e-13
2.95846e-13
3.0046e-13
3.06862e-13
3.17948e-13
3.26843e-13
2.49411e-13
2.43274e-13
2.34462e-13
2.29444e-13
2.25882e-13
2.22106e-13
2.2098e-13
2.19133e-13
2.18354e-13
2.17467e-13
2.16957e-13
2.16582e-13
2.16266e-13
2.16152e-13
2.15952e-13
2.15925e-13
2.15797e-13
2.15801e-13
2.1572e-13
2.15735e-13
2.15687e-13
2.15699e-13
2.15673e-13
2.15681e-13
2.15672e-13
2.15672e-13
2.1568e-13
2.15672e-13
2.15698e-13
2.15685e-13
2.15733e-13
2.15719e-13
2.15799e-13
2.15795e-13
2.15924e-13
2.15952e-13
2.16152e-13
2.16264e-13
2.1657e-13
2.16951e-13
2.17457e-13
2.18351e-13
2.19125e-13
2.2097e-13
2.22096e-13
2.25872e-13
2.29436e-13
2.34457e-13
2.43265e-13
2.49401e-13
1.88308e-13
1.83359e-13
1.76524e-13
1.7262e-13
1.69912e-13
1.66985e-13
1.66118e-13
1.64666e-13
1.64086e-13
1.63401e-13
1.63013e-13
1.62723e-13
1.62476e-13
1.6239e-13
1.62235e-13
1.62216e-13
1.62117e-13
1.62121e-13
1.62059e-13
1.6207e-13
1.62033e-13
1.62043e-13
1.62023e-13
1.62029e-13
1.62022e-13
1.62022e-13
1.62028e-13
1.62022e-13
1.62042e-13
1.62031e-13
1.62069e-13
1.62057e-13
1.6212e-13
1.62116e-13
1.62216e-13
1.62236e-13
1.6239e-13
1.62475e-13
1.62713e-13
1.63009e-13
1.63394e-13
1.64084e-13
1.6466e-13
1.6611e-13
1.66977e-13
1.69904e-13
1.72614e-13
1.76519e-13
1.83352e-13
1.88301e-13
1.39886e-13
1.36001e-13
1.30789e-13
1.27787e-13
1.25764e-13
1.23529e-13
1.22875e-13
1.21753e-13
1.21329e-13
1.20808e-13
1.20519e-13
1.20296e-13
1.20105e-13
1.20042e-13
1.19924e-13
1.19911e-13
1.19835e-13
1.19839e-13
1.19791e-13
1.19801e-13
1.19772e-13
1.1978e-13
1.19765e-13
1.19769e-13
1.19764e-13
1.19764e-13
1.19769e-13
1.19764e-13
1.1978e-13
1.19771e-13
1.198e-13
1.1979e-13
1.19838e-13
1.19834e-13
1.19911e-13
1.19924e-13
1.20042e-13
1.20104e-13
1.2029e-13
1.20514e-13
1.20804e-13
1.21328e-13
1.21749e-13
1.2287e-13
1.23523e-13
1.25758e-13
1.27782e-13
1.30785e-13
1.35996e-13
1.39881e-13
1.02116e-13
9.91093e-14
9.52361e-14
9.29506e-14
9.14716e-14
8.97945e-14
8.9313e-14
8.84606e-14
8.81567e-14
8.77681e-14
8.75555e-14
8.73886e-14
8.72421e-14
8.71963e-14
8.7108e-14
8.70992e-14
8.7042e-14
8.7046e-14
8.70099e-14
8.70175e-14
8.69958e-14
8.70022e-14
8.69903e-14
8.6994e-14
8.699e-14
8.69899e-14
8.69937e-14
8.69898e-14
8.70016e-14
8.69949e-14
8.70167e-14
8.70092e-14
8.70453e-14
8.70414e-14
8.70991e-14
8.71082e-14
8.71964e-14
8.72416e-14
8.73843e-14
8.75517e-14
8.77648e-14
8.81553e-14
8.84575e-14
8.93092e-14
8.97903e-14
9.14675e-14
9.2947e-14
9.52326e-14
9.91057e-14
1.02112e-13
7.31448e-14
7.08651e-14
6.80492e-14
6.63453e-14
6.52848e-14
6.40493e-14
6.37041e-14
6.3069e-14
6.28563e-14
6.25719e-14
6.24184e-14
6.22969e-14
6.21851e-14
6.21525e-14
6.20876e-14
6.2082e-14
6.20398e-14
6.20432e-14
6.20166e-14
6.20225e-14
6.20064e-14
6.20114e-14
6.20025e-14
6.20053e-14
6.20024e-14
6.20023e-14
6.20051e-14
6.20022e-14
6.20109e-14
6.20058e-14
6.20219e-14
6.20161e-14
6.20427e-14
6.20393e-14
6.20819e-14
6.20878e-14
6.21526e-14
6.21847e-14
6.22937e-14
6.24159e-14
6.25695e-14
6.28552e-14
6.30668e-14
6.37016e-14
6.40462e-14
6.52818e-14
6.63426e-14
6.80466e-14
7.08625e-14
7.31415e-14
5.12557e-14
4.95315e-14
4.74947e-14
4.62391e-14
4.54847e-14
4.45882e-14
4.43431e-14
4.38783e-14
4.37308e-14
4.35261e-14
4.34169e-14
4.33298e-14
4.32445e-14
4.32214e-14
4.31746e-14
4.31709e-14
4.31404e-14
4.31432e-14
4.31239e-14
4.31283e-14
4.31167e-14
4.31203e-14
4.31139e-14
4.3116e-14
4.31138e-14
4.31138e-14
4.31158e-14
4.31137e-14
4.312e-14
4.31162e-14
4.31279e-14
4.31235e-14
4.31428e-14
4.31401e-14
4.31709e-14
4.31747e-14
4.32215e-14
4.32442e-14
4.33274e-14
4.34152e-14
4.35244e-14
4.373e-14
4.38768e-14
4.43413e-14
4.4586e-14
4.54825e-14
4.62371e-14
4.74927e-14
4.95295e-14
5.12532e-14
3.51453e-14
3.38928e-14
3.24716e-14
3.15777e-14
3.10605e-14
3.04274e-14
3.02614e-14
2.99298e-14
2.98317e-14
2.96882e-14
2.96129e-14
2.95525e-14
2.94884e-14
2.94726e-14
2.94397e-14
2.94375e-14
2.9416e-14
2.94182e-14
2.94046e-14
2.94078e-14
2.93996e-14
2.94023e-14
2.93977e-14
2.93992e-14
2.93977e-14
2.93976e-14
2.93991e-14
2.93976e-14
2.9402e-14
2.93993e-14
2.94075e-14
2.94043e-14
2.94179e-14
2.94158e-14
2.94375e-14
2.94398e-14
2.94727e-14
2.94882e-14
2.9551e-14
2.96118e-14
2.9687e-14
2.9831e-14
2.99288e-14
3.02601e-14
3.04259e-14
3.1059e-14
3.15763e-14
3.24702e-14
3.38914e-14
3.51436e-14
2.35031e-14
2.26146e-14
2.16477e-14
2.10292e-14
2.06845e-14
2.02487e-14
2.01402e-14
1.99098e-14
1.98465e-14
1.97485e-14
1.96981e-14
1.96577e-14
1.96096e-14
1.95991e-14
1.95766e-14
1.95754e-14
1.95606e-14
1.95622e-14
1.95528e-14
1.95552e-14
1.95495e-14
1.95514e-14
1.95483e-14
1.95493e-14
1.95483e-14
1.95482e-14
1.95492e-14
1.95482e-14
1.95512e-14
1.95493e-14
1.9555e-14
1.95527e-14
1.95621e-14
1.95604e-14
1.95753e-14
1.95767e-14
1.95992e-14
1.96095e-14
1.96567e-14
1.96973e-14
1.97477e-14
1.9846e-14
1.99091e-14
2.01394e-14
2.02477e-14
2.06835e-14
2.10283e-14
2.16468e-14
2.26137e-14
2.35018e-14
1.52881e-14
1.46723e-14
1.40334e-14
1.36074e-14
1.33791e-14
1.30816e-14
1.30116e-14
1.28532e-14
1.2813e-14
1.27471e-14
1.27135e-14
1.26869e-14
1.265e-14
1.26432e-14
1.26279e-14
1.26273e-14
1.26173e-14
1.26185e-14
1.26121e-14
1.26137e-14
1.26099e-14
1.26112e-14
1.26091e-14
1.26098e-14
1.26091e-14
1.2609e-14
1.26097e-14
1.2609e-14
1.26111e-14
1.26097e-14
1.26136e-14
1.2612e-14
1.26184e-14
1.26171e-14
1.26273e-14
1.2628e-14
1.26432e-14
1.265e-14
1.26863e-14
1.2713e-14
1.27465e-14
1.28127e-14
1.28527e-14
1.30111e-14
1.3081e-14
1.33784e-14
1.36067e-14
1.40327e-14
1.46717e-14
1.52872e-14
9.63819e-15
9.22955e-15
8.82064e-15
8.54163e-15
8.39828e-15
8.20462e-15
8.16228e-15
8.05822e-15
8.03414e-15
7.9916e-15
7.97044e-15
7.95407e-15
7.92442e-15
7.92016e-15
7.9103e-15
7.90998e-15
7.90348e-15
7.90434e-15
7.9002e-15
7.9013e-15
7.89881e-15
7.89968e-15
7.89829e-15
7.89877e-15
7.89829e-15
7.89827e-15
7.89873e-15
7.89824e-15
7.89961e-15
7.8987e-15
7.90121e-15
7.90013e-15
7.90427e-15
7.90341e-15
7.90997e-15
7.91034e-15
7.92018e-15
7.92439e-15
7.95375e-15
7.97015e-15
7.99126e-15
8.03393e-15
8.05792e-15
8.16195e-15
8.2042e-15
8.39784e-15
8.5412e-15
8.8202e-15
9.22919e-15
9.63758e-15
5.86726e-15
5.60045e-15
5.34098e-15
5.16154e-15
5.07305e-15
4.95037e-15
4.92518e-15
4.85881e-15
4.84469e-15
4.81799e-15
4.80508e-15
4.79545e-15
4.79422e-15
4.79173e-15
4.78557e-15
4.78544e-15
4.78137e-15
4.78195e-15
4.77935e-15
4.78007e-15
4.7785e-15
4.77906e-15
4.77819e-15
4.77849e-15
4.77819e-15
4.77818e-15
4.77847e-15
4.77816e-15
4.77901e-15
4.77843e-15
4.78001e-15
4.77931e-15
4.7819e-15
4.78132e-15
4.78544e-15
4.7856e-15
4.79174e-15
4.79421e-15
4.7953e-15
4.80492e-15
4.81778e-15
4.84456e-15
4.85863e-15
4.92498e-15
4.95011e-15
5.07278e-15
5.16127e-15
5.34069e-15
5.60023e-15
5.86687e-15
3.43663e-15
3.27365e-15
3.11805e-15
3.00852e-15
2.95688e-15
2.88273e-15
2.86893e-15
2.82845e-15
2.82075e-15
2.80469e-15
2.79736e-15
2.79196e-15
2.79084e-15
2.78943e-15
2.78574e-15
2.7857e-15
2.78325e-15
2.78363e-15
2.78206e-15
2.78251e-15
2.78156e-15
2.7819e-15
2.78138e-15
2.78156e-15
2.78138e-15
2.78137e-15
2.78155e-15
2.78136e-15
2.78188e-15
2.78152e-15
2.78247e-15
2.78204e-15
2.7836e-15
2.78323e-15
2.7857e-15
2.78575e-15
2.78944e-15
2.79083e-15
2.7919e-15
2.79727e-15
2.80456e-15
2.82067e-15
2.82834e-15
2.86881e-15
2.88258e-15
2.95671e-15
3.00835e-15
3.11788e-15
3.27353e-15
3.43638e-15
1.92954e-15
1.83404e-15
1.74482e-15
1.68077e-15
1.65195e-15
1.6077e-15
1.60034e-15
1.57606e-15
1.57196e-15
1.56248e-15
1.5584e-15
1.55542e-15
1.55445e-15
1.55366e-15
1.5515e-15
1.5515e-15
1.55007e-15
1.5503e-15
1.54939e-15
1.54966e-15
1.5491e-15
1.54931e-15
1.54901e-15
1.54912e-15
1.54901e-15
1.54901e-15
1.54911e-15
1.549e-15
1.5493e-15
1.54908e-15
1.54964e-15
1.54937e-15
1.55029e-15
1.55005e-15
1.5515e-15
1.55151e-15
1.55366e-15
1.55444e-15
1.5554e-15
1.55834e-15
1.5624e-15
1.57191e-15
1.57599e-15
1.60026e-15
1.6076e-15
1.65185e-15
1.68067e-15
1.74472e-15
1.83398e-15
1.92938e-15
1.02619e-15
9.72268e-16
9.23724e-16
8.88312e-16
8.72979e-16
8.48852e-16
8.45159e-16
8.31805e-16
8.29773e-16
8.2461e-16
8.22516e-16
8.20994e-16
8.20314e-16
8.19898e-16
8.18732e-16
8.18738e-16
8.17961e-16
8.18093e-16
8.17596e-16
8.17745e-16
8.17445e-16
8.17559e-16
8.17393e-16
8.17455e-16
8.17398e-16
8.17395e-16
8.1745e-16
8.17387e-16
8.1755e-16
8.17431e-16
8.17733e-16
8.17586e-16
8.18082e-16
8.17952e-16
8.18736e-16
8.18735e-16
8.19898e-16
8.20311e-16
8.20989e-16
8.22488e-16
8.24567e-16
8.29744e-16
8.31765e-16
8.45115e-16
8.48799e-16
8.72924e-16
8.88258e-16
9.2367e-16
9.72246e-16
1.02609e-15
5.14553e-16
4.86683e-16
4.61737e-16
4.4349e-16
4.35794e-16
4.23439e-16
4.21691e-16
4.14788e-16
4.13843e-16
4.11199e-16
4.10189e-16
4.0945e-16
4.09031e-16
4.0882e-16
4.0823e-16
4.08234e-16
4.0784e-16
4.07907e-16
4.07655e-16
4.07731e-16
4.07579e-16
4.07637e-16
4.07553e-16
4.07584e-16
4.07555e-16
4.07554e-16
4.07582e-16
4.0755e-16
4.07632e-16
4.07572e-16
4.07725e-16
4.0765e-16
4.07902e-16
4.07835e-16
4.08233e-16
4.08232e-16
4.08821e-16
4.09031e-16
4.09451e-16
4.10176e-16
4.11177e-16
4.13828e-16
4.14769e-16
4.21668e-16
4.23412e-16
4.35766e-16
4.43462e-16
4.61709e-16
4.86671e-16
5.14501e-16
2.44238e-16
2.30471e-16
2.18393e-16
2.09366e-16
2.05767e-16
1.99703e-16
1.98979e-16
1.95556e-16
1.95166e-16
1.93872e-16
1.93414e-16
1.93072e-16
1.92836e-16
1.92736e-16
1.92451e-16
1.92455e-16
1.92265e-16
1.92299e-16
1.92177e-16
1.92214e-16
1.92141e-16
1.92169e-16
1.92128e-16
1.92144e-16
1.9213e-16
1.92129e-16
1.92142e-16
1.92127e-16
1.92167e-16
1.92137e-16
1.92211e-16
1.92174e-16
1.92296e-16
1.92263e-16
1.92455e-16
1.92452e-16
1.92736e-16
1.92836e-16
1.93074e-16
1.93408e-16
1.93861e-16
1.95158e-16
1.95546e-16
1.98968e-16
1.9969e-16
2.05753e-16
2.09353e-16
2.1838e-16
2.30465e-16
2.44212e-16
1.07751e-16
1.0134e-16
9.59255e-17
9.1774e-17
9.02175e-17
8.74513e-17
8.71854e-17
8.5606e-17
8.54632e-17
8.48741e-17
8.46828e-17
8.45331e-17
8.44144e-17
8.43702e-17
8.42406e-17
8.42433e-17
8.41563e-17
8.41723e-17
8.41164e-17
8.41338e-17
8.41003e-17
8.41134e-17
8.40948e-17
8.41017e-17
8.40954e-17
8.4095e-17
8.41011e-17
8.40941e-17
8.41123e-17
8.40987e-17
8.41325e-17
8.41154e-17
8.41711e-17
8.41553e-17
8.42432e-17
8.42412e-17
8.43704e-17
8.44144e-17
8.45342e-17
8.46802e-17
8.48695e-17
8.546e-17
8.56016e-17
8.71803e-17
8.74454e-17
9.02114e-17
9.1768e-17
9.59194e-17
1.01339e-16
1.07738e-16
4.3609e-17
4.09206e-17
3.86809e-17
3.69283e-17
3.63149e-17
3.51562e-17
3.50734e-17
3.4404e-17
3.43596e-17
3.41131e-17
3.40402e-17
3.39793e-17
3.39263e-17
3.39082e-17
3.3855e-17
3.38564e-17
3.38206e-17
3.38273e-17
3.38043e-17
3.38116e-17
3.37978e-17
3.38032e-17
3.37955e-17
3.37984e-17
3.37958e-17
3.37956e-17
3.37982e-17
3.37953e-17
3.38028e-17
3.37971e-17
3.3811e-17
3.38039e-17
3.38268e-17
3.38201e-17
3.38564e-17
3.38553e-17
3.39083e-17
3.39263e-17
3.39798e-17
3.40392e-17
3.41112e-17
3.43583e-17
3.44021e-17
3.50713e-17
3.51538e-17
3.63124e-17
3.69258e-17
3.86784e-17
4.09202e-17
4.36033e-17
1.59093e-17
1.48873e-17
1.40479e-17
1.33888e-17
1.31699e-17
1.27379e-17
1.27147e-17
1.24623e-17
1.24502e-17
1.2358e-17
1.23329e-17
1.23101e-17
1.22898e-17
1.2283e-17
1.22636e-17
1.2264e-17
1.22509e-17
1.22534e-17
1.2245e-17
1.22476e-17
1.22426e-17
1.22446e-17
1.22418e-17
1.22428e-17
1.22419e-17
1.22418e-17
1.22427e-17
1.22417e-17
1.22444e-17
1.22423e-17
1.22474e-17
1.22448e-17
1.22532e-17
1.22508e-17
1.2264e-17
1.22637e-17
1.22831e-17
1.22898e-17
1.23103e-17
1.23325e-17
1.23573e-17
1.24497e-17
1.24616e-17
1.27139e-17
1.2737e-17
1.3169e-17
1.33879e-17
1.40469e-17
1.48876e-17
1.59066e-17
5.16849e-18
4.83317e-18
4.59225e-18
4.37001e-18
4.30129e-18
4.1565e-18
4.15214e-18
4.06649e-18
4.0643e-18
4.03329e-18
4.02569e-18
4.01802e-18
4.01113e-18
4.00886e-18
4.0025e-18
4.00265e-18
3.99836e-18
3.99917e-18
3.99641e-18
3.99728e-18
3.99563e-18
3.99628e-18
3.99537e-18
3.99571e-18
3.99539e-18
3.99537e-18
3.99568e-18
3.99533e-18
3.99623e-18
3.99555e-18
3.99721e-18
3.99636e-18
3.99911e-18
3.99831e-18
4.00265e-18
4.00253e-18
4.00887e-18
4.01114e-18
4.01806e-18
4.02557e-18
4.03307e-18
4.06413e-18
4.06626e-18
4.15188e-18
4.15621e-18
4.30098e-18
4.3697e-18
4.59193e-18
4.83317e-18
5.16771e-18
1.50278e-18
1.40473e-18
1.33514e-18
1.26825e-18
1.24904e-18
1.2059e-18
1.20552e-18
1.17972e-18
1.17958e-18
1.17031e-18
1.16828e-18
1.16596e-18
1.16391e-18
1.16322e-18
1.16138e-18
1.16142e-18
1.16018e-18
1.1604e-18
1.15961e-18
1.15986e-18
1.15938e-18
1.15957e-18
1.1593e-18
1.1594e-18
1.15931e-18
1.1593e-18
1.15939e-18
1.15929e-18
1.15955e-18
1.15936e-18
1.15984e-18
1.15959e-18
1.16039e-18
1.16016e-18
1.16142e-18
1.16139e-18
1.16323e-18
1.16391e-18
1.16596e-18
1.16825e-18
1.17025e-18
1.17953e-18
1.17965e-18
1.20544e-18
1.20582e-18
1.24895e-18
1.26816e-18
1.33505e-18
1.4047e-18
1.50258e-18
3.85499e-19
3.60431e-19
3.42902e-19
3.25491e-19
3.20858e-19
3.09696e-19
3.09837e-19
3.0308e-19
3.03178e-19
3.00764e-19
3.00297e-19
2.99678e-19
2.99159e-19
2.98976e-19
2.98516e-19
2.98521e-19
2.98209e-19
2.98264e-19
2.98065e-19
2.98126e-19
2.98007e-19
2.98053e-19
2.97987e-19
2.98011e-19
2.97988e-19
2.97986e-19
2.98009e-19
2.97984e-19
2.98049e-19
2.98001e-19
2.98121e-19
2.98061e-19
2.9826e-19
2.98205e-19
2.98521e-19
2.98518e-19
2.98977e-19
2.9916e-19
2.99679e-19
3.00288e-19
3.00748e-19
3.03165e-19
3.03062e-19
3.09816e-19
3.09674e-19
3.20835e-19
3.25467e-19
3.42877e-19
3.60415e-19
3.85456e-19
8.59162e-20
8.03681e-20
7.65556e-20
7.26375e-20
7.16751e-20
6.91768e-20
6.92599e-20
6.77298e-20
6.77809e-20
6.7236e-20
6.71446e-20
6.7001e-20
6.68888e-20
6.68459e-20
6.67468e-20
6.67464e-20
6.66791e-20
6.66905e-20
6.66474e-20
6.66604e-20
6.66347e-20
6.66444e-20
6.66302e-20
6.66353e-20
6.66304e-20
6.663e-20
6.66348e-20
6.66297e-20
6.66435e-20
6.66333e-20
6.66592e-20
6.66466e-20
6.66895e-20
6.66782e-20
6.67464e-20
6.67473e-20
6.68461e-20
6.6889e-20
6.70012e-20
6.71426e-20
6.72325e-20
6.77781e-20
6.77258e-20
6.92554e-20
6.91718e-20
7.167e-20
7.26323e-20
7.655e-20
8.03632e-20
8.59078e-20
1.60256e-20
1.4992e-20
1.42969e-20
1.35563e-20
1.33891e-20
1.29194e-20
1.29443e-20
1.26534e-20
1.26684e-20
1.25649e-20
1.25502e-20
1.25221e-20
1.2502e-20
1.24935e-20
1.24756e-20
1.24752e-20
1.24631e-20
1.2465e-20
1.24572e-20
1.24594e-20
1.24549e-20
1.24565e-20
1.2454e-20
1.24549e-20
1.2454e-20
1.24539e-20
1.24548e-20
1.24539e-20
1.24564e-20
1.24546e-20
1.24592e-20
1.24571e-20
1.24648e-20
1.24629e-20
1.24752e-20
1.24757e-20
1.24935e-20
1.2502e-20
1.25221e-20
1.25498e-20
1.25643e-20
1.26679e-20
1.26527e-20
1.29434e-20
1.29184e-20
1.33881e-20
1.35553e-20
1.42958e-20
1.4991e-20
1.60242e-20
2.34858e-21
2.19518e-21
2.09463e-21
1.9835e-21
1.96049e-21
1.89037e-21
1.89536e-21
1.85156e-21
1.85452e-21
1.83893e-21
1.83708e-21
1.83272e-21
1.82989e-21
1.82855e-21
1.82601e-21
1.82589e-21
1.82417e-21
1.8244e-21
1.8233e-21
1.8236e-21
1.82295e-21
1.82318e-21
1.82282e-21
1.82294e-21
1.82282e-21
1.82281e-21
1.82293e-21
1.82281e-21
1.82316e-21
1.82291e-21
1.82357e-21
1.82328e-21
1.82437e-21
1.82414e-21
1.82589e-21
1.82603e-21
1.82855e-21
1.8299e-21
1.83273e-21
1.83703e-21
1.83884e-21
1.85444e-21
1.85145e-21
1.89523e-21
1.89023e-21
1.96035e-21
1.98336e-21
2.09447e-21
2.19502e-21
2.34838e-21
2.5434e-22
2.37267e-22
2.26374e-22
2.13925e-22
2.11548e-22
2.03727e-22
2.04402e-22
1.9949e-22
1.99886e-22
1.98135e-22
1.97962e-22
1.97461e-22
1.97165e-22
1.97007e-22
1.96738e-22
1.96718e-22
1.96535e-22
1.96555e-22
1.96439e-22
1.96469e-22
1.964e-22
1.96423e-22
1.96386e-22
1.96398e-22
1.96385e-22
1.96384e-22
1.96396e-22
1.96384e-22
1.96421e-22
1.96396e-22
1.96465e-22
1.96437e-22
1.96552e-22
1.96532e-22
1.96718e-22
1.96739e-22
1.97007e-22
1.97166e-22
1.97462e-22
1.97957e-22
1.98125e-22
1.99878e-22
1.99477e-22
2.04388e-22
2.03712e-22
2.11533e-22
2.1391e-22
2.26357e-22
2.3725e-22
2.54319e-22
2.09916e-23
1.95432e-23
1.86402e-23
1.75822e-23
1.73911e-23
1.6729e-23
1.67922e-23
1.63749e-23
1.64122e-23
1.62629e-23
1.62505e-23
1.62069e-23
1.61833e-23
1.61691e-23
1.61474e-23
1.61451e-23
1.61303e-23
1.61316e-23
1.61222e-23
1.61244e-23
1.61189e-23
1.61207e-23
1.61177e-23
1.61186e-23
1.61176e-23
1.61175e-23
1.61185e-23
1.61175e-23
1.61205e-23
1.61186e-23
1.61241e-23
1.6122e-23
1.61314e-23
1.613e-23
1.61451e-23
1.61475e-23
1.61692e-23
1.61834e-23
1.6207e-23
1.625e-23
1.6262e-23
1.64115e-23
1.63739e-23
1.6791e-23
1.67278e-23
1.73899e-23
1.7581e-23
1.86387e-23
1.95417e-23
2.09898e-23
)
;

boundaryField
{
    fuel
    {
        type            fixedValue;
        value           nonuniform 0();
    }
    wall
    {
        type            zeroGradient;
    }
    outlet
    {
        type            zeroGradient;
    }
    frontAndBack
    {
        type            empty;
    }
    procBoundary3to2
    {
        type            processor;
        value           nonuniform List<scalar> 
51
(
3.85172e-12
3.84796e-12
3.84624e-12
3.84389e-12
3.84336e-12
3.84195e-12
3.84189e-12
3.84104e-12
3.84114e-12
3.84063e-12
3.84073e-12
3.84044e-12
3.8405e-12
3.84042e-12
3.84041e-12
3.8405e-12
3.84043e-12
3.84071e-12
3.84061e-12
3.84112e-12
3.84103e-12
3.84187e-12
3.84194e-12
3.84335e-12
3.84389e-12
3.84624e-12
3.84795e-12
3.85163e-12
3.85611e-12
3.86252e-12
3.87287e-12
3.88434e-12
3.90546e-12
3.92576e-12
3.96732e-12
4.01726e-12
4.07581e-12
4.16858e-12
4.22269e-12
3.62036e-12
3.57147e-12
3.48914e-12
3.43749e-12
3.39361e-12
3.3573e-12
3.33951e-12
3.3209e-12
3.31105e-12
3.30211e-12
3.29655e-12
3.29655e-12
)
;
    }
}


// ************************************************************************* //
