/*--------------------------------*- C++ -*----------------------------------*\
| =========                 |                                                 |
| \\      /  F ield         | OpenFOAM: The Open Source CFD Toolbox           |
|  \\    /   O peration     | Version:  dev                                   |
|   \\  /    A nd           | Web:      www.OpenFOAM.org                      |
|    \\/     M anipulation  |                                                 |
\*---------------------------------------------------------------------------*/
FoamFile
{
    version     2.0;
    format      ascii;
    class       volScalarField;
    location    "0.06";
    object      CH;
}
// * * * * * * * * * * * * * * * * * * * * * * * * * * * * * * * * * * * * * //

dimensions      [0 0 0 0 0 0 0];

internalField   nonuniform List<scalar> 
25
(
2.81709e-11
2.14001e-11
1.59335e-11
1.17944e-11
8.60413e-12
6.16861e-12
4.27058e-12
2.89539e-12
1.92195e-12
1.26567e-12
8.1472e-13
5.11158e-13
3.10906e-13
1.82249e-13
1.02191e-13
5.43609e-14
2.72617e-14
1.29081e-14
5.90195e-15
2.77844e-15
1.47574e-15
9.06842e-16
5.91334e-16
3.6754e-16
1.50068e-16
)
;

boundaryField
{
    wall
    {
        type            zeroGradient;
    }
    fuel
    {
        type            fixedValue;
        value           nonuniform 0();
    }
    outlet
    {
        type            inletOutlet;
        inletValue      uniform 0;
        value           uniform 0;
    }
    procBoundary3to2
    {
        type            processor;
        value           uniform 3.65344e-11;
    }
}


// ************************************************************************* //
