/*--------------------------------*- C++ -*----------------------------------*\
| =========                 |                                                 |
| \\      /  F ield         | OpenFOAM: The Open Source CFD Toolbox           |
|  \\    /   O peration     | Version:  dev                                   |
|   \\  /    A nd           | Web:      www.OpenFOAM.org                      |
|    \\/     M anipulation  |                                                 |
\*---------------------------------------------------------------------------*/
FoamFile
{
    version     2.0;
    format      ascii;
    class       volScalarField;
    location    "0.06";
    object      CO2;
}
// * * * * * * * * * * * * * * * * * * * * * * * * * * * * * * * * * * * * * //

dimensions      [0 0 0 0 0 0 0];

internalField   nonuniform List<scalar> 
1989
(
0.0488489
0.0488491
0.0488493
0.0488494
0.0488495
0.0488496
0.0488496
0.0488497
0.0488497
0.0488497
0.0488497
0.0488497
0.0488497
0.0488497
0.0488497
0.0488497
0.0488497
0.0488497
0.0488497
0.0488496
0.0488496
0.0488496
0.0488495
0.0488495
0.0488494
0.0488492
0.0488491
0.0488489
0.0488485
0.0488481
0.0488475
0.0488467
0.0488456
0.0488443
0.0488423
0.0488395
0.0488364
0.048832
0.0488292
0.0488453
0.0488478
0.0488517
0.0488545
0.048857
0.0488588
0.04886
0.048861
0.0488617
0.0488622
0.0488626
0.048863
0.0488632
0.0488633
0.0488634
0.0488635
0.0488636
0.0488636
0.0488636
0.0488637
0.0488637
0.0488637
0.0488637
0.0488637
0.0488637
0.0488637
0.0488637
0.0488637
0.0488637
0.0488637
0.0488636
0.0488636
0.0488636
0.0488636
0.0488635
0.0488634
0.0488633
0.0488631
0.0488629
0.0488626
0.0488623
0.0488617
0.048861
0.04886
0.0488588
0.048857
0.0488545
0.0488517
0.0488478
0.0488453
0.0488586
0.0488608
0.0488642
0.0488667
0.0488689
0.0488705
0.0488716
0.0488725
0.0488731
0.0488736
0.0488739
0.0488742
0.0488744
0.0488745
0.0488747
0.0488747
0.0488748
0.0488748
0.0488748
0.0488748
0.0488749
0.0488749
0.0488749
0.0488749
0.0488749
0.0488749
0.0488749
0.0488749
0.0488749
0.0488748
0.0488748
0.0488748
0.0488748
0.0488747
0.0488747
0.0488746
0.0488745
0.0488744
0.0488742
0.0488739
0.0488736
0.0488731
0.0488725
0.0488716
0.0488705
0.048869
0.0488667
0.0488642
0.0488608
0.0488586
0.0488691
0.0488711
0.0488741
0.0488762
0.0488781
0.0488794
0.0488804
0.0488812
0.0488817
0.0488822
0.0488825
0.0488828
0.048883
0.0488831
0.0488832
0.0488833
0.0488833
0.0488833
0.0488834
0.0488834
0.0488834
0.0488834
0.0488834
0.0488834
0.0488834
0.0488834
0.0488834
0.0488834
0.0488834
0.0488834
0.0488834
0.0488834
0.0488833
0.0488833
0.0488832
0.0488832
0.0488831
0.0488829
0.0488828
0.0488825
0.0488822
0.0488818
0.0488812
0.0488804
0.0488795
0.0488781
0.0488763
0.0488741
0.0488711
0.0488692
0.0488769
0.0488785
0.0488811
0.0488829
0.0488845
0.0488857
0.0488865
0.0488871
0.0488877
0.048888
0.0488883
0.0488886
0.0488887
0.0488889
0.0488889
0.048889
0.048889
0.0488891
0.0488891
0.0488891
0.0488891
0.0488891
0.0488891
0.0488891
0.0488891
0.0488891
0.0488891
0.0488891
0.0488891
0.0488891
0.0488891
0.0488891
0.0488891
0.048889
0.048889
0.0488889
0.0488888
0.0488887
0.0488886
0.0488884
0.0488881
0.0488877
0.0488872
0.0488865
0.0488857
0.0488845
0.0488829
0.0488811
0.0488785
0.0488769
0.0488819
0.0488833
0.0488854
0.048887
0.0488883
0.0488893
0.04889
0.0488905
0.048891
0.0488913
0.0488916
0.0488918
0.0488919
0.048892
0.0488921
0.0488922
0.0488922
0.0488922
0.0488922
0.0488923
0.0488923
0.0488923
0.0488923
0.0488923
0.0488923
0.0488923
0.0488923
0.0488923
0.0488923
0.0488923
0.0488922
0.0488922
0.0488922
0.0488922
0.0488921
0.0488921
0.048892
0.0488919
0.0488918
0.0488916
0.0488914
0.048891
0.0488906
0.04889
0.0488893
0.0488883
0.048887
0.0488854
0.0488833
0.048882
0.0488844
0.0488854
0.0488871
0.0488884
0.0488895
0.0488903
0.0488909
0.0488913
0.0488917
0.048892
0.0488922
0.0488924
0.0488925
0.0488926
0.0488927
0.0488927
0.0488927
0.0488928
0.0488928
0.0488928
0.0488928
0.0488928
0.0488928
0.0488928
0.0488928
0.0488928
0.0488928
0.0488928
0.0488928
0.0488928
0.0488928
0.0488928
0.0488927
0.0488927
0.0488927
0.0488926
0.0488926
0.0488925
0.0488924
0.0488922
0.048892
0.0488917
0.0488914
0.0488909
0.0488903
0.0488895
0.0488884
0.0488871
0.0488854
0.0488844
0.0488842
0.048885
0.0488862
0.0488873
0.0488882
0.0488888
0.0488893
0.0488896
0.04889
0.0488902
0.0488904
0.0488905
0.0488906
0.0488907
0.0488908
0.0488908
0.0488908
0.0488908
0.0488909
0.0488909
0.0488909
0.0488909
0.0488909
0.0488909
0.0488908
0.0488908
0.0488908
0.0488909
0.0488909
0.0488909
0.0488908
0.0488908
0.0488908
0.0488908
0.0488908
0.0488907
0.0488907
0.0488906
0.0488905
0.0488904
0.0488902
0.04889
0.0488896
0.0488893
0.0488888
0.0488882
0.0488873
0.0488863
0.048885
0.0488842
0.0488817
0.0488821
0.048883
0.0488837
0.0488845
0.0488849
0.0488853
0.0488855
0.0488858
0.048886
0.0488862
0.0488863
0.0488864
0.0488865
0.0488865
0.0488865
0.0488865
0.0488866
0.0488866
0.0488866
0.0488866
0.0488866
0.0488866
0.0488866
0.0488866
0.0488866
0.0488866
0.0488866
0.0488866
0.0488866
0.0488866
0.0488866
0.0488865
0.0488865
0.0488865
0.0488865
0.0488864
0.0488864
0.0488863
0.0488862
0.048886
0.0488859
0.0488856
0.0488853
0.0488849
0.0488845
0.0488838
0.048883
0.0488821
0.0488817
0.0488768
0.048877
0.0488774
0.0488779
0.0488785
0.0488787
0.048879
0.0488791
0.0488794
0.0488795
0.0488796
0.0488797
0.0488798
0.0488798
0.0488799
0.0488799
0.0488799
0.0488799
0.0488799
0.0488799
0.0488799
0.0488799
0.0488799
0.0488799
0.0488799
0.0488799
0.0488799
0.0488799
0.0488799
0.0488799
0.0488799
0.0488799
0.0488799
0.0488799
0.0488799
0.0488798
0.0488798
0.0488797
0.0488797
0.0488796
0.0488795
0.0488794
0.0488791
0.048879
0.0488787
0.0488785
0.048878
0.0488774
0.048877
0.0488768
0.0488697
0.0488696
0.0488697
0.04887
0.0488703
0.0488704
0.0488706
0.0488707
0.0488709
0.0488709
0.048871
0.0488711
0.0488712
0.0488712
0.0488712
0.0488713
0.0488713
0.0488713
0.0488713
0.0488713
0.0488713
0.0488713
0.0488713
0.0488713
0.0488712
0.0488712
0.0488712
0.0488713
0.0488713
0.0488713
0.0488713
0.0488713
0.0488713
0.0488712
0.0488712
0.0488712
0.0488712
0.0488711
0.0488711
0.048871
0.048871
0.0488709
0.0488707
0.0488706
0.0488704
0.0488704
0.04887
0.0488697
0.0488696
0.0488697
0.0488605
0.0488601
0.0488599
0.0488599
0.0488601
0.04886
0.0488602
0.0488602
0.0488603
0.0488604
0.0488605
0.0488605
0.0488606
0.0488606
0.0488606
0.0488606
0.0488606
0.0488606
0.0488606
0.0488606
0.0488606
0.0488606
0.0488606
0.0488606
0.0488606
0.0488606
0.0488606
0.0488606
0.0488606
0.0488606
0.0488606
0.0488606
0.0488606
0.0488606
0.0488606
0.0488606
0.0488606
0.0488605
0.0488605
0.0488605
0.0488604
0.0488604
0.0488602
0.0488602
0.0488601
0.0488602
0.0488599
0.0488599
0.0488601
0.0488605
0.0488491
0.0488485
0.0488479
0.0488478
0.0488479
0.0488477
0.0488479
0.0488479
0.048848
0.048848
0.048848
0.0488481
0.0488481
0.0488481
0.0488481
0.0488481
0.0488481
0.0488481
0.0488481
0.0488481
0.0488481
0.0488481
0.0488481
0.0488481
0.0488481
0.0488481
0.0488481
0.0488481
0.0488481
0.0488481
0.0488481
0.0488481
0.0488481
0.0488481
0.0488481
0.0488481
0.0488481
0.0488481
0.048848
0.048848
0.048848
0.048848
0.0488479
0.0488479
0.0488477
0.0488479
0.0488478
0.0488479
0.0488485
0.0488491
0.0488359
0.0488352
0.0488344
0.0488341
0.0488341
0.0488337
0.0488339
0.0488338
0.0488339
0.0488338
0.0488339
0.0488339
0.0488339
0.0488339
0.0488339
0.0488339
0.0488339
0.0488339
0.0488339
0.0488339
0.0488339
0.0488339
0.0488339
0.0488339
0.0488339
0.0488339
0.0488339
0.0488339
0.0488339
0.0488339
0.0488339
0.0488339
0.0488339
0.0488339
0.0488339
0.0488339
0.0488339
0.0488339
0.0488339
0.0488339
0.0488339
0.0488339
0.0488338
0.0488339
0.0488337
0.0488341
0.0488341
0.0488344
0.0488352
0.0488358
0.0488212
0.0488203
0.0488192
0.0488188
0.0488186
0.0488182
0.0488183
0.0488181
0.0488182
0.0488181
0.0488181
0.0488181
0.0488181
0.0488181
0.0488181
0.0488181
0.0488181
0.0488181
0.0488181
0.0488181
0.0488181
0.0488181
0.0488181
0.0488181
0.0488181
0.048818
0.0488181
0.0488181
0.0488181
0.0488181
0.0488181
0.0488181
0.0488181
0.0488181
0.0488181
0.0488181
0.0488181
0.0488181
0.0488181
0.0488181
0.0488181
0.0488182
0.0488181
0.0488183
0.0488182
0.0488186
0.0488188
0.0488192
0.0488203
0.0488211
0.0488049
0.0488038
0.0488026
0.0488019
0.0488017
0.0488012
0.0488012
0.048801
0.048801
0.0488009
0.0488009
0.0488009
0.0488009
0.0488009
0.0488009
0.0488009
0.0488009
0.0488009
0.0488008
0.0488009
0.0488008
0.0488008
0.0488008
0.0488008
0.0488008
0.0488008
0.0488008
0.0488008
0.0488008
0.0488008
0.0488008
0.0488008
0.0488008
0.0488008
0.0488009
0.0488008
0.0488009
0.0488008
0.0488009
0.0488009
0.0488009
0.048801
0.048801
0.0488012
0.0488012
0.0488017
0.0488019
0.0488025
0.0488038
0.0488049
0.0487872
0.048786
0.0487845
0.0487837
0.0487834
0.0487828
0.0487828
0.0487825
0.0487825
0.0487824
0.0487824
0.0487824
0.0487823
0.0487823
0.0487823
0.0487823
0.0487823
0.0487823
0.0487823
0.0487823
0.0487823
0.0487823
0.0487822
0.0487822
0.0487822
0.0487822
0.0487822
0.0487822
0.0487822
0.0487822
0.0487823
0.0487823
0.0487823
0.0487823
0.0487823
0.0487823
0.0487823
0.0487823
0.0487824
0.0487824
0.0487824
0.0487825
0.0487825
0.0487828
0.0487828
0.0487834
0.0487837
0.0487845
0.0487859
0.0487872
0.0487683
0.0487668
0.0487652
0.0487643
0.048764
0.0487632
0.0487632
0.0487629
0.0487629
0.0487628
0.0487627
0.0487627
0.0487626
0.0487626
0.0487626
0.0487626
0.0487626
0.0487626
0.0487625
0.0487625
0.0487625
0.0487625
0.0487625
0.0487625
0.0487625
0.0487625
0.0487625
0.0487625
0.0487625
0.0487625
0.0487625
0.0487625
0.0487625
0.0487625
0.0487626
0.0487625
0.0487626
0.0487626
0.0487626
0.0487627
0.0487627
0.0487629
0.0487629
0.0487632
0.0487632
0.048764
0.0487643
0.0487652
0.0487668
0.0487683
0.0487481
0.0487464
0.0487447
0.0487437
0.0487432
0.0487424
0.0487424
0.0487419
0.0487419
0.0487418
0.0487417
0.0487417
0.0487416
0.0487416
0.0487416
0.0487416
0.0487415
0.0487415
0.0487415
0.0487415
0.0487415
0.0487415
0.0487414
0.0487414
0.0487414
0.0487414
0.0487414
0.0487414
0.0487415
0.0487415
0.0487415
0.0487415
0.0487415
0.0487415
0.0487415
0.0487415
0.0487416
0.0487416
0.0487416
0.0487417
0.0487418
0.0487419
0.0487419
0.0487424
0.0487424
0.0487432
0.0487436
0.0487447
0.0487464
0.0487481
0.048727
0.0487252
0.0487233
0.0487222
0.0487217
0.0487208
0.0487208
0.0487203
0.0487203
0.0487201
0.0487201
0.04872
0.0487199
0.0487199
0.0487198
0.0487198
0.0487198
0.0487198
0.0487198
0.0487198
0.0487197
0.0487197
0.0487197
0.0487197
0.0487197
0.0487197
0.0487197
0.0487197
0.0487197
0.0487197
0.0487198
0.0487198
0.0487198
0.0487198
0.0487198
0.0487198
0.0487199
0.0487199
0.04872
0.04872
0.0487201
0.0487203
0.0487203
0.0487208
0.0487208
0.0487217
0.0487222
0.0487233
0.0487251
0.048727
0.048705
0.048703
0.0487011
0.0486999
0.0486993
0.0486984
0.0486984
0.0486979
0.0486978
0.0486976
0.0486976
0.0486975
0.0486974
0.0486974
0.0486973
0.0486973
0.0486973
0.0486973
0.0486972
0.0486972
0.0486972
0.0486972
0.0486972
0.0486972
0.0486972
0.0486972
0.0486972
0.0486972
0.0486972
0.0486972
0.0486972
0.0486972
0.0486973
0.0486973
0.0486973
0.0486973
0.0486973
0.0486973
0.0486975
0.0486976
0.0486976
0.0486978
0.0486978
0.0486983
0.0486984
0.0486993
0.0486999
0.0487011
0.048703
0.048705
0.0486823
0.0486801
0.0486782
0.0486768
0.0486762
0.0486752
0.0486752
0.0486746
0.0486746
0.0486744
0.0486743
0.0486742
0.0486741
0.048674
0.048674
0.048674
0.0486739
0.0486739
0.0486739
0.0486739
0.0486739
0.0486739
0.0486738
0.0486738
0.0486738
0.0486738
0.0486738
0.0486738
0.0486738
0.0486739
0.0486739
0.0486739
0.0486739
0.0486739
0.048674
0.048674
0.048674
0.048674
0.0486742
0.0486743
0.0486743
0.0486745
0.0486746
0.0486751
0.0486752
0.0486762
0.0486768
0.0486781
0.0486801
0.0486822
0.0486589
0.0486566
0.0486546
0.0486532
0.0486526
0.0486516
0.0486515
0.0486509
0.0486508
0.0486506
0.0486506
0.0486505
0.0486503
0.0486503
0.0486502
0.0486502
0.0486502
0.0486502
0.0486501
0.0486501
0.0486501
0.0486501
0.04865
0.04865
0.04865
0.04865
0.04865
0.04865
0.0486501
0.0486501
0.0486501
0.0486501
0.0486501
0.0486501
0.0486502
0.0486502
0.0486502
0.0486503
0.0486504
0.0486505
0.0486506
0.0486508
0.0486509
0.0486514
0.0486515
0.0486526
0.0486532
0.0486546
0.0486566
0.0486588
0.0486349
0.0486325
0.0486304
0.0486289
0.0486283
0.0486272
0.0486271
0.0486265
0.0486264
0.0486262
0.0486261
0.0486261
0.0486261
0.048626
0.048626
0.048626
0.0486259
0.0486259
0.0486259
0.0486259
0.0486258
0.0486258
0.0486258
0.0486258
0.0486258
0.0486258
0.0486258
0.0486258
0.0486258
0.0486258
0.0486259
0.0486259
0.0486259
0.0486259
0.0486259
0.0486259
0.048626
0.048626
0.048626
0.0486261
0.0486262
0.0486264
0.0486265
0.0486271
0.0486272
0.0486282
0.0486289
0.0486304
0.0486325
0.0486349
0.0486105
0.0486081
0.048606
0.0486044
0.0486038
0.0486027
0.0486025
0.0486019
0.0486019
0.0486016
0.0486016
0.0486015
0.0486015
0.0486015
0.0486014
0.0486014
0.0486013
0.0486013
0.0486013
0.0486013
0.0486012
0.0486012
0.0486012
0.0486012
0.0486012
0.0486012
0.0486012
0.0486012
0.0486012
0.0486012
0.0486012
0.0486013
0.0486013
0.0486013
0.0486013
0.0486014
0.0486014
0.0486014
0.0486015
0.0486015
0.0486016
0.0486018
0.0486019
0.0486025
0.0486026
0.0486037
0.0486044
0.0486059
0.0486081
0.0486105
0.0485859
0.0485834
0.0485812
0.0485796
0.048579
0.0485778
0.0485777
0.048577
0.048577
0.0485767
0.0485767
0.0485766
0.0485766
0.0485765
0.0485765
0.0485764
0.0485764
0.0485764
0.0485763
0.0485763
0.0485763
0.0485763
0.0485762
0.0485762
0.0485762
0.0485762
0.0485762
0.0485762
0.0485763
0.0485763
0.0485763
0.0485763
0.0485763
0.0485764
0.0485764
0.0485764
0.0485765
0.0485765
0.0485765
0.0485766
0.0485767
0.048577
0.048577
0.0485777
0.0485778
0.0485789
0.0485796
0.0485812
0.0485833
0.0485858
0.0485607
0.0485581
0.048556
0.0485543
0.0485537
0.0485525
0.0485524
0.0485517
0.0485517
0.0485514
0.0485513
0.0485513
0.0485512
0.0485512
0.0485511
0.0485511
0.048551
0.048551
0.048551
0.0485509
0.0485509
0.0485509
0.0485509
0.0485508
0.0485508
0.0485508
0.0485508
0.0485509
0.0485509
0.0485509
0.0485509
0.0485509
0.048551
0.048551
0.048551
0.0485511
0.0485511
0.0485512
0.0485512
0.0485513
0.0485514
0.0485516
0.0485517
0.0485523
0.0485525
0.0485536
0.0485543
0.0485559
0.048558
0.0485606
0.0485352
0.0485327
0.0485306
0.0485289
0.0485282
0.0485271
0.048527
0.0485263
0.0485262
0.048526
0.0485259
0.0485258
0.0485258
0.0485257
0.0485257
0.0485256
0.0485256
0.0485256
0.0485255
0.0485255
0.0485255
0.0485254
0.0485254
0.0485254
0.0485254
0.0485254
0.0485254
0.0485254
0.0485254
0.0485255
0.0485255
0.0485255
0.0485255
0.0485256
0.0485256
0.0485256
0.0485257
0.0485257
0.0485258
0.0485259
0.048526
0.0485262
0.0485263
0.0485269
0.0485271
0.0485282
0.0485289
0.0485305
0.0485326
0.0485352
0.0485102
0.0485076
0.0485055
0.0485039
0.0485032
0.0485021
0.0485019
0.0485013
0.0485012
0.048501
0.0485009
0.0485008
0.0485007
0.0485007
0.0485006
0.0485006
0.0485005
0.0485005
0.0485005
0.0485005
0.0485004
0.0485004
0.0485004
0.0485003
0.0485003
0.0485003
0.0485003
0.0485003
0.0485004
0.0485004
0.0485004
0.0485004
0.0485005
0.0485005
0.0485006
0.0485006
0.0485007
0.0485007
0.0485008
0.0485008
0.0485009
0.0485012
0.0485013
0.0485019
0.0485021
0.0485032
0.0485039
0.0485055
0.0485076
0.0485101
0.0484853
0.0484827
0.0484807
0.048479
0.0484783
0.0484772
0.0484771
0.0484764
0.0484764
0.0484761
0.048476
0.0484759
0.0484759
0.0484758
0.0484757
0.0484757
0.0484756
0.0484756
0.0484756
0.0484756
0.0484755
0.0484755
0.0484755
0.0484754
0.0484754
0.0484754
0.0484754
0.0484754
0.0484755
0.0484755
0.0484755
0.0484755
0.0484756
0.0484756
0.0484757
0.0484757
0.0484758
0.0484758
0.0484759
0.048476
0.0484761
0.0484763
0.0484764
0.048477
0.0484772
0.0484783
0.048479
0.0484806
0.0484827
0.0484852
0.0484606
0.0484581
0.0484561
0.0484544
0.0484537
0.0484527
0.0484525
0.0484518
0.0484518
0.0484515
0.0484514
0.0484513
0.0484513
0.0484512
0.0484511
0.0484511
0.048451
0.048451
0.048451
0.0484509
0.0484509
0.0484509
0.0484508
0.0484508
0.0484508
0.0484508
0.0484508
0.0484508
0.0484509
0.0484509
0.0484509
0.0484509
0.048451
0.048451
0.0484511
0.0484511
0.0484512
0.0484512
0.0484513
0.0484514
0.0484515
0.0484517
0.0484518
0.0484524
0.0484526
0.0484537
0.0484544
0.048456
0.048458
0.0484606
0.0484362
0.0484336
0.0484317
0.0484301
0.0484294
0.0484283
0.0484282
0.0484275
0.0484274
0.0484272
0.0484271
0.048427
0.0484269
0.0484269
0.0484268
0.0484268
0.0484267
0.0484267
0.0484266
0.0484266
0.0484266
0.0484265
0.0484265
0.0484265
0.0484265
0.0484265
0.0484265
0.0484265
0.0484265
0.0484265
0.0484266
0.0484266
0.0484266
0.0484267
0.0484267
0.0484268
0.0484268
0.0484269
0.048427
0.0484271
0.0484271
0.0484274
0.0484275
0.0484281
0.0484283
0.0484293
0.04843
0.0484316
0.0484336
0.0484361
0.0484121
0.0484097
0.048408
0.0484064
0.0484058
0.0484048
0.0484046
0.0484039
0.0484039
0.0484036
0.0484035
0.0484034
0.0484033
0.0484033
0.0484032
0.0484032
0.0484031
0.0484031
0.048403
0.048403
0.0484029
0.0484029
0.0484029
0.0484029
0.0484028
0.0484028
0.0484029
0.0484029
0.0484029
0.0484029
0.048403
0.048403
0.048403
0.0484031
0.0484031
0.0484032
0.0484032
0.0484033
0.0484034
0.0484035
0.0484036
0.0484038
0.0484039
0.0484045
0.0484047
0.0484057
0.0484064
0.048408
0.0484097
0.0484121
0.0483891
0.0483868
0.0483851
0.0483836
0.0483829
0.0483819
0.0483817
0.0483811
0.048381
0.0483808
0.0483807
0.0483806
0.0483805
0.0483804
0.0483803
0.0483803
0.0483802
0.0483802
0.0483802
0.0483801
0.0483801
0.0483801
0.04838
0.04838
0.04838
0.04838
0.04838
0.04838
0.04838
0.0483801
0.0483801
0.0483801
0.0483802
0.0483802
0.0483803
0.0483803
0.0483804
0.0483804
0.0483805
0.0483806
0.0483807
0.048381
0.0483811
0.0483817
0.0483819
0.0483828
0.0483835
0.0483851
0.0483867
0.0483891
0.0483671
0.0483649
0.0483633
0.0483618
0.0483611
0.0483601
0.0483599
0.0483594
0.0483593
0.048359
0.0483589
0.0483588
0.0483587
0.0483587
0.0483586
0.0483585
0.0483585
0.0483584
0.0483584
0.0483584
0.0483583
0.0483583
0.0483582
0.0483582
0.0483582
0.0483582
0.0483582
0.0483582
0.0483583
0.0483583
0.0483583
0.0483584
0.0483584
0.0483584
0.0483585
0.0483585
0.0483586
0.0483587
0.0483588
0.0483589
0.048359
0.0483592
0.0483593
0.0483599
0.0483601
0.048361
0.0483617
0.0483632
0.0483648
0.0483671
0.0483465
0.0483443
0.0483427
0.0483413
0.0483406
0.0483397
0.0483395
0.0483389
0.0483388
0.0483386
0.0483385
0.0483384
0.0483383
0.0483382
0.0483382
0.0483381
0.048338
0.048338
0.048338
0.0483379
0.0483379
0.0483378
0.0483378
0.0483378
0.0483378
0.0483378
0.0483378
0.0483378
0.0483378
0.0483379
0.0483379
0.0483379
0.048338
0.048338
0.0483381
0.0483381
0.0483382
0.0483383
0.0483383
0.0483385
0.0483386
0.0483388
0.0483389
0.0483394
0.0483397
0.0483405
0.0483412
0.0483427
0.0483443
0.0483464
0.0483276
0.0483255
0.048324
0.0483226
0.0483219
0.0483211
0.0483208
0.0483203
0.0483202
0.04832
0.0483199
0.0483197
0.0483197
0.0483196
0.0483195
0.0483195
0.0483194
0.0483194
0.0483193
0.0483193
0.0483192
0.0483192
0.0483192
0.0483191
0.0483191
0.0483191
0.0483191
0.0483191
0.0483192
0.0483192
0.0483192
0.0483193
0.0483193
0.0483194
0.0483194
0.0483195
0.0483195
0.0483196
0.0483197
0.0483198
0.0483199
0.0483201
0.0483203
0.0483208
0.048321
0.0483218
0.0483225
0.0483239
0.0483254
0.0483275
0.0483111
0.0483091
0.0483076
0.0483062
0.0483056
0.0483048
0.0483045
0.048304
0.0483039
0.0483037
0.0483036
0.0483035
0.0483034
0.0483033
0.0483032
0.0483032
0.0483031
0.0483031
0.048303
0.048303
0.0483029
0.0483029
0.0483029
0.0483028
0.0483028
0.0483028
0.0483028
0.0483028
0.0483029
0.0483029
0.048303
0.048303
0.048303
0.0483031
0.0483031
0.0483032
0.0483033
0.0483033
0.0483034
0.0483035
0.0483036
0.0483039
0.048304
0.0483045
0.0483047
0.0483055
0.0483062
0.0483075
0.048309
0.048311
0.0482978
0.0482959
0.0482944
0.0482932
0.0482925
0.0482918
0.0482915
0.048291
0.0482909
0.0482907
0.0482906
0.0482904
0.0482904
0.0482903
0.0482902
0.0482902
0.0482901
0.04829
0.04829
0.04829
0.0482899
0.0482899
0.0482898
0.0482898
0.0482898
0.0482898
0.0482898
0.0482898
0.0482899
0.0482899
0.0482899
0.04829
0.04829
0.0482901
0.0482901
0.0482902
0.0482902
0.0482903
0.0482904
0.0482905
0.0482906
0.0482908
0.048291
0.0482914
0.0482917
0.0482924
0.0482931
0.0482944
0.0482958
0.0482977
0.0482894
0.0482876
0.0482861
0.0482849
0.0482843
0.0482836
0.0482833
0.0482828
0.0482827
0.0482825
0.0482824
0.0482823
0.0482822
0.0482821
0.048282
0.048282
0.0482819
0.0482819
0.0482818
0.0482818
0.0482817
0.0482817
0.0482816
0.0482816
0.0482816
0.0482816
0.0482816
0.0482816
0.0482817
0.0482817
0.0482817
0.0482818
0.0482818
0.0482819
0.0482819
0.048282
0.048282
0.0482821
0.0482822
0.0482823
0.0482824
0.0482826
0.0482828
0.0482832
0.0482835
0.0482842
0.0482849
0.0482861
0.0482875
0.0482894
)
;

boundaryField
{
    fuel
    {
        type            fixedValue;
        value           nonuniform 0();
    }
    wall
    {
        type            zeroGradient;
    }
    outlet
    {
        type            zeroGradient;
    }
    frontAndBack
    {
        type            empty;
    }
    procBoundary3to2
    {
        type            processor;
        value           nonuniform List<scalar> 
51
(
0.0488321
0.0488324
0.0488325
0.0488327
0.0488328
0.0488328
0.0488329
0.0488329
0.0488329
0.048833
0.048833
0.048833
0.048833
0.048833
0.048833
0.048833
0.048833
0.048833
0.048833
0.0488329
0.0488329
0.0488329
0.0488328
0.0488327
0.0488326
0.0488325
0.0488323
0.0488321
0.0488317
0.0488313
0.0488306
0.0488297
0.0488285
0.048827
0.0488248
0.0488217
0.0488183
0.0488135
0.0488104
0.0488293
0.0488321
0.0488364
0.0488396
0.0488423
0.0488443
0.0488457
0.0488468
0.0488475
0.0488481
0.0488486
0.0488486
)
;
    }
}


// ************************************************************************* //
