/*--------------------------------*- C++ -*----------------------------------*\
| =========                 |                                                 |
| \\      /  F ield         | OpenFOAM: The Open Source CFD Toolbox           |
|  \\    /   O peration     | Version:  dev                                   |
|   \\  /    A nd           | Web:      www.OpenFOAM.org                      |
|    \\/     M anipulation  |                                                 |
\*---------------------------------------------------------------------------*/
FoamFile
{
    version     2.0;
    format      ascii;
    class       volScalarField;
    location    "0.06";
    object      HCCOH;
}
// * * * * * * * * * * * * * * * * * * * * * * * * * * * * * * * * * * * * * //

dimensions      [0 0 0 0 0 0 0];

internalField   nonuniform List<scalar> 
1989
(
1.87849e-06
1.87781e-06
1.87751e-06
1.87709e-06
1.877e-06
1.87674e-06
1.87673e-06
1.87657e-06
1.87659e-06
1.87649e-06
1.87651e-06
1.87646e-06
1.87647e-06
1.87645e-06
1.87645e-06
1.87647e-06
1.87646e-06
1.87651e-06
1.87649e-06
1.87658e-06
1.87656e-06
1.87672e-06
1.87673e-06
1.87699e-06
1.87708e-06
1.87751e-06
1.8778e-06
1.87846e-06
1.87926e-06
1.88043e-06
1.88231e-06
1.88435e-06
1.88831e-06
1.89203e-06
1.89973e-06
1.90892e-06
1.91978e-06
1.93684e-06
1.94719e-06
1.82755e-06
1.81725e-06
1.80051e-06
1.78996e-06
1.781e-06
1.77357e-06
1.76995e-06
1.76608e-06
1.76412e-06
1.76234e-06
1.76123e-06
1.76052e-06
1.75987e-06
1.7596e-06
1.75919e-06
1.75912e-06
1.75887e-06
1.75886e-06
1.75871e-06
1.75873e-06
1.75864e-06
1.75866e-06
1.75861e-06
1.75862e-06
1.7586e-06
1.7586e-06
1.75862e-06
1.75861e-06
1.75866e-06
1.75864e-06
1.75873e-06
1.75871e-06
1.75886e-06
1.75886e-06
1.75911e-06
1.75919e-06
1.75959e-06
1.75986e-06
1.76048e-06
1.76123e-06
1.76234e-06
1.76412e-06
1.76607e-06
1.76994e-06
1.77356e-06
1.78099e-06
1.78996e-06
1.80049e-06
1.81724e-06
1.82754e-06
1.70998e-06
1.69976e-06
1.68337e-06
1.67329e-06
1.66456e-06
1.65737e-06
1.65387e-06
1.6501e-06
1.64821e-06
1.64655e-06
1.64552e-06
1.64487e-06
1.64426e-06
1.64402e-06
1.64364e-06
1.64358e-06
1.64334e-06
1.64335e-06
1.6432e-06
1.64323e-06
1.64314e-06
1.64316e-06
1.64311e-06
1.64312e-06
1.6431e-06
1.6431e-06
1.64312e-06
1.64311e-06
1.64315e-06
1.64313e-06
1.64322e-06
1.6432e-06
1.64334e-06
1.64334e-06
1.64357e-06
1.64364e-06
1.64402e-06
1.64425e-06
1.64483e-06
1.64552e-06
1.64657e-06
1.64822e-06
1.65008e-06
1.65385e-06
1.65736e-06
1.66455e-06
1.67328e-06
1.68336e-06
1.69975e-06
1.70997e-06
1.5938e-06
1.58351e-06
1.56742e-06
1.55784e-06
1.55081e-06
1.54384e-06
1.54048e-06
1.5368e-06
1.53493e-06
1.53301e-06
1.53187e-06
1.53101e-06
1.53034e-06
1.53004e-06
1.52961e-06
1.52951e-06
1.52924e-06
1.52922e-06
1.52906e-06
1.52907e-06
1.52898e-06
1.529e-06
1.52895e-06
1.52896e-06
1.52894e-06
1.52894e-06
1.52896e-06
1.52895e-06
1.52899e-06
1.52898e-06
1.52907e-06
1.52906e-06
1.52922e-06
1.52924e-06
1.52951e-06
1.52961e-06
1.53004e-06
1.53034e-06
1.53099e-06
1.53182e-06
1.53297e-06
1.5349e-06
1.53679e-06
1.54046e-06
1.54383e-06
1.55079e-06
1.55783e-06
1.5674e-06
1.5835e-06
1.59379e-06
1.4815e-06
1.47132e-06
1.45575e-06
1.44679e-06
1.4401e-06
1.4334e-06
1.43019e-06
1.42663e-06
1.42485e-06
1.42305e-06
1.42198e-06
1.42118e-06
1.42056e-06
1.42028e-06
1.41988e-06
1.41979e-06
1.41954e-06
1.41952e-06
1.41937e-06
1.41939e-06
1.4193e-06
1.41931e-06
1.41927e-06
1.41928e-06
1.41926e-06
1.41926e-06
1.41928e-06
1.41926e-06
1.41931e-06
1.41929e-06
1.41938e-06
1.41937e-06
1.41952e-06
1.41954e-06
1.41979e-06
1.41988e-06
1.42028e-06
1.42056e-06
1.42116e-06
1.42193e-06
1.42303e-06
1.42482e-06
1.42661e-06
1.43017e-06
1.43338e-06
1.44009e-06
1.44678e-06
1.45574e-06
1.4713e-06
1.48149e-06
1.37189e-06
1.36245e-06
1.34742e-06
1.33759e-06
1.33113e-06
1.32463e-06
1.32152e-06
1.31805e-06
1.31635e-06
1.31465e-06
1.31364e-06
1.31289e-06
1.3123e-06
1.31204e-06
1.31166e-06
1.31158e-06
1.31135e-06
1.31134e-06
1.31119e-06
1.31121e-06
1.31112e-06
1.31114e-06
1.31109e-06
1.3111e-06
1.31109e-06
1.31109e-06
1.3111e-06
1.31109e-06
1.31114e-06
1.31112e-06
1.3112e-06
1.31119e-06
1.31133e-06
1.31134e-06
1.31158e-06
1.31166e-06
1.31204e-06
1.3123e-06
1.31287e-06
1.3136e-06
1.31463e-06
1.31633e-06
1.31803e-06
1.3215e-06
1.32461e-06
1.33111e-06
1.33758e-06
1.34741e-06
1.36243e-06
1.37188e-06
1.26648e-06
1.25733e-06
1.24286e-06
1.23367e-06
1.22763e-06
1.22145e-06
1.21852e-06
1.21518e-06
1.21361e-06
1.21202e-06
1.21109e-06
1.2104e-06
1.20984e-06
1.20961e-06
1.20926e-06
1.20919e-06
1.20897e-06
1.20896e-06
1.20882e-06
1.20884e-06
1.20876e-06
1.20878e-06
1.20873e-06
1.20874e-06
1.20873e-06
1.20873e-06
1.20874e-06
1.20873e-06
1.20877e-06
1.20875e-06
1.20884e-06
1.20882e-06
1.20896e-06
1.20896e-06
1.20919e-06
1.20926e-06
1.20961e-06
1.20984e-06
1.21037e-06
1.21105e-06
1.21201e-06
1.2136e-06
1.21516e-06
1.2185e-06
1.22143e-06
1.22761e-06
1.23365e-06
1.24285e-06
1.25732e-06
1.26646e-06
1.16512e-06
1.15627e-06
1.1426e-06
1.13392e-06
1.12834e-06
1.12251e-06
1.11976e-06
1.11658e-06
1.11514e-06
1.11366e-06
1.1128e-06
1.11217e-06
1.11166e-06
1.11145e-06
1.11112e-06
1.11106e-06
1.11085e-06
1.11085e-06
1.11072e-06
1.11074e-06
1.11066e-06
1.11068e-06
1.11064e-06
1.11065e-06
1.11064e-06
1.11063e-06
1.11065e-06
1.11064e-06
1.11068e-06
1.11066e-06
1.11073e-06
1.11072e-06
1.11084e-06
1.11085e-06
1.11106e-06
1.11112e-06
1.11145e-06
1.11165e-06
1.11214e-06
1.11278e-06
1.11365e-06
1.11513e-06
1.11656e-06
1.11974e-06
1.1225e-06
1.12833e-06
1.13391e-06
1.14259e-06
1.15626e-06
1.16511e-06
1.06801e-06
1.05906e-06
1.046e-06
1.03874e-06
1.03367e-06
1.02822e-06
1.02565e-06
1.02263e-06
1.02133e-06
1.01996e-06
1.01918e-06
1.0186e-06
1.01813e-06
1.01794e-06
1.01764e-06
1.01759e-06
1.01739e-06
1.01739e-06
1.01727e-06
1.01729e-06
1.01722e-06
1.01724e-06
1.0172e-06
1.01721e-06
1.0172e-06
1.0172e-06
1.01721e-06
1.0172e-06
1.01724e-06
1.01722e-06
1.01729e-06
1.01727e-06
1.01739e-06
1.01739e-06
1.01758e-06
1.01763e-06
1.01794e-06
1.01812e-06
1.01858e-06
1.01916e-06
1.01995e-06
1.02133e-06
1.02261e-06
1.02563e-06
1.02821e-06
1.03365e-06
1.03873e-06
1.04599e-06
1.05904e-06
1.068e-06
9.75999e-07
9.67389e-07
9.55312e-07
9.48516e-07
9.43345e-07
9.37997e-07
9.35404e-07
9.32415e-07
9.31181e-07
9.29878e-07
9.29118e-07
9.28555e-07
9.28103e-07
9.27923e-07
9.27632e-07
9.27583e-07
9.27398e-07
9.27399e-07
9.27285e-07
9.27301e-07
9.27234e-07
9.2725e-07
9.27214e-07
9.27224e-07
9.27212e-07
9.27212e-07
9.27223e-07
9.27212e-07
9.27248e-07
9.27231e-07
9.27298e-07
9.27282e-07
9.27396e-07
9.27396e-07
9.27581e-07
9.27632e-07
9.27923e-07
9.281e-07
9.28535e-07
9.291e-07
9.29858e-07
9.31177e-07
9.32401e-07
9.35387e-07
9.37982e-07
9.43332e-07
9.48506e-07
9.55303e-07
9.67375e-07
9.75984e-07
8.89238e-07
8.81018e-07
8.69912e-07
8.63617e-07
8.58953e-07
8.54028e-07
8.51583e-07
8.48747e-07
8.47648e-07
8.46459e-07
8.45769e-07
8.45258e-07
8.44844e-07
8.44685e-07
8.44418e-07
8.44376e-07
8.44207e-07
8.4421e-07
8.44104e-07
8.44122e-07
8.44059e-07
8.44075e-07
8.44041e-07
8.44051e-07
8.4404e-07
8.4404e-07
8.4405e-07
8.4404e-07
8.44073e-07
8.44056e-07
8.44119e-07
8.44102e-07
8.44207e-07
8.44205e-07
8.44375e-07
8.44417e-07
8.44684e-07
8.44841e-07
8.45241e-07
8.45753e-07
8.46443e-07
8.47643e-07
8.48734e-07
8.51568e-07
8.54015e-07
8.58941e-07
8.63608e-07
8.69904e-07
8.81005e-07
8.89225e-07
8.08069e-07
8.00271e-07
7.90105e-07
7.84148e-07
7.79833e-07
7.75218e-07
7.72829e-07
7.70681e-07
7.69714e-07
7.68637e-07
7.68015e-07
7.67554e-07
7.67177e-07
7.67038e-07
7.66795e-07
7.66761e-07
7.66606e-07
7.66611e-07
7.66514e-07
7.66531e-07
7.66474e-07
7.6649e-07
7.66458e-07
7.66468e-07
7.66458e-07
7.66457e-07
7.66467e-07
7.66457e-07
7.66488e-07
7.66471e-07
7.66529e-07
7.66512e-07
7.66608e-07
7.66603e-07
7.66759e-07
7.66794e-07
7.67037e-07
7.67175e-07
7.67539e-07
7.68002e-07
7.68624e-07
7.69709e-07
7.7067e-07
7.72815e-07
7.75205e-07
7.79821e-07
7.84139e-07
7.90097e-07
8.00259e-07
8.08057e-07
7.31423e-07
7.24067e-07
7.14874e-07
7.09508e-07
7.05677e-07
7.01548e-07
7.00432e-07
6.9846e-07
6.97617e-07
6.96649e-07
6.96092e-07
6.95681e-07
6.95339e-07
6.95218e-07
6.94999e-07
6.94971e-07
6.94831e-07
6.94837e-07
6.94749e-07
6.94766e-07
6.94714e-07
6.94729e-07
6.94701e-07
6.9471e-07
6.947e-07
6.947e-07
6.94709e-07
6.94699e-07
6.94727e-07
6.94711e-07
6.94764e-07
6.94747e-07
6.94835e-07
6.94828e-07
6.9497e-07
6.94998e-07
6.95217e-07
6.95337e-07
6.95666e-07
6.96082e-07
6.96637e-07
6.97612e-07
6.9845e-07
7.00421e-07
7.01536e-07
7.05666e-07
7.095e-07
7.14867e-07
7.24057e-07
7.31411e-07
6.60881e-07
6.55223e-07
6.46897e-07
6.42113e-07
6.38745e-07
6.35053e-07
6.34052e-07
6.32259e-07
6.31532e-07
6.3067e-07
6.30176e-07
6.29811e-07
6.29505e-07
6.29401e-07
6.29204e-07
6.29182e-07
6.29056e-07
6.29064e-07
6.28985e-07
6.29001e-07
6.28954e-07
6.28969e-07
6.28943e-07
6.28951e-07
6.28943e-07
6.28942e-07
6.2895e-07
6.28942e-07
6.28967e-07
6.28952e-07
6.28999e-07
6.28983e-07
6.29062e-07
6.29054e-07
6.29181e-07
6.29204e-07
6.294e-07
6.29503e-07
6.29798e-07
6.30169e-07
6.30659e-07
6.31528e-07
6.3225e-07
6.34042e-07
6.35042e-07
6.38736e-07
6.42106e-07
6.46891e-07
6.55214e-07
6.60871e-07
5.97722e-07
5.92524e-07
5.85133e-07
5.80883e-07
5.77955e-07
5.74683e-07
5.738e-07
5.72187e-07
5.71568e-07
5.70805e-07
5.70376e-07
5.70052e-07
5.69781e-07
5.69691e-07
5.69517e-07
5.695e-07
5.69388e-07
5.69397e-07
5.69327e-07
5.69342e-07
5.693e-07
5.69313e-07
5.6929e-07
5.69298e-07
5.6929e-07
5.6929e-07
5.69297e-07
5.69289e-07
5.69312e-07
5.69298e-07
5.6934e-07
5.69325e-07
5.69395e-07
5.69386e-07
5.69499e-07
5.69517e-07
5.6969e-07
5.69778e-07
5.7004e-07
5.70369e-07
5.70796e-07
5.71565e-07
5.7218e-07
5.73791e-07
5.74674e-07
5.77947e-07
5.80876e-07
5.85127e-07
5.92516e-07
5.97714e-07
5.4076e-07
5.36093e-07
5.2961e-07
5.2586e-07
5.23345e-07
5.20475e-07
5.19708e-07
5.18275e-07
5.17753e-07
5.17086e-07
5.16717e-07
5.16432e-07
5.16193e-07
5.16118e-07
5.15966e-07
5.15953e-07
5.15854e-07
5.15863e-07
5.15801e-07
5.15816e-07
5.15779e-07
5.15791e-07
5.15771e-07
5.15778e-07
5.15771e-07
5.15771e-07
5.15777e-07
5.1577e-07
5.1579e-07
5.15777e-07
5.15814e-07
5.158e-07
5.15861e-07
5.15853e-07
5.15952e-07
5.15965e-07
5.16117e-07
5.16191e-07
5.16423e-07
5.16709e-07
5.17079e-07
5.1775e-07
5.18268e-07
5.197e-07
5.20467e-07
5.23337e-07
5.25854e-07
5.29604e-07
5.36086e-07
5.40753e-07
4.90022e-07
4.85866e-07
4.80292e-07
4.76998e-07
4.7487e-07
4.72382e-07
4.71726e-07
4.70468e-07
4.70035e-07
4.69458e-07
4.69144e-07
4.68897e-07
4.68688e-07
4.68625e-07
4.68493e-07
4.68484e-07
4.68399e-07
4.68408e-07
4.68354e-07
4.68367e-07
4.68335e-07
4.68346e-07
4.68328e-07
4.68335e-07
4.68329e-07
4.68328e-07
4.68334e-07
4.68327e-07
4.68345e-07
4.68333e-07
4.68365e-07
4.68352e-07
4.68406e-07
4.68397e-07
4.68483e-07
4.68493e-07
4.68624e-07
4.68686e-07
4.6889e-07
4.69137e-07
4.69452e-07
4.70032e-07
4.70463e-07
4.7172e-07
4.72376e-07
4.74864e-07
4.76992e-07
4.80286e-07
4.85861e-07
4.90016e-07
4.45406e-07
4.41756e-07
4.37032e-07
4.3418e-07
4.324e-07
4.30269e-07
4.29718e-07
4.28628e-07
4.28272e-07
4.2778e-07
4.27515e-07
4.27306e-07
4.27122e-07
4.27071e-07
4.26958e-07
4.26952e-07
4.26878e-07
4.26887e-07
4.26841e-07
4.26853e-07
4.26825e-07
4.26835e-07
4.2682e-07
4.26826e-07
4.26821e-07
4.2682e-07
4.26825e-07
4.26819e-07
4.26834e-07
4.26824e-07
4.26852e-07
4.26839e-07
4.26886e-07
4.26877e-07
4.26951e-07
4.26957e-07
4.2707e-07
4.27121e-07
4.273e-07
4.27509e-07
4.27775e-07
4.28269e-07
4.28623e-07
4.29713e-07
4.30263e-07
4.32394e-07
4.34175e-07
4.37027e-07
4.4175e-07
4.454e-07
4.06583e-07
4.03348e-07
3.99323e-07
3.96859e-07
3.95363e-07
3.93548e-07
3.93082e-07
3.92145e-07
3.91852e-07
3.91434e-07
3.91211e-07
3.91034e-07
3.90872e-07
3.90829e-07
3.90733e-07
3.90729e-07
3.90666e-07
3.90675e-07
3.90635e-07
3.90646e-07
3.90623e-07
3.90631e-07
3.90619e-07
3.90623e-07
3.90619e-07
3.90619e-07
3.90623e-07
3.90618e-07
3.9063e-07
3.90621e-07
3.90645e-07
3.90634e-07
3.90673e-07
3.90665e-07
3.90728e-07
3.90732e-07
3.90828e-07
3.9087e-07
3.91028e-07
3.91206e-07
3.9143e-07
3.91849e-07
3.92141e-07
3.93077e-07
3.93543e-07
3.95358e-07
3.96854e-07
3.99318e-07
4.03343e-07
4.06578e-07
3.73528e-07
3.70754e-07
3.67419e-07
3.65348e-07
3.64126e-07
3.6261e-07
3.6223e-07
3.6144e-07
3.61205e-07
3.60858e-07
3.60673e-07
3.60527e-07
3.60384e-07
3.60349e-07
3.6027e-07
3.60267e-07
3.60215e-07
3.60223e-07
3.6019e-07
3.602e-07
3.6018e-07
3.60188e-07
3.60177e-07
3.60181e-07
3.60177e-07
3.60177e-07
3.60181e-07
3.60176e-07
3.60187e-07
3.60179e-07
3.60198e-07
3.60189e-07
3.60221e-07
3.60214e-07
3.60266e-07
3.60269e-07
3.60348e-07
3.60382e-07
3.60523e-07
3.60669e-07
3.60853e-07
3.61202e-07
3.61436e-07
3.62226e-07
3.62606e-07
3.64121e-07
3.65343e-07
3.67415e-07
3.70749e-07
3.73523e-07
3.45743e-07
3.43388e-07
3.40663e-07
3.38951e-07
3.37966e-07
3.36719e-07
3.36413e-07
3.35757e-07
3.35571e-07
3.35286e-07
3.35136e-07
3.35017e-07
3.34888e-07
3.34861e-07
3.34795e-07
3.34794e-07
3.34752e-07
3.34758e-07
3.34732e-07
3.3474e-07
3.34724e-07
3.3473e-07
3.34722e-07
3.34725e-07
3.34722e-07
3.34722e-07
3.34725e-07
3.34721e-07
3.3473e-07
3.34723e-07
3.34739e-07
3.3473e-07
3.34757e-07
3.3475e-07
3.34793e-07
3.34795e-07
3.3486e-07
3.34887e-07
3.35014e-07
3.35132e-07
3.35283e-07
3.35569e-07
3.35754e-07
3.3641e-07
3.36715e-07
3.37962e-07
3.38948e-07
3.40659e-07
3.43385e-07
3.45739e-07
3.22786e-07
3.20801e-07
3.18605e-07
3.17175e-07
3.16371e-07
3.15337e-07
3.15088e-07
3.14541e-07
3.14392e-07
3.14158e-07
3.14033e-07
3.13937e-07
3.13814e-07
3.13792e-07
3.13738e-07
3.13738e-07
3.13703e-07
3.13709e-07
3.13687e-07
3.13694e-07
3.13681e-07
3.13687e-07
3.13679e-07
3.13682e-07
3.1368e-07
3.1368e-07
3.13682e-07
3.13679e-07
3.13686e-07
3.1368e-07
3.13693e-07
3.13686e-07
3.13708e-07
3.13702e-07
3.13737e-07
3.13737e-07
3.13791e-07
3.13813e-07
3.13934e-07
3.1403e-07
3.14154e-07
3.1439e-07
3.14538e-07
3.15085e-07
3.15334e-07
3.16368e-07
3.17172e-07
3.18602e-07
3.20798e-07
3.22782e-07
3.04136e-07
3.02501e-07
3.00753e-07
2.99597e-07
2.98959e-07
2.98127e-07
2.97931e-07
2.97487e-07
2.97371e-07
2.97183e-07
2.97082e-07
2.97008e-07
2.96886e-07
2.96869e-07
2.96826e-07
2.96826e-07
2.96798e-07
2.96804e-07
2.96786e-07
2.96792e-07
2.96781e-07
2.96786e-07
2.9678e-07
2.96783e-07
2.96781e-07
2.96781e-07
2.96783e-07
2.9678e-07
2.96786e-07
2.96781e-07
2.96791e-07
2.96785e-07
2.96803e-07
2.96797e-07
2.96825e-07
2.96825e-07
2.96868e-07
2.96885e-07
2.97006e-07
2.9708e-07
2.9718e-07
2.97369e-07
2.97485e-07
2.97928e-07
2.98124e-07
2.98956e-07
2.99594e-07
3.0075e-07
3.02499e-07
3.04133e-07
2.89263e-07
2.87904e-07
2.86491e-07
2.85548e-07
2.85036e-07
2.84368e-07
2.84208e-07
2.8385e-07
2.83758e-07
2.83607e-07
2.83526e-07
2.8347e-07
2.83466e-07
2.83453e-07
2.83419e-07
2.83419e-07
2.83397e-07
2.83402e-07
2.83388e-07
2.83393e-07
2.83385e-07
2.83389e-07
2.83384e-07
2.83387e-07
2.83385e-07
2.83385e-07
2.83386e-07
2.83384e-07
2.83388e-07
2.83384e-07
2.83392e-07
2.83387e-07
2.83401e-07
2.83396e-07
2.83419e-07
2.83418e-07
2.83452e-07
2.83465e-07
2.83468e-07
2.83524e-07
2.83604e-07
2.83756e-07
2.83848e-07
2.84206e-07
2.84365e-07
2.85033e-07
2.85546e-07
2.86488e-07
2.87902e-07
2.8926e-07
2.77635e-07
2.76541e-07
2.75425e-07
2.74673e-07
2.74268e-07
2.7374e-07
2.73613e-07
2.73329e-07
2.73256e-07
2.73136e-07
2.73073e-07
2.73031e-07
2.73025e-07
2.73016e-07
2.72989e-07
2.7299e-07
2.72973e-07
2.72976e-07
2.72966e-07
2.7297e-07
2.72964e-07
2.72967e-07
2.72963e-07
2.72965e-07
2.72964e-07
2.72964e-07
2.72965e-07
2.72963e-07
2.72966e-07
2.72963e-07
2.72969e-07
2.72965e-07
2.72976e-07
2.72972e-07
2.72989e-07
2.72988e-07
2.73015e-07
2.73024e-07
2.7303e-07
2.73072e-07
2.73133e-07
2.73254e-07
2.73327e-07
2.73611e-07
2.73737e-07
2.74265e-07
2.74671e-07
2.75423e-07
2.7654e-07
2.77632e-07
2.68717e-07
2.67835e-07
2.66957e-07
2.6636e-07
2.66037e-07
2.6561e-07
2.65506e-07
2.65276e-07
2.65217e-07
2.6512e-07
2.65071e-07
2.65039e-07
2.65031e-07
2.65023e-07
2.65002e-07
2.65003e-07
2.6499e-07
2.64993e-07
2.64984e-07
2.64988e-07
2.64983e-07
2.64986e-07
2.64983e-07
2.64985e-07
2.64984e-07
2.64984e-07
2.64985e-07
2.64983e-07
2.64985e-07
2.64982e-07
2.64987e-07
2.64984e-07
2.64992e-07
2.64989e-07
2.65002e-07
2.65002e-07
2.65022e-07
2.6503e-07
2.65037e-07
2.65069e-07
2.65118e-07
2.65215e-07
2.65274e-07
2.65504e-07
2.65608e-07
2.66034e-07
2.66357e-07
2.66955e-07
2.67833e-07
2.68714e-07
2.61925e-07
2.61203e-07
2.60512e-07
2.60039e-07
2.59778e-07
2.59445e-07
2.59358e-07
2.59178e-07
2.59129e-07
2.59053e-07
2.59014e-07
2.58991e-07
2.58983e-07
2.58977e-07
2.58961e-07
2.58961e-07
2.58951e-07
2.58954e-07
2.58947e-07
2.5895e-07
2.58946e-07
2.58949e-07
2.58947e-07
2.58948e-07
2.58947e-07
2.58947e-07
2.58948e-07
2.58946e-07
2.58948e-07
2.58946e-07
2.58949e-07
2.58947e-07
2.58953e-07
2.5895e-07
2.5896e-07
2.5896e-07
2.58976e-07
2.58982e-07
2.5899e-07
2.59013e-07
2.59051e-07
2.59128e-07
2.59176e-07
2.59356e-07
2.59443e-07
2.59776e-07
2.60037e-07
2.6051e-07
2.61202e-07
2.61923e-07
2.56881e-07
2.56303e-07
2.55755e-07
2.55382e-07
2.55169e-07
2.54909e-07
2.54834e-07
2.54693e-07
2.54652e-07
2.54592e-07
2.54562e-07
2.54545e-07
2.54536e-07
2.54531e-07
2.54519e-07
2.54519e-07
2.54511e-07
2.54513e-07
2.54509e-07
2.54511e-07
2.54508e-07
2.5451e-07
2.54509e-07
2.5451e-07
2.54509e-07
2.54509e-07
2.5451e-07
2.54508e-07
2.5451e-07
2.54508e-07
2.5451e-07
2.54508e-07
2.54513e-07
2.5451e-07
2.54518e-07
2.54518e-07
2.5453e-07
2.54535e-07
2.54544e-07
2.5456e-07
2.5459e-07
2.5465e-07
2.54692e-07
2.54832e-07
2.54907e-07
2.55167e-07
2.5538e-07
2.55753e-07
2.56302e-07
2.56879e-07
2.53274e-07
2.52799e-07
2.52362e-07
2.52061e-07
2.51884e-07
2.51676e-07
2.51611e-07
2.515e-07
2.51464e-07
2.51416e-07
2.51392e-07
2.5138e-07
2.51371e-07
2.51367e-07
2.51357e-07
2.51357e-07
2.51351e-07
2.51353e-07
2.5135e-07
2.51352e-07
2.5135e-07
2.51351e-07
2.5135e-07
2.51351e-07
2.51351e-07
2.51351e-07
2.51351e-07
2.5135e-07
2.51351e-07
2.51349e-07
2.51351e-07
2.51349e-07
2.51352e-07
2.51351e-07
2.51356e-07
2.51356e-07
2.51366e-07
2.5137e-07
2.51379e-07
2.51391e-07
2.51414e-07
2.51463e-07
2.51498e-07
2.5161e-07
2.51675e-07
2.51882e-07
2.52059e-07
2.5236e-07
2.52798e-07
2.53272e-07
2.50703e-07
2.50305e-07
2.49952e-07
2.49705e-07
2.49555e-07
2.49388e-07
2.4933e-07
2.49241e-07
2.4921e-07
2.4917e-07
2.49151e-07
2.49142e-07
2.49133e-07
2.4913e-07
2.49122e-07
2.49122e-07
2.49117e-07
2.49119e-07
2.49116e-07
2.49118e-07
2.49116e-07
2.49118e-07
2.49117e-07
2.49118e-07
2.49118e-07
2.49117e-07
2.49118e-07
2.49117e-07
2.49117e-07
2.49116e-07
2.49117e-07
2.49116e-07
2.49118e-07
2.49117e-07
2.49121e-07
2.49121e-07
2.49129e-07
2.49132e-07
2.49141e-07
2.4915e-07
2.49169e-07
2.49208e-07
2.49239e-07
2.49329e-07
2.49387e-07
2.49553e-07
2.49703e-07
2.4995e-07
2.50303e-07
2.50701e-07
2.489e-07
2.48561e-07
2.48271e-07
2.48064e-07
2.47935e-07
2.47798e-07
2.47746e-07
2.47673e-07
2.47645e-07
2.47613e-07
2.47597e-07
2.47589e-07
2.47581e-07
2.47578e-07
2.47572e-07
2.47572e-07
2.47568e-07
2.47569e-07
2.47567e-07
2.47569e-07
2.47568e-07
2.47569e-07
2.47568e-07
2.47569e-07
2.47569e-07
2.47569e-07
2.47569e-07
2.47568e-07
2.47568e-07
2.47567e-07
2.47568e-07
2.47567e-07
2.47568e-07
2.47567e-07
2.47571e-07
2.47571e-07
2.47577e-07
2.4758e-07
2.47588e-07
2.47595e-07
2.47611e-07
2.47644e-07
2.47671e-07
2.47744e-07
2.47796e-07
2.47933e-07
2.48063e-07
2.48269e-07
2.4856e-07
2.48898e-07
2.47644e-07
2.47348e-07
2.47105e-07
2.4693e-07
2.46816e-07
2.46702e-07
2.46654e-07
2.46594e-07
2.46568e-07
2.46541e-07
2.46528e-07
2.46521e-07
2.46514e-07
2.46511e-07
2.46506e-07
2.46506e-07
2.46503e-07
2.46504e-07
2.46503e-07
2.46504e-07
2.46503e-07
2.46504e-07
2.46504e-07
2.46504e-07
2.46504e-07
2.46504e-07
2.46504e-07
2.46503e-07
2.46504e-07
2.46502e-07
2.46503e-07
2.46502e-07
2.46503e-07
2.46502e-07
2.46505e-07
2.46505e-07
2.4651e-07
2.46513e-07
2.4652e-07
2.46527e-07
2.4654e-07
2.46567e-07
2.46592e-07
2.46652e-07
2.46701e-07
2.46814e-07
2.46928e-07
2.47103e-07
2.47347e-07
2.47642e-07
2.46769e-07
2.46515e-07
2.46311e-07
2.46159e-07
2.46057e-07
2.45961e-07
2.45916e-07
2.45865e-07
2.45842e-07
2.45819e-07
2.45807e-07
2.45801e-07
2.45795e-07
2.45792e-07
2.45788e-07
2.45788e-07
2.45785e-07
2.45786e-07
2.45785e-07
2.45786e-07
2.45785e-07
2.45786e-07
2.45786e-07
2.45787e-07
2.45787e-07
2.45787e-07
2.45787e-07
2.45786e-07
2.45786e-07
2.45785e-07
2.45785e-07
2.45784e-07
2.45785e-07
2.45785e-07
2.45787e-07
2.45787e-07
2.45791e-07
2.45794e-07
2.458e-07
2.45806e-07
2.45818e-07
2.45841e-07
2.45864e-07
2.45914e-07
2.45959e-07
2.46055e-07
2.46158e-07
2.4631e-07
2.46514e-07
2.46768e-07
2.46167e-07
2.45944e-07
2.45763e-07
2.45629e-07
2.45536e-07
2.45453e-07
2.45411e-07
2.45368e-07
2.45346e-07
2.45327e-07
2.45316e-07
2.4531e-07
2.45305e-07
2.45302e-07
2.45298e-07
2.45298e-07
2.45296e-07
2.45297e-07
2.45296e-07
2.45297e-07
2.45296e-07
2.45297e-07
2.45297e-07
2.45298e-07
2.45298e-07
2.45298e-07
2.45297e-07
2.45297e-07
2.45297e-07
2.45296e-07
2.45296e-07
2.45295e-07
2.45296e-07
2.45295e-07
2.45297e-07
2.45297e-07
2.45301e-07
2.45304e-07
2.45309e-07
2.45315e-07
2.45325e-07
2.45345e-07
2.45366e-07
2.4541e-07
2.45452e-07
2.45535e-07
2.45628e-07
2.45762e-07
2.45942e-07
2.46165e-07
2.45739e-07
2.4554e-07
2.45379e-07
2.45259e-07
2.45174e-07
2.45101e-07
2.45062e-07
2.45024e-07
2.45005e-07
2.44987e-07
2.44978e-07
2.44972e-07
2.44967e-07
2.44964e-07
2.44961e-07
2.44961e-07
2.44959e-07
2.4496e-07
2.44959e-07
2.4496e-07
2.4496e-07
2.4496e-07
2.4496e-07
2.44961e-07
2.44961e-07
2.44961e-07
2.44961e-07
2.4496e-07
2.4496e-07
2.44959e-07
2.44959e-07
2.44958e-07
2.44959e-07
2.44959e-07
2.4496e-07
2.4496e-07
2.44963e-07
2.44966e-07
2.44971e-07
2.44977e-07
2.44986e-07
2.45003e-07
2.45023e-07
2.45061e-07
2.451e-07
2.45173e-07
2.45257e-07
2.45378e-07
2.45539e-07
2.45738e-07
2.45428e-07
2.45249e-07
2.45104e-07
2.44994e-07
2.44917e-07
2.44852e-07
2.44815e-07
2.44782e-07
2.44763e-07
2.44748e-07
2.44739e-07
2.44734e-07
2.44729e-07
2.44726e-07
2.44724e-07
2.44723e-07
2.44722e-07
2.44722e-07
2.44722e-07
2.44723e-07
2.44722e-07
2.44723e-07
2.44723e-07
2.44724e-07
2.44724e-07
2.44724e-07
2.44724e-07
2.44723e-07
2.44723e-07
2.44722e-07
2.44722e-07
2.44721e-07
2.44722e-07
2.44721e-07
2.44722e-07
2.44723e-07
2.44726e-07
2.44728e-07
2.44733e-07
2.44738e-07
2.44747e-07
2.44762e-07
2.4478e-07
2.44814e-07
2.4485e-07
2.44915e-07
2.44993e-07
2.45102e-07
2.45247e-07
2.45427e-07
2.45197e-07
2.45034e-07
2.44901e-07
2.44801e-07
2.44729e-07
2.44671e-07
2.44637e-07
2.44607e-07
2.4459e-07
2.44576e-07
2.44568e-07
2.44562e-07
2.44558e-07
2.44556e-07
2.44553e-07
2.44553e-07
2.44552e-07
2.44552e-07
2.44551e-07
2.44552e-07
2.44552e-07
2.44553e-07
2.44553e-07
2.44553e-07
2.44553e-07
2.44553e-07
2.44553e-07
2.44552e-07
2.44552e-07
2.44551e-07
2.44551e-07
2.44551e-07
2.44551e-07
2.44551e-07
2.44552e-07
2.44552e-07
2.44555e-07
2.44557e-07
2.44561e-07
2.44567e-07
2.44575e-07
2.44589e-07
2.44605e-07
2.44635e-07
2.4467e-07
2.44728e-07
2.448e-07
2.449e-07
2.45032e-07
2.45196e-07
2.45026e-07
2.44874e-07
2.44752e-07
2.4466e-07
2.44593e-07
2.4454e-07
2.44507e-07
2.4448e-07
2.44464e-07
2.44451e-07
2.44444e-07
2.44438e-07
2.44434e-07
2.44432e-07
2.4443e-07
2.44429e-07
2.44428e-07
2.44428e-07
2.44428e-07
2.44429e-07
2.44429e-07
2.44429e-07
2.44429e-07
2.4443e-07
2.4443e-07
2.4443e-07
2.4443e-07
2.44429e-07
2.44429e-07
2.44428e-07
2.44428e-07
2.44427e-07
2.44428e-07
2.44427e-07
2.44428e-07
2.44429e-07
2.44431e-07
2.44433e-07
2.44437e-07
2.44443e-07
2.4445e-07
2.44463e-07
2.44479e-07
2.44506e-07
2.44538e-07
2.44591e-07
2.44658e-07
2.44751e-07
2.44873e-07
2.45024e-07
2.44903e-07
2.44761e-07
2.44647e-07
2.4456e-07
2.44496e-07
2.44447e-07
2.44416e-07
2.44391e-07
2.44376e-07
2.44364e-07
2.44357e-07
2.44352e-07
2.44348e-07
2.44346e-07
2.44344e-07
2.44343e-07
2.44342e-07
2.44342e-07
2.44342e-07
2.44343e-07
2.44343e-07
2.44343e-07
2.44343e-07
2.44344e-07
2.44344e-07
2.44344e-07
2.44344e-07
2.44343e-07
2.44343e-07
2.44342e-07
2.44342e-07
2.44341e-07
2.44342e-07
2.44341e-07
2.44342e-07
2.44343e-07
2.44345e-07
2.44347e-07
2.44351e-07
2.44356e-07
2.44363e-07
2.44375e-07
2.4439e-07
2.44415e-07
2.44446e-07
2.44495e-07
2.44558e-07
2.44645e-07
2.4476e-07
2.44902e-07
2.44831e-07
2.44695e-07
2.44585e-07
2.44502e-07
2.44441e-07
2.44394e-07
2.44364e-07
2.4434e-07
2.44326e-07
2.44314e-07
2.44307e-07
2.44302e-07
2.44298e-07
2.44296e-07
2.44294e-07
2.44294e-07
2.44293e-07
2.44293e-07
2.44293e-07
2.44293e-07
2.44293e-07
2.44294e-07
2.44294e-07
2.44295e-07
2.44295e-07
2.44295e-07
2.44294e-07
2.44294e-07
2.44294e-07
2.44293e-07
2.44293e-07
2.44292e-07
2.44292e-07
2.44292e-07
2.44293e-07
2.44293e-07
2.44295e-07
2.44298e-07
2.44301e-07
2.44306e-07
2.44313e-07
2.44325e-07
2.44339e-07
2.44363e-07
2.44393e-07
2.44439e-07
2.445e-07
2.44584e-07
2.44694e-07
2.4483e-07
)
;

boundaryField
{
    fuel
    {
        type            fixedValue;
        value           nonuniform 0();
    }
    wall
    {
        type            zeroGradient;
    }
    outlet
    {
        type            zeroGradient;
    }
    frontAndBack
    {
        type            empty;
    }
    procBoundary3to2
    {
        type            processor;
        value           nonuniform List<scalar> 
51
(
1.99841e-06
1.9977e-06
1.99738e-06
1.99693e-06
1.99683e-06
1.99656e-06
1.99655e-06
1.99639e-06
1.9964e-06
1.99631e-06
1.99633e-06
1.99627e-06
1.99629e-06
1.99627e-06
1.99627e-06
1.99628e-06
1.99627e-06
1.99632e-06
1.9963e-06
1.9964e-06
1.99638e-06
1.99655e-06
1.99656e-06
1.99683e-06
1.99693e-06
1.99738e-06
1.99769e-06
1.99838e-06
1.99923e-06
2.00045e-06
2.00241e-06
2.00455e-06
2.0086e-06
2.01238e-06
2.02033e-06
2.02974e-06
2.04088e-06
2.05821e-06
2.06854e-06
1.94721e-06
1.93686e-06
1.91979e-06
1.90891e-06
1.89974e-06
1.89203e-06
1.88832e-06
1.88435e-06
1.88231e-06
1.88043e-06
1.87926e-06
1.87926e-06
)
;
    }
}


// ************************************************************************* //
