/*--------------------------------*- C++ -*----------------------------------*\
| =========                 |                                                 |
| \\      /  F ield         | OpenFOAM: The Open Source CFD Toolbox           |
|  \\    /   O peration     | Version:  dev                                   |
|   \\  /    A nd           | Web:      www.OpenFOAM.org                      |
|    \\/     M anipulation  |                                                 |
\*---------------------------------------------------------------------------*/
FoamFile
{
    version     2.0;
    format      ascii;
    class       volScalarField;
    location    "0.06";
    object      HCO;
}
// * * * * * * * * * * * * * * * * * * * * * * * * * * * * * * * * * * * * * //

dimensions      [0 0 0 0 0 0 0];

internalField   nonuniform List<scalar> 
250
(
1.52198e-05
1.52163e-05
1.52162e-05
1.52162e-05
1.52165e-05
1.52163e-05
1.52224e-05
1.52252e-05
1.52789e-05
1.57562e-05
8.80723e-09
5.54865e-06
5.55504e-06
5.55477e-06
5.55543e-06
5.55466e-06
5.556e-06
5.55576e-06
5.55662e-06
5.57009e-06
5.68227e-06
7.94061e-09
1.94318e-06
1.94415e-06
1.94395e-06
1.94451e-06
1.94389e-06
1.94494e-06
1.94452e-06
1.94353e-06
1.94845e-06
2.01218e-06
6.26795e-09
7.95527e-07
7.95726e-07
7.95619e-07
7.95947e-07
7.95622e-07
7.96187e-07
7.96088e-07
7.94641e-07
7.96733e-07
8.70476e-07
1.60922e-08
4.09532e-07
4.09595e-07
4.09539e-07
4.09718e-07
4.09558e-07
4.09852e-07
4.0987e-07
4.08412e-07
4.09028e-07
4.88017e-07
3.60134e-07
2.61397e-07
2.61427e-07
2.61397e-07
2.61497e-07
2.61418e-07
2.61577e-07
2.61605e-07
2.60059e-07
2.59178e-07
3.37707e-07
8.65997e-06
1.95651e-07
1.95666e-07
1.95652e-07
1.95709e-07
1.9567e-07
1.95762e-07
1.95775e-07
1.94231e-07
1.93365e-07
2.62496e-07
2.27777e-05
1.62806e-07
1.62813e-07
1.62808e-07
1.62842e-07
1.62823e-07
1.62882e-07
1.62894e-07
1.61486e-07
1.57149e-07
1.99845e-07
1.01521e-05
1.43231e-07
1.43227e-07
1.43241e-07
1.43247e-07
1.43253e-07
1.43261e-07
1.43154e-07
1.41367e-07
1.35906e-07
1.57963e-07
4.42452e-06
1.30956e-07
1.30937e-07
1.30957e-07
1.3095e-07
1.30965e-07
1.30959e-07
1.30819e-07
1.29135e-07
1.24504e-07
1.30691e-07
2.14921e-06
1.23804e-07
1.2383e-07
1.23814e-07
1.23837e-07
1.23821e-07
1.23676e-07
1.21937e-07
1.15931e-07
1.10684e-07
1.17313e-06
1.18112e-07
1.18144e-07
1.18119e-07
1.1815e-07
1.18135e-07
1.18015e-07
1.16498e-07
1.09589e-07
9.76994e-08
7.06666e-07
1.13625e-07
1.13663e-07
1.13631e-07
1.13669e-07
1.13649e-07
1.13524e-07
1.11958e-07
1.0461e-07
8.7557e-08
4.59739e-07
1.09836e-07
1.0988e-07
1.0984e-07
1.09887e-07
1.09863e-07
1.09736e-07
1.08139e-07
1.00419e-07
7.96156e-08
3.17053e-07
1.06435e-07
1.06485e-07
1.06439e-07
1.06494e-07
1.06467e-07
1.06343e-07
1.04738e-07
9.73139e-08
7.4052e-08
2.28699e-07
1.03242e-07
1.03299e-07
1.03245e-07
1.03309e-07
1.0328e-07
1.03164e-07
1.01573e-07
9.41508e-08
6.95953e-08
1.71535e-07
1.00144e-07
1.00208e-07
1.00147e-07
1.0022e-07
1.0019e-07
1.00085e-07
9.85279e-08
9.11668e-08
6.5872e-08
1.31285e-07
9.70671e-08
9.71375e-08
9.70702e-08
9.7153e-08
9.71226e-08
9.70318e-08
9.55268e-08
8.83207e-08
6.31102e-08
1.04439e-07
9.39539e-08
9.40316e-08
9.39575e-08
9.40506e-08
9.40206e-08
9.39473e-08
9.25118e-08
8.5519e-08
6.06985e-08
8.49613e-08
9.07574e-08
9.08428e-08
9.07617e-08
9.08656e-08
9.08369e-08
9.07831e-08
8.94348e-08
8.31398e-08
5.87728e-08
7.06427e-08
8.74321e-08
8.75252e-08
8.74374e-08
8.75521e-08
8.75258e-08
8.74919e-08
8.62462e-08
8.04588e-08
5.72263e-08
6.00664e-08
8.39273e-08
8.4028e-08
8.3934e-08
8.40586e-08
8.40364e-08
8.40195e-08
8.28941e-08
7.76162e-08
5.58149e-08
5.2127e-08
8.06542e-08
8.07639e-08
8.06614e-08
8.07995e-08
8.07774e-08
8.07921e-08
7.97621e-08
7.46256e-08
5.45684e-08
4.61306e-08
7.686e-08
7.69848e-08
7.68709e-08
7.70273e-08
7.70098e-08
7.70529e-08
7.62144e-08
7.18906e-08
5.33477e-08
4.16397e-08
)
;

boundaryField
{
    fuel
    {
        type            fixedValue;
        value           uniform 0;
    }
    wall
    {
        type            zeroGradient;
    }
    outlet
    {
        type            zeroGradient;
    }
    frontAndBack
    {
        type            empty;
    }
    procBoundary3to0
    {
        type            processor;
        value           nonuniform List<scalar> 10(7.31916e-08 7.33268e-08 7.32035e-08 7.33743e-08 7.33572e-08 7.34306e-08 7.27224e-08 6.87269e-08 5.20305e-08 3.83734e-08);
    }
    procBoundary3to2
    {
        type            processor;
        value           nonuniform List<scalar> 
25
(
1.52197e-05
5.54884e-06
1.94335e-06
7.95638e-07
4.09602e-07
2.61447e-07
1.95689e-07
1.62837e-07
1.43259e-07
1.30972e-07
1.23837e-07
1.23837e-07
1.18134e-07
1.13643e-07
1.09853e-07
1.06451e-07
1.03259e-07
1.00162e-07
9.70851e-08
9.39722e-08
9.07758e-08
8.74501e-08
8.39445e-08
8.06708e-08
7.68764e-08
)
;
    }
}


// ************************************************************************* //
