/*--------------------------------*- C++ -*----------------------------------*\
| =========                 |                                                 |
| \\      /  F ield         | OpenFOAM: The Open Source CFD Toolbox           |
|  \\    /   O peration     | Version:  dev                                   |
|   \\  /    A nd           | Web:      www.OpenFOAM.org                      |
|    \\/     M anipulation  |                                                 |
\*---------------------------------------------------------------------------*/
FoamFile
{
    version     2.0;
    format      ascii;
    class       volScalarField;
    location    "0.06";
    object      n-A1C2H2;
}
// * * * * * * * * * * * * * * * * * * * * * * * * * * * * * * * * * * * * * //

dimensions      [0 0 0 0 0 0 0];

internalField   nonuniform List<scalar> 
250
(
5.99976e-09
5.99583e-09
5.99564e-09
5.996e-09
5.99919e-09
6.00101e-09
5.99782e-09
6.02484e-09
6.3129e-09
9.45482e-09
2.17604e-11
2.98849e-09
2.98739e-09
2.98754e-09
2.98686e-09
2.9884e-09
2.98882e-09
2.98879e-09
3.006e-09
3.18525e-09
5.19386e-09
2.05781e-10
1.45921e-09
1.45856e-09
1.45919e-09
1.45836e-09
1.45928e-09
1.45918e-09
1.4601e-09
1.47239e-09
1.59155e-09
3.0628e-09
5.54787e-10
7.49385e-10
7.48944e-10
7.4953e-10
7.48819e-10
7.49466e-10
7.49253e-10
7.50174e-10
7.58637e-10
8.42361e-10
2.00147e-09
8.81945e-10
4.18362e-10
4.18028e-10
4.18474e-10
4.17928e-10
4.18379e-10
4.18208e-10
4.18845e-10
4.2467e-10
4.86199e-10
1.42363e-09
9.18697e-10
2.50473e-10
2.5028e-10
2.50615e-10
2.5018e-10
2.50588e-10
2.50457e-10
2.51405e-10
2.58602e-10
3.07676e-10
1.07485e-09
8.20498e-10
1.6501e-10
1.64866e-10
1.6511e-10
1.64782e-10
1.65078e-10
1.65008e-10
1.65777e-10
1.71944e-10
2.1133e-10
8.31758e-10
8.85123e-10
1.1635e-10
1.1624e-10
1.16418e-10
1.16168e-10
1.16383e-10
1.16359e-10
1.1704e-10
1.2292e-10
1.55441e-10
6.68274e-10
1.32538e-09
8.64022e-11
8.63504e-11
8.64791e-11
8.62924e-11
8.64702e-11
8.6475e-11
8.68414e-11
9.15852e-11
1.19178e-10
5.44631e-10
1.66489e-09
6.75022e-11
6.7467e-11
6.75632e-11
6.74173e-11
6.75534e-11
6.75812e-11
6.7873e-11
7.02522e-11
9.31732e-11
4.48061e-10
1.7103e-09
5.46548e-11
5.47291e-11
5.45985e-11
5.4734e-11
5.47866e-11
5.52086e-11
5.76801e-11
7.71409e-11
3.70547e-10
1.51262e-09
4.48627e-11
4.49157e-11
4.48125e-11
4.49253e-11
4.49903e-11
4.53791e-11
4.78866e-11
6.4868e-11
3.07232e-10
1.13954e-09
3.77924e-11
3.78304e-11
3.77466e-11
3.78447e-11
3.79176e-11
3.82836e-11
4.06842e-11
5.46801e-11
2.46408e-10
7.93835e-10
3.24951e-11
3.25225e-11
3.24526e-11
3.25414e-11
3.26185e-11
3.29681e-11
3.52514e-11
4.75241e-11
2.00134e-10
5.38818e-10
2.83927e-11
2.84128e-11
2.83529e-11
2.84358e-11
2.85144e-11
2.88508e-11
3.10107e-11
4.14889e-11
1.64977e-10
3.61576e-10
2.51254e-11
2.51406e-11
2.5088e-11
2.51669e-11
2.52449e-11
2.55698e-11
2.76025e-11
3.64017e-11
1.35748e-10
2.44526e-10
2.2465e-11
2.24768e-11
2.24299e-11
2.25056e-11
2.25814e-11
2.28955e-11
2.47999e-11
3.22252e-11
1.11826e-10
1.70912e-10
2.02634e-11
2.02729e-11
2.02306e-11
2.03033e-11
2.03755e-11
2.06786e-11
2.24559e-11
2.90145e-11
9.22499e-11
1.25664e-10
1.84221e-11
1.84298e-11
1.83915e-11
1.84607e-11
1.85286e-11
1.88203e-11
2.04724e-11
2.61402e-11
7.64951e-11
9.76652e-11
1.68732e-11
1.68794e-11
1.6845e-11
1.691e-11
1.6973e-11
1.72525e-11
1.87839e-11
2.36341e-11
6.29566e-11
7.98023e-11
1.55686e-11
1.55733e-11
1.55429e-11
1.56026e-11
1.56601e-11
1.59267e-11
1.73449e-11
2.15663e-11
5.27751e-11
6.78983e-11
1.44722e-11
1.44751e-11
1.44492e-11
1.45023e-11
1.4554e-11
1.48071e-11
1.6122e-11
1.98475e-11
4.48677e-11
5.95221e-11
1.3669e-11
1.367e-11
1.3648e-11
1.36945e-11
1.3742e-11
1.39803e-11
1.50905e-11
1.84262e-11
3.87273e-11
5.32882e-11
1.3005e-11
1.30065e-11
1.29855e-11
1.30306e-11
1.30743e-11
1.33018e-11
1.43445e-11
1.72673e-11
3.397e-11
4.84251e-11
)
;

boundaryField
{
    fuel
    {
        type            fixedValue;
        value           uniform 0;
    }
    wall
    {
        type            zeroGradient;
    }
    outlet
    {
        type            zeroGradient;
    }
    frontAndBack
    {
        type            empty;
    }
    procBoundary3to0
    {
        type            processor;
        value           nonuniform List<scalar> 10(1.25167e-11 1.25161e-11 1.24993e-11 1.25371e-11 1.25771e-11 1.27895e-11 1.36973e-11 1.64228e-11 3.03155e-11 4.45428e-11);
    }
    procBoundary3to2
    {
        type            processor;
        value           nonuniform List<scalar> 
25
(
6.00024e-09
2.98909e-09
1.45933e-09
7.49378e-10
4.18305e-10
2.50478e-10
1.65007e-10
1.16337e-10
8.64632e-11
6.75619e-11
5.4659e-11
5.4659e-11
4.48528e-11
3.7772e-11
3.2467e-11
2.83593e-11
2.5089e-11
2.24273e-11
2.02258e-11
1.83859e-11
1.68394e-11
1.5538e-11
1.44457e-11
1.3646e-11
1.29841e-11
)
;
    }
}


// ************************************************************************* //
