/*--------------------------------*- C++ -*----------------------------------*\
| =========                 |                                                 |
| \\      /  F ield         | OpenFOAM: The Open Source CFD Toolbox           |
|  \\    /   O peration     | Version:  dev                                   |
|   \\  /    A nd           | Web:      www.OpenFOAM.org                      |
|    \\/     M anipulation  |                                                 |
\*---------------------------------------------------------------------------*/
FoamFile
{
    version     2.0;
    format      ascii;
    class       volScalarField;
    location    "0.06";
    object      n-C4H5;
}
// * * * * * * * * * * * * * * * * * * * * * * * * * * * * * * * * * * * * * //

dimensions      [0 0 0 0 0 0 0];

internalField   nonuniform List<scalar> 
1989
(
2.8377e-11
2.83921e-11
2.83977e-11
2.84075e-11
2.84091e-11
2.84155e-11
2.84155e-11
2.84196e-11
2.8419e-11
2.84215e-11
2.84209e-11
2.84223e-11
2.8422e-11
2.84225e-11
2.84225e-11
2.8422e-11
2.84223e-11
2.8421e-11
2.84215e-11
2.84191e-11
2.84196e-11
2.84155e-11
2.84155e-11
2.8409e-11
2.84074e-11
2.83976e-11
2.83922e-11
2.83781e-11
2.83611e-11
2.83355e-11
2.8294e-11
2.82532e-11
2.8159e-11
2.80787e-11
2.78983e-11
2.76944e-11
2.74465e-11
2.70452e-11
2.67697e-11
2.99176e-11
3.02469e-11
3.07214e-11
3.10085e-11
3.12452e-11
3.14561e-11
3.15522e-11
3.16643e-11
3.17123e-11
3.17603e-11
3.17889e-11
3.18078e-11
3.18253e-11
3.18314e-11
3.18427e-11
3.18443e-11
3.18516e-11
3.18514e-11
3.18561e-11
3.18554e-11
3.18582e-11
3.18575e-11
3.18591e-11
3.18588e-11
3.18593e-11
3.18593e-11
3.18588e-11
3.18592e-11
3.18576e-11
3.18583e-11
3.18554e-11
3.18562e-11
3.18515e-11
3.18516e-11
3.18442e-11
3.18426e-11
3.18313e-11
3.18254e-11
3.18092e-11
3.17899e-11
3.17604e-11
3.17129e-11
3.16654e-11
3.15531e-11
3.14566e-11
3.12457e-11
3.10095e-11
3.07227e-11
3.02477e-11
2.99182e-11
3.367e-11
3.40631e-11
3.4622e-11
3.49506e-11
3.52237e-11
3.54707e-11
3.55843e-11
3.57174e-11
3.57734e-11
3.58278e-11
3.58602e-11
3.58811e-11
3.59011e-11
3.59076e-11
3.59205e-11
3.59219e-11
3.59303e-11
3.59299e-11
3.59352e-11
3.59342e-11
3.59375e-11
3.59366e-11
3.59385e-11
3.5938e-11
3.59387e-11
3.59387e-11
3.59381e-11
3.59385e-11
3.59367e-11
3.59376e-11
3.59343e-11
3.59353e-11
3.59299e-11
3.59304e-11
3.59219e-11
3.59204e-11
3.59075e-11
3.59012e-11
3.58829e-11
3.58611e-11
3.58273e-11
3.57735e-11
3.57186e-11
3.55854e-11
3.54716e-11
3.52244e-11
3.49517e-11
3.46233e-11
3.4064e-11
3.36708e-11
3.81649e-11
3.86399e-11
3.93004e-11
3.96771e-11
3.99339e-11
4.02228e-11
4.03554e-11
4.05126e-11
4.05796e-11
4.06571e-11
4.07014e-11
4.07362e-11
4.07627e-11
4.07737e-11
4.07912e-11
4.07948e-11
4.08062e-11
4.08067e-11
4.08138e-11
4.0813e-11
4.08172e-11
4.08163e-11
4.08186e-11
4.0818e-11
4.08188e-11
4.08188e-11
4.08181e-11
4.08186e-11
4.08164e-11
4.08173e-11
4.08131e-11
4.08138e-11
4.08066e-11
4.08061e-11
4.07946e-11
4.07909e-11
4.07734e-11
4.07625e-11
4.0737e-11
4.07041e-11
4.06588e-11
4.05813e-11
4.0514e-11
4.03568e-11
4.02239e-11
3.99348e-11
3.96785e-11
3.93018e-11
3.8641e-11
3.8166e-11
4.34364e-11
4.39995e-11
4.47651e-11
4.51911e-11
4.54887e-11
4.58241e-11
4.59774e-11
4.61617e-11
4.62368e-11
4.63229e-11
4.6372e-11
4.64097e-11
4.64394e-11
4.64509e-11
4.64705e-11
4.64739e-11
4.64867e-11
4.64868e-11
4.64948e-11
4.64938e-11
4.64985e-11
4.64974e-11
4.65e-11
4.64993e-11
4.65002e-11
4.65002e-11
4.64994e-11
4.65001e-11
4.64975e-11
4.64986e-11
4.64938e-11
4.64949e-11
4.64868e-11
4.64867e-11
4.64738e-11
4.64703e-11
4.64506e-11
4.64393e-11
4.64109e-11
4.63746e-11
4.6324e-11
4.62381e-11
4.61631e-11
4.59789e-11
4.58254e-11
4.54898e-11
4.51926e-11
4.47665e-11
4.40007e-11
4.34375e-11
4.96799e-11
5.03127e-11
5.11975e-11
5.17664e-11
5.21151e-11
5.25075e-11
5.26878e-11
5.29052e-11
5.29902e-11
5.30879e-11
5.31435e-11
5.3186e-11
5.32197e-11
5.32323e-11
5.32546e-11
5.32581e-11
5.32726e-11
5.32724e-11
5.32815e-11
5.32801e-11
5.32856e-11
5.32842e-11
5.32872e-11
5.32864e-11
5.32874e-11
5.32875e-11
5.32865e-11
5.32873e-11
5.32843e-11
5.32857e-11
5.32802e-11
5.32816e-11
5.32724e-11
5.32726e-11
5.32579e-11
5.32543e-11
5.3232e-11
5.32197e-11
5.31874e-11
5.31459e-11
5.30889e-11
5.29912e-11
5.29067e-11
5.26894e-11
5.2509e-11
5.21163e-11
5.17679e-11
5.11989e-11
5.03141e-11
4.96812e-11
5.69773e-11
5.77202e-11
5.87374e-11
5.93712e-11
5.97622e-11
6.02105e-11
6.04153e-11
6.06665e-11
6.0759e-11
6.08684e-11
6.09302e-11
6.09775e-11
6.10154e-11
6.10287e-11
6.10539e-11
6.10572e-11
6.10736e-11
6.1073e-11
6.10833e-11
6.10814e-11
6.10877e-11
6.1086e-11
6.10894e-11
6.10885e-11
6.10897e-11
6.10897e-11
6.10885e-11
6.10895e-11
6.10861e-11
6.10878e-11
6.10816e-11
6.10834e-11
6.1073e-11
6.10736e-11
6.1057e-11
6.10536e-11
6.10285e-11
6.10153e-11
6.09791e-11
6.09323e-11
6.08695e-11
6.07598e-11
6.0668e-11
6.0417e-11
6.02122e-11
5.97636e-11
5.93729e-11
5.87389e-11
5.77217e-11
5.69787e-11
6.5517e-11
6.63874e-11
6.75354e-11
6.8255e-11
6.8689e-11
6.91978e-11
6.9429e-11
6.97175e-11
6.98174e-11
6.994e-11
7.00085e-11
7.00613e-11
7.0104e-11
7.01183e-11
7.01465e-11
7.01497e-11
7.01681e-11
7.0167e-11
7.01787e-11
7.01764e-11
7.01835e-11
7.01815e-11
7.01854e-11
7.01843e-11
7.01857e-11
7.01857e-11
7.01844e-11
7.01855e-11
7.01816e-11
7.01837e-11
7.01766e-11
7.01788e-11
7.01671e-11
7.01681e-11
7.01495e-11
7.01462e-11
7.0118e-11
7.0104e-11
7.00631e-11
7.00102e-11
6.99414e-11
6.98179e-11
6.97191e-11
6.94308e-11
6.91996e-11
6.86906e-11
6.82569e-11
6.7537e-11
6.6389e-11
6.55186e-11
7.54997e-11
7.65567e-11
7.78764e-11
7.85991e-11
7.90747e-11
7.96476e-11
7.99063e-11
8.02358e-11
8.03424e-11
8.04794e-11
8.05552e-11
8.06143e-11
8.06622e-11
8.06774e-11
8.0709e-11
8.0712e-11
8.07327e-11
8.07311e-11
8.07443e-11
8.07414e-11
8.07494e-11
8.0747e-11
8.07515e-11
8.07502e-11
8.07518e-11
8.07518e-11
8.07502e-11
8.07516e-11
8.07472e-11
8.07497e-11
8.07416e-11
8.07444e-11
8.07312e-11
8.07328e-11
8.07118e-11
8.07087e-11
8.06771e-11
8.06622e-11
8.06162e-11
8.05564e-11
8.04814e-11
8.03427e-11
8.02375e-11
7.99081e-11
7.96496e-11
7.90764e-11
7.86012e-11
7.78784e-11
7.65588e-11
7.55019e-11
8.70888e-11
8.83078e-11
8.97783e-11
9.06132e-11
9.12072e-11
9.18892e-11
9.22016e-11
9.25939e-11
9.2718e-11
9.28765e-11
9.29667e-11
9.30381e-11
9.30947e-11
9.3113e-11
9.31499e-11
9.31536e-11
9.31777e-11
9.31761e-11
9.31913e-11
9.31882e-11
9.31974e-11
9.31946e-11
9.31997e-11
9.31982e-11
9.32e-11
9.32001e-11
9.31983e-11
9.31998e-11
9.31948e-11
9.31977e-11
9.31884e-11
9.31914e-11
9.31761e-11
9.31777e-11
9.31534e-11
9.31495e-11
9.31126e-11
9.30946e-11
9.304e-11
9.29684e-11
9.28792e-11
9.27186e-11
9.25958e-11
9.22036e-11
9.18915e-11
9.12093e-11
9.06153e-11
8.97806e-11
8.83102e-11
8.70911e-11
1.00546e-10
1.01947e-10
1.03588e-10
1.04538e-10
1.05176e-10
1.05933e-10
1.06278e-10
1.06725e-10
1.06855e-10
1.0703e-10
1.07129e-10
1.07209e-10
1.07273e-10
1.07292e-10
1.07333e-10
1.07337e-10
1.07364e-10
1.07361e-10
1.07378e-10
1.07374e-10
1.07385e-10
1.07381e-10
1.07387e-10
1.07385e-10
1.07388e-10
1.07388e-10
1.07386e-10
1.07387e-10
1.07382e-10
1.07385e-10
1.07375e-10
1.07378e-10
1.07361e-10
1.07363e-10
1.07336e-10
1.07333e-10
1.07292e-10
1.07273e-10
1.07211e-10
1.07131e-10
1.07033e-10
1.06856e-10
1.06727e-10
1.0628e-10
1.05935e-10
1.05179e-10
1.04541e-10
1.0359e-10
1.01949e-10
1.00549e-10
1.16155e-10
1.1776e-10
1.19594e-10
1.20706e-10
1.21421e-10
1.22286e-10
1.22686e-10
1.23093e-10
1.23229e-10
1.23423e-10
1.23532e-10
1.23622e-10
1.23694e-10
1.23715e-10
1.2376e-10
1.23763e-10
1.23793e-10
1.2379e-10
1.23809e-10
1.23805e-10
1.23816e-10
1.23812e-10
1.23819e-10
1.23817e-10
1.23819e-10
1.23819e-10
1.23817e-10
1.23819e-10
1.23813e-10
1.23817e-10
1.23805e-10
1.23809e-10
1.2379e-10
1.23793e-10
1.23763e-10
1.2376e-10
1.23714e-10
1.23694e-10
1.23624e-10
1.23534e-10
1.23426e-10
1.23231e-10
1.23095e-10
1.22688e-10
1.22289e-10
1.21424e-10
1.20709e-10
1.19597e-10
1.17762e-10
1.16158e-10
1.34566e-10
1.36415e-10
1.3846e-10
1.39706e-10
1.40477e-10
1.41429e-10
1.41599e-10
1.42072e-10
1.42215e-10
1.4243e-10
1.4255e-10
1.42651e-10
1.42734e-10
1.42755e-10
1.42806e-10
1.42809e-10
1.42842e-10
1.42838e-10
1.4286e-10
1.42854e-10
1.42867e-10
1.42863e-10
1.4287e-10
1.42868e-10
1.4287e-10
1.4287e-10
1.42868e-10
1.4287e-10
1.42863e-10
1.42868e-10
1.42855e-10
1.4286e-10
1.42838e-10
1.42842e-10
1.42808e-10
1.42806e-10
1.42755e-10
1.42733e-10
1.42653e-10
1.42552e-10
1.42434e-10
1.42216e-10
1.42074e-10
1.41601e-10
1.41432e-10
1.4048e-10
1.39709e-10
1.38464e-10
1.36419e-10
1.34569e-10
1.56011e-10
1.57793e-10
1.60086e-10
1.61488e-10
1.62318e-10
1.63382e-10
1.63596e-10
1.64142e-10
1.64291e-10
1.64531e-10
1.64662e-10
1.64776e-10
1.64872e-10
1.64895e-10
1.64952e-10
1.64954e-10
1.64991e-10
1.64986e-10
1.6501e-10
1.65004e-10
1.65019e-10
1.65013e-10
1.65022e-10
1.65019e-10
1.65022e-10
1.65022e-10
1.65019e-10
1.65022e-10
1.65014e-10
1.65019e-10
1.65004e-10
1.65011e-10
1.64986e-10
1.64992e-10
1.64953e-10
1.64952e-10
1.64895e-10
1.64872e-10
1.64779e-10
1.64664e-10
1.64535e-10
1.64293e-10
1.64145e-10
1.63598e-10
1.63385e-10
1.62321e-10
1.61491e-10
1.60089e-10
1.57796e-10
1.56015e-10
1.80707e-10
1.82807e-10
1.85356e-10
1.86954e-10
1.87852e-10
1.8905e-10
1.89297e-10
1.89926e-10
1.9008e-10
1.90349e-10
1.90492e-10
1.90622e-10
1.90734e-10
1.90759e-10
1.90823e-10
1.90824e-10
1.90866e-10
1.9086e-10
1.90887e-10
1.90879e-10
1.90896e-10
1.9089e-10
1.90899e-10
1.90896e-10
1.90899e-10
1.90899e-10
1.90896e-10
1.90899e-10
1.9089e-10
1.90896e-10
1.9088e-10
1.90887e-10
1.9086e-10
1.90866e-10
1.90823e-10
1.90822e-10
1.90758e-10
1.90734e-10
1.90624e-10
1.90494e-10
1.90353e-10
1.90082e-10
1.89928e-10
1.89299e-10
1.89053e-10
1.87856e-10
1.86958e-10
1.85361e-10
1.82811e-10
1.80711e-10
2.09789e-10
2.12224e-10
2.15071e-10
2.16908e-10
2.17884e-10
2.19243e-10
2.19516e-10
2.20243e-10
2.20403e-10
2.20705e-10
2.20861e-10
2.21009e-10
2.21143e-10
2.2117e-10
2.21242e-10
2.21242e-10
2.2129e-10
2.21282e-10
2.21312e-10
2.21303e-10
2.21322e-10
2.21315e-10
2.21325e-10
2.21322e-10
2.21326e-10
2.21326e-10
2.21322e-10
2.21326e-10
2.21315e-10
2.21323e-10
2.21304e-10
2.21313e-10
2.21282e-10
2.2129e-10
2.21241e-10
2.21241e-10
2.21169e-10
2.21143e-10
2.21011e-10
2.20864e-10
2.20709e-10
2.20405e-10
2.20246e-10
2.19519e-10
2.19247e-10
2.17888e-10
2.16912e-10
2.15076e-10
2.12228e-10
2.09793e-10
2.44266e-10
2.47107e-10
2.50288e-10
2.52424e-10
2.53486e-10
2.55043e-10
2.55337e-10
2.56181e-10
2.56346e-10
2.56688e-10
2.5686e-10
2.57026e-10
2.5719e-10
2.57219e-10
2.57301e-10
2.573e-10
2.57354e-10
2.57344e-10
2.57379e-10
2.57369e-10
2.5739e-10
2.57382e-10
2.57393e-10
2.57389e-10
2.57394e-10
2.57394e-10
2.5739e-10
2.57394e-10
2.57382e-10
2.57391e-10
2.57369e-10
2.5738e-10
2.57344e-10
2.57354e-10
2.57299e-10
2.57301e-10
2.57218e-10
2.5719e-10
2.57028e-10
2.56863e-10
2.56692e-10
2.56348e-10
2.56184e-10
2.55341e-10
2.55047e-10
2.5349e-10
2.52429e-10
2.50294e-10
2.47111e-10
2.44271e-10
2.85521e-10
2.88849e-10
2.92433e-10
2.94925e-10
2.96091e-10
2.97891e-10
2.98202e-10
2.99189e-10
2.99356e-10
2.99747e-10
2.99937e-10
3.00121e-10
3.00327e-10
3.00359e-10
3.00453e-10
3.00449e-10
3.00512e-10
3.00499e-10
3.0054e-10
3.00527e-10
3.00551e-10
3.00542e-10
3.00555e-10
3.0055e-10
3.00555e-10
3.00556e-10
3.00551e-10
3.00556e-10
3.00542e-10
3.00552e-10
3.00528e-10
3.0054e-10
3.005e-10
3.00512e-10
3.00448e-10
3.00452e-10
3.00358e-10
3.00326e-10
3.00123e-10
2.9994e-10
2.99752e-10
2.9936e-10
2.99193e-10
2.98206e-10
2.97896e-10
2.96096e-10
2.94931e-10
2.92439e-10
2.88854e-10
2.85527e-10
3.35586e-10
3.39604e-10
3.43783e-10
3.46759e-10
3.48085e-10
3.50212e-10
3.50548e-10
3.51723e-10
3.51899e-10
3.52354e-10
3.52567e-10
3.52775e-10
3.53038e-10
3.53075e-10
3.53185e-10
3.53179e-10
3.53253e-10
3.53237e-10
3.53285e-10
3.53269e-10
3.53298e-10
3.53286e-10
3.53302e-10
3.53296e-10
3.53302e-10
3.53302e-10
3.53297e-10
3.53302e-10
3.53287e-10
3.53299e-10
3.5327e-10
3.53285e-10
3.53238e-10
3.53253e-10
3.53179e-10
3.53183e-10
3.53074e-10
3.53038e-10
3.52777e-10
3.52571e-10
3.52361e-10
3.51903e-10
3.51728e-10
3.50553e-10
3.50218e-10
3.48091e-10
3.46765e-10
3.43791e-10
3.3961e-10
3.35594e-10
3.96748e-10
4.01521e-10
4.06334e-10
4.09855e-10
4.11331e-10
4.13842e-10
4.14179e-10
4.1558e-10
4.15753e-10
4.16283e-10
4.16517e-10
4.16744e-10
4.17082e-10
4.17122e-10
4.1725e-10
4.17241e-10
4.17327e-10
4.17308e-10
4.17364e-10
4.17345e-10
4.17378e-10
4.17364e-10
4.17383e-10
4.17376e-10
4.17383e-10
4.17383e-10
4.17376e-10
4.17383e-10
4.17365e-10
4.1738e-10
4.17346e-10
4.17364e-10
4.17309e-10
4.17327e-10
4.17241e-10
4.17248e-10
4.17121e-10
4.17081e-10
4.16746e-10
4.1652e-10
4.1629e-10
4.15758e-10
4.15586e-10
4.14185e-10
4.13849e-10
4.11338e-10
4.09863e-10
4.06343e-10
4.01529e-10
3.96756e-10
4.72709e-10
4.78446e-10
4.84062e-10
4.88273e-10
4.89926e-10
4.92922e-10
4.93247e-10
4.94937e-10
4.95099e-10
4.95723e-10
4.9598e-10
4.96224e-10
4.96661e-10
4.96705e-10
4.96856e-10
4.96843e-10
4.96945e-10
4.96921e-10
4.96986e-10
4.96963e-10
4.97003e-10
4.96986e-10
4.97008e-10
4.97e-10
4.97008e-10
4.97008e-10
4.97e-10
4.97008e-10
4.96987e-10
4.97004e-10
4.96965e-10
4.96987e-10
4.96921e-10
4.96945e-10
4.96843e-10
4.96854e-10
4.96704e-10
4.96661e-10
4.96225e-10
4.95983e-10
4.95731e-10
4.95105e-10
4.94944e-10
4.93254e-10
4.9293e-10
4.89934e-10
4.88282e-10
4.84072e-10
4.78455e-10
4.72719e-10
5.68459e-10
5.75433e-10
5.82068e-10
5.87322e-10
5.89267e-10
5.92977e-10
5.93297e-10
5.95408e-10
5.95561e-10
5.96325e-10
5.96615e-10
5.96884e-10
5.97472e-10
5.97522e-10
5.97705e-10
5.97688e-10
5.97812e-10
5.97781e-10
5.97861e-10
5.97833e-10
5.97881e-10
5.9786e-10
5.97886e-10
5.97876e-10
5.97886e-10
5.97887e-10
5.97877e-10
5.97887e-10
5.97861e-10
5.97883e-10
5.97834e-10
5.97862e-10
5.97782e-10
5.97812e-10
5.97687e-10
5.97703e-10
5.9752e-10
5.97471e-10
5.96884e-10
5.96618e-10
5.96334e-10
5.95569e-10
5.95416e-10
5.93307e-10
5.92987e-10
5.89277e-10
5.87334e-10
5.8208e-10
5.75444e-10
5.68471e-10
6.91229e-10
6.99696e-10
7.07645e-10
7.14091e-10
7.16293e-10
7.20825e-10
7.21079e-10
7.2369e-10
7.23803e-10
7.24728e-10
7.25038e-10
7.2532e-10
7.26154e-10
7.26206e-10
7.26427e-10
7.26402e-10
7.26551e-10
7.26512e-10
7.26609e-10
7.26573e-10
7.26631e-10
7.26605e-10
7.26637e-10
7.26625e-10
7.26637e-10
7.26638e-10
7.26626e-10
7.26638e-10
7.26607e-10
7.26634e-10
7.26575e-10
7.2661e-10
7.26513e-10
7.26552e-10
7.26401e-10
7.26424e-10
7.26204e-10
7.26152e-10
7.25319e-10
7.25041e-10
7.24738e-10
7.23812e-10
7.23701e-10
7.21091e-10
7.20837e-10
7.16305e-10
7.14105e-10
7.0766e-10
6.99709e-10
6.91245e-10
8.51589e-10
8.62376e-10
8.72391e-10
8.80621e-10
8.83253e-10
8.88967e-10
8.89155e-10
8.92484e-10
8.92551e-10
8.93711e-10
8.94052e-10
8.94358e-10
8.94247e-10
8.943e-10
8.94569e-10
8.94535e-10
8.94718e-10
8.94667e-10
8.94786e-10
8.94741e-10
8.94812e-10
8.94779e-10
8.94818e-10
8.94803e-10
8.94818e-10
8.94819e-10
8.94804e-10
8.9482e-10
8.94782e-10
8.94815e-10
8.94743e-10
8.94788e-10
8.94669e-10
8.94719e-10
8.94533e-10
8.94567e-10
8.94298e-10
8.94245e-10
8.94354e-10
8.94055e-10
8.93723e-10
8.92562e-10
8.92498e-10
8.8917e-10
8.88982e-10
8.83268e-10
8.80639e-10
8.72409e-10
8.62393e-10
8.51609e-10
1.06532e-09
1.07877e-09
1.09112e-09
1.10155e-09
1.10457e-09
1.11177e-09
1.11176e-09
1.11602e-09
1.11597e-09
1.11742e-09
1.11778e-09
1.11811e-09
1.11826e-09
1.11831e-09
1.11865e-09
1.1186e-09
1.11883e-09
1.11876e-09
1.11891e-09
1.11885e-09
1.11894e-09
1.1189e-09
1.11894e-09
1.11893e-09
1.11894e-09
1.11894e-09
1.11893e-09
1.11895e-09
1.1189e-09
1.11894e-09
1.11885e-09
1.11891e-09
1.11876e-09
1.11883e-09
1.1186e-09
1.11864e-09
1.11831e-09
1.11825e-09
1.11811e-09
1.11778e-09
1.11744e-09
1.11598e-09
1.11603e-09
1.11178e-09
1.11179e-09
1.10459e-09
1.10157e-09
1.09115e-09
1.07879e-09
1.06534e-09
1.35624e-09
1.37336e-09
1.38882e-09
1.40224e-09
1.40572e-09
1.41529e-09
1.41501e-09
1.42074e-09
1.42054e-09
1.42246e-09
1.42286e-09
1.42329e-09
1.42364e-09
1.4237e-09
1.42413e-09
1.42407e-09
1.42436e-09
1.42427e-09
1.42446e-09
1.42438e-09
1.4245e-09
1.42444e-09
1.4245e-09
1.42448e-09
1.4245e-09
1.4245e-09
1.42448e-09
1.42451e-09
1.42445e-09
1.4245e-09
1.42439e-09
1.42447e-09
1.42428e-09
1.42436e-09
1.42407e-09
1.42413e-09
1.4237e-09
1.42364e-09
1.42328e-09
1.42287e-09
1.42248e-09
1.42056e-09
1.42076e-09
1.41504e-09
1.41532e-09
1.40574e-09
1.40227e-09
1.38885e-09
1.37339e-09
1.35628e-09
1.76397e-09
1.78636e-09
1.80604e-09
1.82348e-09
1.82751e-09
1.83965e-09
1.83892e-09
1.84632e-09
1.84585e-09
1.8483e-09
1.8487e-09
1.84922e-09
1.84976e-09
1.84984e-09
1.85037e-09
1.85028e-09
1.85065e-09
1.85054e-09
1.85077e-09
1.85067e-09
1.85081e-09
1.85075e-09
1.85082e-09
1.85079e-09
1.85082e-09
1.85082e-09
1.85079e-09
1.85082e-09
1.85075e-09
1.85082e-09
1.85068e-09
1.85078e-09
1.85054e-09
1.85065e-09
1.85028e-09
1.85037e-09
1.84984e-09
1.84976e-09
1.84922e-09
1.8487e-09
1.84832e-09
1.84587e-09
1.84635e-09
1.83896e-09
1.83968e-09
1.82755e-09
1.82352e-09
1.80608e-09
1.7864e-09
1.76402e-09
2.33933e-09
2.36736e-09
2.39184e-09
2.41399e-09
2.4184e-09
2.43362e-09
2.43216e-09
2.44163e-09
2.44072e-09
2.4438e-09
2.44416e-09
2.44484e-09
2.44557e-09
2.44566e-09
2.4463e-09
2.44619e-09
2.44663e-09
2.44649e-09
2.44677e-09
2.44665e-09
2.44682e-09
2.44674e-09
2.44683e-09
2.44679e-09
2.44682e-09
2.44683e-09
2.44679e-09
2.44683e-09
2.44674e-09
2.44683e-09
2.44666e-09
2.44678e-09
2.44649e-09
2.44664e-09
2.44619e-09
2.4463e-09
2.44566e-09
2.44557e-09
2.44484e-09
2.44417e-09
2.44382e-09
2.44075e-09
2.44167e-09
2.4322e-09
2.43367e-09
2.41845e-09
2.41403e-09
2.39189e-09
2.36742e-09
2.33939e-09
3.13801e-09
3.17242e-09
3.20157e-09
3.22929e-09
3.2333e-09
3.25215e-09
3.24921e-09
3.2612e-09
3.25948e-09
3.26328e-09
3.2635e-09
3.26437e-09
3.26528e-09
3.26537e-09
3.26612e-09
3.26596e-09
3.26648e-09
3.26629e-09
3.26663e-09
3.26648e-09
3.26668e-09
3.26658e-09
3.26668e-09
3.26664e-09
3.26668e-09
3.26668e-09
3.26664e-09
3.26669e-09
3.26659e-09
3.26669e-09
3.26649e-09
3.26664e-09
3.2663e-09
3.26649e-09
3.26596e-09
3.26612e-09
3.26537e-09
3.26528e-09
3.26438e-09
3.26351e-09
3.26331e-09
3.25952e-09
3.26126e-09
3.24927e-09
3.2522e-09
3.23336e-09
3.22935e-09
3.20164e-09
3.17249e-09
3.13808e-09
4.23896e-09
4.27801e-09
4.30998e-09
4.34229e-09
4.34456e-09
4.36627e-09
4.3611e-09
4.37533e-09
4.37239e-09
4.37673e-09
4.37664e-09
4.3777e-09
4.37868e-09
4.37872e-09
4.37955e-09
4.37933e-09
4.37991e-09
4.37968e-09
4.38006e-09
4.37988e-09
4.3801e-09
4.37998e-09
4.3801e-09
4.38004e-09
4.38009e-09
4.38009e-09
4.38005e-09
4.3801e-09
4.37999e-09
4.38011e-09
4.37989e-09
4.38007e-09
4.37969e-09
4.37992e-09
4.37933e-09
4.37955e-09
4.37872e-09
4.37868e-09
4.37771e-09
4.37665e-09
4.37676e-09
4.37244e-09
4.3754e-09
4.36117e-09
4.36634e-09
4.34462e-09
4.34236e-09
4.31006e-09
4.2781e-09
4.23905e-09
5.70118e-09
5.73945e-09
5.7698e-09
5.80335e-09
5.80159e-09
5.82386e-09
5.81551e-09
5.83077e-09
5.82613e-09
5.83051e-09
5.82983e-09
5.83099e-09
5.83182e-09
5.83177e-09
5.83249e-09
5.83221e-09
5.83273e-09
5.83247e-09
5.83281e-09
5.83262e-09
5.83281e-09
5.8327e-09
5.8328e-09
5.83275e-09
5.83278e-09
5.83279e-09
5.83276e-09
5.8328e-09
5.83271e-09
5.83283e-09
5.83264e-09
5.83282e-09
5.83249e-09
5.83274e-09
5.83221e-09
5.83249e-09
5.83177e-09
5.83182e-09
5.83101e-09
5.82983e-09
5.83054e-09
5.82618e-09
5.83085e-09
5.81559e-09
5.82394e-09
5.80167e-09
5.80343e-09
5.76989e-09
5.73957e-09
5.70126e-09
7.56467e-09
7.59245e-09
7.61462e-09
7.64298e-09
7.63465e-09
7.65315e-09
7.64108e-09
7.65488e-09
7.64827e-09
7.65178e-09
7.65023e-09
7.65136e-09
7.65166e-09
7.65144e-09
7.65183e-09
7.65149e-09
7.6518e-09
7.65154e-09
7.65174e-09
7.65157e-09
7.65167e-09
7.65159e-09
7.65163e-09
7.6516e-09
7.65162e-09
7.65162e-09
7.65161e-09
7.65164e-09
7.6516e-09
7.65169e-09
7.65159e-09
7.65175e-09
7.65156e-09
7.65181e-09
7.6515e-09
7.65183e-09
7.65145e-09
7.65167e-09
7.65138e-09
7.65024e-09
7.6518e-09
7.64833e-09
7.65497e-09
7.64116e-09
7.65323e-09
7.63472e-09
7.64306e-09
7.61471e-09
7.59259e-09
7.56473e-09
9.83914e-09
9.84465e-09
9.83353e-09
9.8505e-09
9.83217e-09
9.84315e-09
9.82619e-09
9.83637e-09
9.82727e-09
9.82907e-09
9.82632e-09
9.82712e-09
9.82662e-09
9.82613e-09
9.82597e-09
9.82556e-09
9.82551e-09
9.82526e-09
9.82523e-09
9.82511e-09
9.82506e-09
9.82503e-09
9.82498e-09
9.82499e-09
9.82497e-09
9.82497e-09
9.82499e-09
9.82499e-09
9.82504e-09
9.82508e-09
9.82512e-09
9.82524e-09
9.82528e-09
9.82552e-09
9.82557e-09
9.82598e-09
9.82615e-09
9.82663e-09
9.82715e-09
9.82631e-09
9.82909e-09
9.82732e-09
9.83645e-09
9.82627e-09
9.84322e-09
9.83224e-09
9.85057e-09
9.83361e-09
9.84481e-09
9.83915e-09
1.25411e-08
1.25167e-08
1.24827e-08
1.24837e-08
1.2453e-08
1.24535e-08
1.2431e-08
1.24357e-08
1.24239e-08
1.24233e-08
1.24192e-08
1.24194e-08
1.24178e-08
1.2417e-08
1.24161e-08
1.24156e-08
1.24151e-08
1.24149e-08
1.24145e-08
1.24145e-08
1.24142e-08
1.24143e-08
1.24141e-08
1.24141e-08
1.24141e-08
1.24141e-08
1.24142e-08
1.24141e-08
1.24143e-08
1.24142e-08
1.24145e-08
1.24145e-08
1.24149e-08
1.24151e-08
1.24156e-08
1.24161e-08
1.2417e-08
1.24178e-08
1.24194e-08
1.24191e-08
1.24233e-08
1.2424e-08
1.24358e-08
1.24311e-08
1.24536e-08
1.2453e-08
1.24837e-08
1.24828e-08
1.25168e-08
1.25411e-08
1.58179e-08
1.57543e-08
1.56878e-08
1.56649e-08
1.56179e-08
1.56039e-08
1.55745e-08
1.55713e-08
1.55563e-08
1.55524e-08
1.55464e-08
1.55456e-08
1.55427e-08
1.55413e-08
1.55395e-08
1.55389e-08
1.55378e-08
1.55375e-08
1.55368e-08
1.55368e-08
1.55363e-08
1.55365e-08
1.55361e-08
1.55362e-08
1.55361e-08
1.55361e-08
1.55362e-08
1.55361e-08
1.55364e-08
1.55363e-08
1.55368e-08
1.55368e-08
1.55376e-08
1.55378e-08
1.55389e-08
1.55396e-08
1.55414e-08
1.55427e-08
1.55456e-08
1.55464e-08
1.55524e-08
1.55563e-08
1.55714e-08
1.55745e-08
1.5604e-08
1.56179e-08
1.56649e-08
1.56878e-08
1.57543e-08
1.58179e-08
1.98534e-08
1.9737e-08
1.96265e-08
1.95709e-08
1.95031e-08
1.94697e-08
1.94317e-08
1.94175e-08
1.93988e-08
1.93903e-08
1.93822e-08
1.93797e-08
1.93751e-08
1.9373e-08
1.937e-08
1.93691e-08
1.93672e-08
1.9367e-08
1.93658e-08
1.93659e-08
1.93651e-08
1.93653e-08
1.93648e-08
1.93649e-08
1.93647e-08
1.93647e-08
1.93649e-08
1.93648e-08
1.93653e-08
1.93651e-08
1.93659e-08
1.93658e-08
1.9367e-08
1.93672e-08
1.93691e-08
1.937e-08
1.9373e-08
1.93751e-08
1.93797e-08
1.93822e-08
1.93903e-08
1.93988e-08
1.94175e-08
1.94317e-08
1.94697e-08
1.95031e-08
1.95709e-08
1.96265e-08
1.97369e-08
1.98535e-08
2.4739e-08
2.45499e-08
2.43803e-08
2.42785e-08
2.41839e-08
2.41236e-08
2.40754e-08
2.40453e-08
2.40225e-08
2.40076e-08
2.39969e-08
2.39917e-08
2.3985e-08
2.39817e-08
2.39773e-08
2.3976e-08
2.39731e-08
2.39729e-08
2.3971e-08
2.39712e-08
2.397e-08
2.39703e-08
2.39696e-08
2.39698e-08
2.39695e-08
2.39695e-08
2.39698e-08
2.39695e-08
2.39703e-08
2.397e-08
2.39712e-08
2.3971e-08
2.39729e-08
2.39732e-08
2.39761e-08
2.39773e-08
2.39818e-08
2.3985e-08
2.39917e-08
2.39969e-08
2.40076e-08
2.40225e-08
2.40453e-08
2.40754e-08
2.41235e-08
2.41839e-08
2.42784e-08
2.43803e-08
2.45496e-08
2.4739e-08
3.02051e-08
2.9923e-08
2.96807e-08
2.95182e-08
2.93925e-08
2.92971e-08
2.92383e-08
2.91868e-08
2.91602e-08
2.91367e-08
2.91231e-08
2.91141e-08
2.91049e-08
2.91002e-08
2.9094e-08
2.90922e-08
2.90882e-08
2.90879e-08
2.90852e-08
2.90855e-08
2.90838e-08
2.90843e-08
2.90832e-08
2.90835e-08
2.90831e-08
2.90831e-08
2.90835e-08
2.90832e-08
2.90842e-08
2.90838e-08
2.90855e-08
2.90852e-08
2.90879e-08
2.90882e-08
2.90923e-08
2.90941e-08
2.91003e-08
2.9105e-08
2.91141e-08
2.91231e-08
2.91366e-08
2.91602e-08
2.91868e-08
2.92382e-08
2.9297e-08
2.93923e-08
2.95181e-08
2.96806e-08
2.99226e-08
3.02051e-08
3.52009e-08
3.4822e-08
3.45081e-08
3.4281e-08
3.41262e-08
3.39939e-08
3.39263e-08
3.38518e-08
3.38225e-08
3.37899e-08
3.37737e-08
3.37605e-08
3.3749e-08
3.37427e-08
3.37348e-08
3.37325e-08
3.37273e-08
3.37268e-08
3.37235e-08
3.37239e-08
3.37217e-08
3.37222e-08
3.37209e-08
3.37213e-08
3.37207e-08
3.37207e-08
3.37212e-08
3.37208e-08
3.37221e-08
3.37216e-08
3.37238e-08
3.37235e-08
3.37268e-08
3.37273e-08
3.37325e-08
3.37349e-08
3.37428e-08
3.37491e-08
3.37605e-08
3.37737e-08
3.37897e-08
3.38224e-08
3.38517e-08
3.39262e-08
3.39938e-08
3.4126e-08
3.42808e-08
3.45079e-08
3.48216e-08
3.52008e-08
3.77763e-08
3.73412e-08
3.69891e-08
3.67238e-08
3.65544e-08
3.64008e-08
3.63294e-08
3.62413e-08
3.62113e-08
3.61732e-08
3.6156e-08
3.614e-08
3.61274e-08
3.612e-08
3.61114e-08
3.61085e-08
3.61029e-08
3.61022e-08
3.60986e-08
3.60989e-08
3.60966e-08
3.60971e-08
3.60956e-08
3.6096e-08
3.60954e-08
3.60954e-08
3.60959e-08
3.60955e-08
3.6097e-08
3.60964e-08
3.60988e-08
3.60986e-08
3.61022e-08
3.61029e-08
3.61086e-08
3.61114e-08
3.61201e-08
3.61275e-08
3.61399e-08
3.61559e-08
3.61731e-08
3.62112e-08
3.62412e-08
3.63293e-08
3.64006e-08
3.65542e-08
3.67236e-08
3.69888e-08
3.73408e-08
3.77761e-08
)
;

boundaryField
{
    fuel
    {
        type            fixedValue;
        value           nonuniform 0();
    }
    wall
    {
        type            zeroGradient;
    }
    outlet
    {
        type            zeroGradient;
    }
    frontAndBack
    {
        type            empty;
    }
    procBoundary3to2
    {
        type            processor;
        value           nonuniform List<scalar> 
51
(
2.54999e-11
2.55129e-11
2.55179e-11
2.55263e-11
2.55279e-11
2.55334e-11
2.55335e-11
2.5537e-11
2.55366e-11
2.55387e-11
2.55383e-11
2.55395e-11
2.55392e-11
2.55396e-11
2.55396e-11
2.55392e-11
2.55395e-11
2.55384e-11
2.55388e-11
2.55367e-11
2.5537e-11
2.55335e-11
2.55333e-11
2.55278e-11
2.55262e-11
2.55178e-11
2.55129e-11
2.55007e-11
2.5486e-11
2.54639e-11
2.5428e-11
2.53929e-11
2.5314e-11
2.52488e-11
2.5095e-11
2.49199e-11
2.47066e-11
2.43687e-11
2.41396e-11
2.67694e-11
2.70447e-11
2.74459e-11
2.7694e-11
2.78981e-11
2.80785e-11
2.81586e-11
2.82529e-11
2.8294e-11
2.83357e-11
2.83607e-11
2.83607e-11
)
;
    }
}


// ************************************************************************* //
