/*--------------------------------*- C++ -*----------------------------------*\
| =========                 |                                                 |
| \\      /  F ield         | OpenFOAM: The Open Source CFD Toolbox           |
|  \\    /   O peration     | Version:  dev                                   |
|   \\  /    A nd           | Web:      www.OpenFOAM.org                      |
|    \\/     M anipulation  |                                                 |
\*---------------------------------------------------------------------------*/
FoamFile
{
    version     2.0;
    format      ascii;
    class       volScalarField;
    location    "0.06";
    object      OH;
}
// * * * * * * * * * * * * * * * * * * * * * * * * * * * * * * * * * * * * * //

dimensions      [0 0 0 0 0 0 0];

internalField   nonuniform List<scalar> 
1989
(
1.86343e-06
1.86202e-06
1.86138e-06
1.8605e-06
1.8603e-06
1.85977e-06
1.85974e-06
1.85941e-06
1.85944e-06
1.85924e-06
1.85928e-06
1.85917e-06
1.85919e-06
1.85915e-06
1.85915e-06
1.85919e-06
1.85916e-06
1.85927e-06
1.85924e-06
1.85944e-06
1.85941e-06
1.85974e-06
1.85977e-06
1.8603e-06
1.86051e-06
1.86139e-06
1.86203e-06
1.86339e-06
1.86506e-06
1.86745e-06
1.87129e-06
1.87555e-06
1.88349e-06
1.89115e-06
1.90658e-06
1.92538e-06
1.9473e-06
1.98203e-06
2.00275e-06
1.77937e-06
1.76005e-06
1.72806e-06
1.70804e-06
1.69082e-06
1.67686e-06
1.66991e-06
1.66264e-06
1.65881e-06
1.65539e-06
1.65326e-06
1.65184e-06
1.65058e-06
1.65003e-06
1.64924e-06
1.64908e-06
1.6486e-06
1.64858e-06
1.64829e-06
1.64832e-06
1.64814e-06
1.64817e-06
1.64807e-06
1.64809e-06
1.64806e-06
1.64806e-06
1.64809e-06
1.64807e-06
1.64817e-06
1.64813e-06
1.64831e-06
1.64829e-06
1.64858e-06
1.6486e-06
1.64908e-06
1.64925e-06
1.65004e-06
1.65058e-06
1.65179e-06
1.65327e-06
1.65539e-06
1.65881e-06
1.66263e-06
1.6699e-06
1.67686e-06
1.69081e-06
1.70807e-06
1.72806e-06
1.76003e-06
1.77936e-06
1.57382e-06
1.55586e-06
1.52652e-06
1.50852e-06
1.49277e-06
1.48013e-06
1.47385e-06
1.46721e-06
1.46376e-06
1.46077e-06
1.45889e-06
1.45769e-06
1.45658e-06
1.45611e-06
1.45542e-06
1.45529e-06
1.45487e-06
1.45486e-06
1.4546e-06
1.45463e-06
1.45447e-06
1.4545e-06
1.4544e-06
1.45442e-06
1.4544e-06
1.45439e-06
1.45442e-06
1.4544e-06
1.45449e-06
1.45446e-06
1.45462e-06
1.45459e-06
1.45486e-06
1.45486e-06
1.45529e-06
1.45542e-06
1.45611e-06
1.45657e-06
1.45763e-06
1.4589e-06
1.46079e-06
1.46377e-06
1.4672e-06
1.47383e-06
1.48012e-06
1.49276e-06
1.50854e-06
1.52651e-06
1.55585e-06
1.57381e-06
1.38382e-06
1.36691e-06
1.33994e-06
1.32391e-06
1.31181e-06
1.30034e-06
1.2947e-06
1.28865e-06
1.28545e-06
1.28226e-06
1.28034e-06
1.2789e-06
1.27779e-06
1.27725e-06
1.27654e-06
1.27636e-06
1.27592e-06
1.27588e-06
1.27561e-06
1.27562e-06
1.27546e-06
1.27548e-06
1.2754e-06
1.27542e-06
1.27539e-06
1.27539e-06
1.27542e-06
1.2754e-06
1.27548e-06
1.27546e-06
1.27562e-06
1.27561e-06
1.27588e-06
1.27592e-06
1.27636e-06
1.27655e-06
1.27726e-06
1.27779e-06
1.27889e-06
1.28028e-06
1.2822e-06
1.2854e-06
1.28863e-06
1.29468e-06
1.30033e-06
1.31179e-06
1.32391e-06
1.33993e-06
1.3669e-06
1.38381e-06
1.21212e-06
1.19643e-06
1.17199e-06
1.15794e-06
1.14717e-06
1.13684e-06
1.1318e-06
1.12631e-06
1.12345e-06
1.12064e-06
1.11895e-06
1.11769e-06
1.11671e-06
1.11625e-06
1.11562e-06
1.11547e-06
1.11508e-06
1.11505e-06
1.11481e-06
1.11482e-06
1.11468e-06
1.1147e-06
1.11462e-06
1.11464e-06
1.11462e-06
1.11462e-06
1.11464e-06
1.11462e-06
1.1147e-06
1.11467e-06
1.11482e-06
1.11481e-06
1.11505e-06
1.11508e-06
1.11547e-06
1.11563e-06
1.11626e-06
1.11671e-06
1.11767e-06
1.11889e-06
1.1206e-06
1.12342e-06
1.12629e-06
1.13178e-06
1.13683e-06
1.14716e-06
1.15794e-06
1.17198e-06
1.19642e-06
1.2121e-06
1.05549e-06
1.04183e-06
1.01971e-06
1.00546e-06
9.9577e-07
9.8641e-07
9.8185e-07
9.76851e-07
9.74293e-07
9.71796e-07
9.703e-07
9.69199e-07
9.68328e-07
9.67929e-07
9.67372e-07
9.67242e-07
9.66895e-07
9.6687e-07
9.66656e-07
9.6667e-07
9.66543e-07
9.66563e-07
9.66494e-07
9.6651e-07
9.66488e-07
9.66488e-07
9.66509e-07
9.66492e-07
9.66561e-07
9.66539e-07
9.66668e-07
9.66654e-07
9.66869e-07
9.66895e-07
9.67244e-07
9.67377e-07
9.67934e-07
9.6833e-07
9.69177e-07
9.70253e-07
9.71775e-07
9.74269e-07
9.76831e-07
9.81828e-07
9.86396e-07
9.95755e-07
1.00546e-06
1.01971e-06
1.04181e-06
1.05548e-06
9.1471e-07
9.02318e-07
8.82359e-07
8.69858e-07
8.61368e-07
8.5303e-07
8.48991e-07
8.44498e-07
8.4227e-07
8.4008e-07
8.38779e-07
8.37823e-07
8.37062e-07
8.36722e-07
8.36234e-07
8.36126e-07
8.3582e-07
8.35803e-07
8.35613e-07
8.35629e-07
8.35516e-07
8.35535e-07
8.35474e-07
8.35488e-07
8.35469e-07
8.35469e-07
8.35487e-07
8.35472e-07
8.35533e-07
8.35513e-07
8.35626e-07
8.35611e-07
8.35802e-07
8.3582e-07
8.36128e-07
8.36238e-07
8.36726e-07
8.37063e-07
8.378e-07
8.38741e-07
8.40066e-07
8.42254e-07
8.4448e-07
8.4897e-07
8.53015e-07
8.61354e-07
8.69853e-07
8.82358e-07
9.02306e-07
9.14698e-07
7.88166e-07
7.76934e-07
7.59246e-07
7.4818e-07
7.40819e-07
7.33446e-07
7.29886e-07
7.2587e-07
7.23952e-07
7.22038e-07
7.20915e-07
7.20093e-07
7.19429e-07
7.19142e-07
7.18716e-07
7.18628e-07
7.1836e-07
7.18348e-07
7.18182e-07
7.18198e-07
7.18098e-07
7.18117e-07
7.18063e-07
7.18076e-07
7.18058e-07
7.18058e-07
7.18075e-07
7.18061e-07
7.18115e-07
7.18095e-07
7.18195e-07
7.1818e-07
7.18347e-07
7.18359e-07
7.18629e-07
7.18719e-07
7.19145e-07
7.1943e-07
7.20069e-07
7.20889e-07
7.22025e-07
7.23943e-07
7.25854e-07
7.29868e-07
7.33432e-07
7.40806e-07
7.48174e-07
7.59247e-07
7.76924e-07
7.88156e-07
6.74758e-07
6.64124e-07
6.48329e-07
6.39563e-07
6.33267e-07
6.26808e-07
6.23686e-07
6.20116e-07
6.18485e-07
6.16822e-07
6.15862e-07
6.15158e-07
6.14585e-07
6.14344e-07
6.13975e-07
6.13904e-07
6.1367e-07
6.13664e-07
6.13518e-07
6.13534e-07
6.13447e-07
6.13465e-07
6.13417e-07
6.13429e-07
6.13413e-07
6.13413e-07
6.13428e-07
6.13415e-07
6.13463e-07
6.13444e-07
6.13532e-07
6.13516e-07
6.13662e-07
6.13669e-07
6.13905e-07
6.13977e-07
6.14347e-07
6.14585e-07
6.15137e-07
6.15845e-07
6.16807e-07
6.18483e-07
6.20102e-07
6.2367e-07
6.26794e-07
6.33256e-07
6.39557e-07
6.48327e-07
6.64113e-07
6.74745e-07
5.74128e-07
5.64523e-07
5.50814e-07
5.43123e-07
5.37184e-07
5.31262e-07
5.28342e-07
5.25053e-07
5.23601e-07
5.22126e-07
5.21261e-07
5.20626e-07
5.20115e-07
5.19898e-07
5.1957e-07
5.19505e-07
5.19297e-07
5.1929e-07
5.1916e-07
5.19174e-07
5.19097e-07
5.19112e-07
5.1907e-07
5.19081e-07
5.19068e-07
5.19067e-07
5.1908e-07
5.19069e-07
5.19111e-07
5.19095e-07
5.19172e-07
5.19159e-07
5.19289e-07
5.19297e-07
5.19506e-07
5.19572e-07
5.19901e-07
5.20115e-07
5.20607e-07
5.21246e-07
5.22109e-07
5.236e-07
5.25041e-07
5.28326e-07
5.3125e-07
5.37172e-07
5.43119e-07
5.50813e-07
5.64513e-07
5.74117e-07
4.85155e-07
4.7653e-07
4.64697e-07
4.58017e-07
4.52973e-07
4.47848e-07
4.45268e-07
4.42339e-07
4.4112e-07
4.39857e-07
4.39119e-07
4.38578e-07
4.38138e-07
4.37957e-07
4.37675e-07
4.37622e-07
4.37443e-07
4.37439e-07
4.37327e-07
4.3734e-07
4.37273e-07
4.37288e-07
4.37251e-07
4.37261e-07
4.37249e-07
4.37249e-07
4.3726e-07
4.3725e-07
4.37286e-07
4.37272e-07
4.37339e-07
4.37326e-07
4.37438e-07
4.37443e-07
4.37623e-07
4.37677e-07
4.3796e-07
4.38138e-07
4.38562e-07
4.39107e-07
4.39844e-07
4.41119e-07
4.42329e-07
4.45255e-07
4.47837e-07
4.52963e-07
4.58012e-07
4.64695e-07
4.76522e-07
4.85145e-07
4.0698e-07
3.9928e-07
3.89105e-07
3.83188e-07
3.78809e-07
3.74305e-07
3.71942e-07
3.69812e-07
3.688e-07
3.67724e-07
3.67099e-07
3.66641e-07
3.66264e-07
3.66114e-07
3.65873e-07
3.65831e-07
3.65677e-07
3.65675e-07
3.65579e-07
3.65592e-07
3.65534e-07
3.65547e-07
3.65515e-07
3.65524e-07
3.65514e-07
3.65513e-07
3.65523e-07
3.65514e-07
3.65546e-07
3.65532e-07
3.6559e-07
3.65578e-07
3.65674e-07
3.65676e-07
3.65832e-07
3.65874e-07
3.66116e-07
3.66264e-07
3.66627e-07
3.6709e-07
3.67715e-07
3.68798e-07
3.69804e-07
3.71931e-07
3.74295e-07
3.78801e-07
3.83183e-07
3.89103e-07
3.99273e-07
4.06972e-07
3.37574e-07
3.30729e-07
3.22084e-07
3.1707e-07
3.13409e-07
3.09612e-07
3.08458e-07
3.06618e-07
3.05786e-07
3.04876e-07
3.04349e-07
3.03965e-07
3.03643e-07
3.0352e-07
3.03315e-07
3.03282e-07
3.03151e-07
3.03151e-07
3.03069e-07
3.0308e-07
3.03031e-07
3.03043e-07
3.03016e-07
3.03023e-07
3.03015e-07
3.03014e-07
3.03023e-07
3.03015e-07
3.03042e-07
3.0303e-07
3.03079e-07
3.03068e-07
3.0315e-07
3.0315e-07
3.03282e-07
3.03316e-07
3.03521e-07
3.03643e-07
3.03953e-07
3.04343e-07
3.04869e-07
3.05784e-07
3.06612e-07
3.08449e-07
3.09604e-07
3.13402e-07
3.17066e-07
3.22082e-07
3.30723e-07
3.37568e-07
2.77361e-07
2.72296e-07
2.64929e-07
2.60715e-07
2.57678e-07
2.54476e-07
2.535e-07
2.51926e-07
2.51248e-07
2.50485e-07
2.50045e-07
2.49723e-07
2.49451e-07
2.4935e-07
2.49178e-07
2.49152e-07
2.49041e-07
2.49042e-07
2.48973e-07
2.48984e-07
2.48942e-07
2.48952e-07
2.48929e-07
2.48936e-07
2.48928e-07
2.48928e-07
2.48935e-07
2.48928e-07
2.48951e-07
2.4894e-07
2.48982e-07
2.48972e-07
2.49042e-07
2.4904e-07
2.49152e-07
2.49179e-07
2.49351e-07
2.49451e-07
2.49714e-07
2.50041e-07
2.50479e-07
2.51247e-07
2.51921e-07
2.53493e-07
2.5447e-07
2.57672e-07
2.60711e-07
2.64927e-07
2.72291e-07
2.77355e-07
2.26353e-07
2.21948e-07
2.15788e-07
2.12252e-07
2.09759e-07
2.07082e-07
2.06268e-07
2.04934e-07
2.04389e-07
2.03753e-07
2.03392e-07
2.03123e-07
2.02893e-07
2.02812e-07
2.02667e-07
2.02648e-07
2.02554e-07
2.02557e-07
2.02498e-07
2.02508e-07
2.02473e-07
2.02482e-07
2.02463e-07
2.02468e-07
2.02462e-07
2.02462e-07
2.02468e-07
2.02462e-07
2.02481e-07
2.02472e-07
2.02507e-07
2.02498e-07
2.02556e-07
2.02554e-07
2.02648e-07
2.02668e-07
2.02813e-07
2.02893e-07
2.03114e-07
2.03389e-07
2.03748e-07
2.04388e-07
2.0493e-07
2.06263e-07
2.07076e-07
2.09754e-07
2.12249e-07
2.15785e-07
2.21944e-07
2.26348e-07
1.82701e-07
1.78952e-07
1.73857e-07
1.70908e-07
1.68885e-07
1.66666e-07
1.65999e-07
1.6488e-07
1.64446e-07
1.63921e-07
1.63629e-07
1.63405e-07
1.63213e-07
1.63147e-07
1.63028e-07
1.63013e-07
1.62935e-07
1.62939e-07
1.6289e-07
1.62898e-07
1.62869e-07
1.62877e-07
1.62861e-07
1.62866e-07
1.6286e-07
1.6286e-07
1.62865e-07
1.6286e-07
1.62876e-07
1.62868e-07
1.62898e-07
1.62889e-07
1.62938e-07
1.62935e-07
1.63013e-07
1.63029e-07
1.63148e-07
1.63213e-07
1.63399e-07
1.63625e-07
1.63918e-07
1.64446e-07
1.64877e-07
1.65995e-07
1.66661e-07
1.6888e-07
1.70905e-07
1.73855e-07
1.78949e-07
1.82697e-07
1.45694e-07
1.42527e-07
1.38394e-07
1.35942e-07
1.34325e-07
1.32506e-07
1.31969e-07
1.3104e-07
1.30699e-07
1.30271e-07
1.30036e-07
1.29853e-07
1.29692e-07
1.2964e-07
1.29542e-07
1.29531e-07
1.29468e-07
1.29471e-07
1.29431e-07
1.29439e-07
1.29415e-07
1.29421e-07
1.29408e-07
1.29412e-07
1.29408e-07
1.29407e-07
1.29412e-07
1.29408e-07
1.29421e-07
1.29414e-07
1.29438e-07
1.29431e-07
1.29471e-07
1.29467e-07
1.29532e-07
1.29543e-07
1.29641e-07
1.29692e-07
1.29849e-07
1.30033e-07
1.30269e-07
1.30699e-07
1.31037e-07
1.31966e-07
1.32502e-07
1.34322e-07
1.35939e-07
1.38392e-07
1.42525e-07
1.45691e-07
1.14626e-07
1.11986e-07
1.08683e-07
1.06672e-07
1.05396e-07
1.03922e-07
1.03498e-07
1.02736e-07
1.02474e-07
1.02129e-07
1.01942e-07
1.01795e-07
1.0166e-07
1.01619e-07
1.0154e-07
1.01532e-07
1.01481e-07
1.01484e-07
1.01452e-07
1.01458e-07
1.01439e-07
1.01444e-07
1.01433e-07
1.01437e-07
1.01433e-07
1.01433e-07
1.01437e-07
1.01433e-07
1.01444e-07
1.01438e-07
1.01458e-07
1.01451e-07
1.01484e-07
1.01481e-07
1.01533e-07
1.01541e-07
1.0162e-07
1.0166e-07
1.01792e-07
1.0194e-07
1.02127e-07
1.02473e-07
1.02734e-07
1.03495e-07
1.03919e-07
1.05393e-07
1.06669e-07
1.08681e-07
1.11984e-07
1.14623e-07
8.87445e-08
8.65327e-08
8.38864e-08
8.2244e-08
8.12378e-08
8.0052e-08
7.9718e-08
7.91e-08
7.88979e-08
7.86229e-08
7.84753e-08
7.83584e-08
7.82442e-08
7.82122e-08
7.8149e-08
7.81432e-08
7.81019e-08
7.81049e-08
7.80788e-08
7.80842e-08
7.80685e-08
7.80731e-08
7.80644e-08
7.80671e-08
7.80643e-08
7.80641e-08
7.8067e-08
7.80642e-08
7.80728e-08
7.8068e-08
7.80838e-08
7.80785e-08
7.81046e-08
7.81017e-08
7.81433e-08
7.81495e-08
7.82126e-08
7.82442e-08
7.83556e-08
7.84734e-08
7.86212e-08
7.88974e-08
7.90985e-08
7.97162e-08
8.00497e-08
8.12356e-08
8.22421e-08
8.38847e-08
8.65309e-08
8.87421e-08
6.7589e-08
6.57972e-08
6.3739e-08
6.24352e-08
6.16657e-08
6.07318e-08
6.04791e-08
5.99873e-08
5.98371e-08
5.96221e-08
5.95085e-08
5.94182e-08
5.93221e-08
5.92977e-08
5.92482e-08
5.92442e-08
5.92117e-08
5.92144e-08
5.91938e-08
5.91984e-08
5.91859e-08
5.91897e-08
5.91829e-08
5.9185e-08
5.91827e-08
5.91827e-08
5.91849e-08
5.91827e-08
5.91894e-08
5.91855e-08
5.9198e-08
5.91936e-08
5.92142e-08
5.92115e-08
5.92443e-08
5.92485e-08
5.92981e-08
5.93221e-08
5.94161e-08
5.95072e-08
5.96208e-08
5.98366e-08
5.99862e-08
6.04778e-08
6.073e-08
6.1664e-08
6.24337e-08
6.37375e-08
6.57958e-08
6.75871e-08
5.04889e-08
4.90611e-08
4.74896e-08
4.64767e-08
4.59005e-08
4.51786e-08
4.49929e-08
4.46089e-08
4.45001e-08
4.43353e-08
4.42496e-08
4.41817e-08
4.41005e-08
4.40823e-08
4.40441e-08
4.40415e-08
4.40165e-08
4.40189e-08
4.40029e-08
4.40066e-08
4.3997e-08
4.4e-08
4.39947e-08
4.39964e-08
4.39946e-08
4.39946e-08
4.39963e-08
4.39945e-08
4.39998e-08
4.39967e-08
4.40063e-08
4.40027e-08
4.40187e-08
4.40163e-08
4.40416e-08
4.40444e-08
4.40825e-08
4.41005e-08
4.41802e-08
4.42486e-08
4.43343e-08
4.44996e-08
4.46081e-08
4.49919e-08
4.51773e-08
4.58992e-08
4.64755e-08
4.74885e-08
4.906e-08
5.04873e-08
3.69001e-08
3.57813e-08
3.46081e-08
3.38193e-08
3.33881e-08
3.2831e-08
3.26953e-08
3.23969e-08
3.23186e-08
3.21931e-08
3.21287e-08
3.20781e-08
3.20073e-08
3.19938e-08
3.19647e-08
3.1963e-08
3.19438e-08
3.19458e-08
3.19336e-08
3.19365e-08
3.19292e-08
3.19315e-08
3.19274e-08
3.19288e-08
3.19274e-08
3.19274e-08
3.19287e-08
3.19273e-08
3.19314e-08
3.19289e-08
3.19363e-08
3.19335e-08
3.19457e-08
3.19437e-08
3.19631e-08
3.19649e-08
3.1994e-08
3.20073e-08
3.20771e-08
3.21279e-08
3.21924e-08
3.23183e-08
3.23962e-08
3.26946e-08
3.283e-08
3.33871e-08
3.38184e-08
3.46072e-08
3.57805e-08
3.68989e-08
2.63059e-08
2.54615e-08
2.46074e-08
2.40199e-08
2.37118e-08
2.32994e-08
2.32059e-08
2.29829e-08
2.29295e-08
2.28375e-08
2.27913e-08
2.27558e-08
2.26919e-08
2.26824e-08
2.26609e-08
2.266e-08
2.26458e-08
2.26475e-08
2.26384e-08
2.26407e-08
2.26352e-08
2.2637e-08
2.2634e-08
2.2635e-08
2.2634e-08
2.26339e-08
2.26349e-08
2.26339e-08
2.26369e-08
2.2635e-08
2.26405e-08
2.26383e-08
2.26474e-08
2.26457e-08
2.266e-08
2.26611e-08
2.26825e-08
2.26919e-08
2.27553e-08
2.27908e-08
2.2837e-08
2.29292e-08
2.29825e-08
2.32054e-08
2.32987e-08
2.37111e-08
2.40192e-08
2.46067e-08
2.5461e-08
2.63049e-08
1.82405e-08
1.76095e-08
1.69885e-08
1.65556e-08
1.63377e-08
1.60384e-08
1.59746e-08
1.58116e-08
1.57757e-08
1.57095e-08
1.56772e-08
1.56533e-08
1.56509e-08
1.56445e-08
1.56292e-08
1.56286e-08
1.56185e-08
1.56198e-08
1.56133e-08
1.5615e-08
1.5611e-08
1.56124e-08
1.56102e-08
1.56109e-08
1.56102e-08
1.56102e-08
1.56109e-08
1.56101e-08
1.56123e-08
1.56109e-08
1.56149e-08
1.56132e-08
1.56197e-08
1.56184e-08
1.56287e-08
1.56293e-08
1.56446e-08
1.56509e-08
1.5653e-08
1.56769e-08
1.57091e-08
1.57755e-08
1.58113e-08
1.59742e-08
1.60379e-08
1.63372e-08
1.65551e-08
1.6988e-08
1.76092e-08
1.82397e-08
1.22738e-08
1.18297e-08
1.14005e-08
1.1096e-08
1.09493e-08
1.07407e-08
1.07003e-08
1.05857e-08
1.0563e-08
1.05172e-08
1.0496e-08
1.04806e-08
1.04774e-08
1.04732e-08
1.04626e-08
1.04624e-08
1.04554e-08
1.04564e-08
1.04518e-08
1.0453e-08
1.04503e-08
1.04513e-08
1.04498e-08
1.04503e-08
1.04497e-08
1.04497e-08
1.04502e-08
1.04497e-08
1.04512e-08
1.04502e-08
1.0453e-08
1.04518e-08
1.04563e-08
1.04553e-08
1.04625e-08
1.04627e-08
1.04733e-08
1.04775e-08
1.04805e-08
1.04958e-08
1.05169e-08
1.05629e-08
1.05855e-08
1.07e-08
1.07404e-08
1.09489e-08
1.10956e-08
1.14002e-08
1.18295e-08
1.22733e-08
7.99839e-09
7.6959e-09
7.41006e-09
7.20317e-09
7.10797e-09
6.96327e-09
6.93808e-09
6.85819e-09
6.8441e-09
6.8126e-09
6.79889e-09
6.78901e-09
6.78569e-09
6.78299e-09
6.77577e-09
6.7757e-09
6.7709e-09
6.77162e-09
6.76854e-09
6.76941e-09
6.76755e-09
6.76822e-09
6.7672e-09
6.76756e-09
6.76721e-09
6.7672e-09
6.76753e-09
6.76716e-09
6.76817e-09
6.76748e-09
6.76935e-09
6.7685e-09
6.77158e-09
6.77086e-09
6.77571e-09
6.77582e-09
6.78302e-09
6.78571e-09
6.78897e-09
6.79875e-09
6.81238e-09
6.84397e-09
6.85801e-09
6.93787e-09
6.963e-09
7.10771e-09
7.20292e-09
7.40982e-09
7.69579e-09
7.99797e-09
5.00947e-09
4.80864e-09
4.62579e-09
4.49135e-09
4.43171e-09
4.339e-09
4.32403e-09
4.27241e-09
4.26414e-09
4.24399e-09
4.23571e-09
4.22976e-09
4.22703e-09
4.22534e-09
4.22077e-09
4.22074e-09
4.21768e-09
4.21816e-09
4.2162e-09
4.21676e-09
4.21558e-09
4.21601e-09
4.21535e-09
4.21559e-09
4.21536e-09
4.21535e-09
4.21557e-09
4.21533e-09
4.21597e-09
4.21553e-09
4.21672e-09
4.21617e-09
4.21813e-09
4.21766e-09
4.22074e-09
4.2208e-09
4.22536e-09
4.22704e-09
4.22977e-09
4.23563e-09
4.24385e-09
4.26406e-09
4.2723e-09
4.32389e-09
4.33883e-09
4.43153e-09
4.49119e-09
4.62563e-09
4.80862e-09
5.00914e-09
3.01192e-09
2.88832e-09
2.77623e-09
2.69366e-09
2.6579e-09
2.6013e-09
2.59278e-09
2.56098e-09
2.55635e-09
2.54404e-09
2.53927e-09
2.53583e-09
2.53382e-09
2.5328e-09
2.53004e-09
2.53002e-09
2.52818e-09
2.52846e-09
2.52728e-09
2.52762e-09
2.5269e-09
2.52716e-09
2.52677e-09
2.52691e-09
2.52677e-09
2.52677e-09
2.5269e-09
2.52676e-09
2.52714e-09
2.52687e-09
2.52759e-09
2.52726e-09
2.52845e-09
2.52816e-09
2.53003e-09
2.53006e-09
2.53281e-09
2.53383e-09
2.53586e-09
2.53922e-09
2.54396e-09
2.5563e-09
2.56091e-09
2.59269e-09
2.6012e-09
2.65779e-09
2.69356e-09
2.77613e-09
2.8883e-09
3.01172e-09
1.74911e-09
1.67519e-09
1.60945e-09
1.55993e-09
1.5396e-09
1.50592e-09
1.50158e-09
1.48245e-09
1.4801e-09
1.4728e-09
1.47017e-09
1.46825e-09
1.46687e-09
1.46628e-09
1.46467e-09
1.46467e-09
1.46359e-09
1.46376e-09
1.46307e-09
1.46327e-09
1.46285e-09
1.46301e-09
1.46277e-09
1.46286e-09
1.46278e-09
1.46277e-09
1.46285e-09
1.46277e-09
1.46299e-09
1.46283e-09
1.46326e-09
1.46306e-09
1.46375e-09
1.46358e-09
1.46467e-09
1.46468e-09
1.46629e-09
1.46688e-09
1.46827e-09
1.47015e-09
1.47275e-09
1.48007e-09
1.48241e-09
1.50153e-09
1.50586e-09
1.53954e-09
1.55987e-09
1.60939e-09
1.67518e-09
1.74899e-09
9.71223e-10
9.28848e-10
8.92293e-10
8.64017e-10
8.53073e-10
8.33998e-10
8.31969e-10
8.21013e-10
8.1992e-10
8.1579e-10
8.14423e-10
8.13379e-10
8.12519e-10
8.12193e-10
8.11278e-10
8.11285e-10
8.1067e-10
8.10774e-10
8.10378e-10
8.10495e-10
8.10257e-10
8.10346e-10
8.10215e-10
8.10262e-10
8.10217e-10
8.10215e-10
8.10259e-10
8.1021e-10
8.1034e-10
8.10247e-10
8.10487e-10
8.10373e-10
8.10768e-10
8.10666e-10
8.11287e-10
8.11286e-10
8.12198e-10
8.12523e-10
8.13393e-10
8.1441e-10
8.15763e-10
8.19904e-10
8.2099e-10
8.31941e-10
8.33965e-10
8.53039e-10
8.63984e-10
8.9226e-10
9.28854e-10
9.7114e-10
5.13825e-10
4.9102e-10
4.71679e-10
4.56416e-10
4.50876e-10
4.40658e-10
4.39812e-10
4.33872e-10
4.33419e-10
4.31206e-10
4.30538e-10
4.29995e-10
4.29502e-10
4.2933e-10
4.2885e-10
4.28855e-10
4.28531e-10
4.28587e-10
4.28379e-10
4.28441e-10
4.28315e-10
4.28363e-10
4.28293e-10
4.28318e-10
4.28295e-10
4.28293e-10
4.28316e-10
4.28291e-10
4.28359e-10
4.2831e-10
4.28437e-10
4.28376e-10
4.28584e-10
4.28529e-10
4.28856e-10
4.28854e-10
4.29333e-10
4.29505e-10
4.30002e-10
4.30531e-10
4.31192e-10
4.33411e-10
4.33859e-10
4.39797e-10
4.40641e-10
4.50858e-10
4.56399e-10
4.71661e-10
4.91023e-10
5.1378e-10
2.58e-10
2.46434e-10
2.36787e-10
2.29148e-10
2.26495e-10
2.21424e-10
2.21082e-10
2.18099e-10
2.17922e-10
2.16818e-10
2.16509e-10
2.16238e-10
2.15986e-10
2.15899e-10
2.15665e-10
2.15666e-10
2.15508e-10
2.15535e-10
2.15433e-10
2.15464e-10
2.15402e-10
2.15425e-10
2.15392e-10
2.15404e-10
2.15392e-10
2.15391e-10
2.15403e-10
2.1539e-10
2.15424e-10
2.154e-10
2.15462e-10
2.15432e-10
2.15534e-10
2.15507e-10
2.15667e-10
2.15667e-10
2.159e-10
2.15987e-10
2.16241e-10
2.16506e-10
2.16811e-10
2.17918e-10
2.18093e-10
2.21075e-10
2.21415e-10
2.26486e-10
2.29139e-10
2.36778e-10
2.46442e-10
2.5797e-10
1.2372e-10
1.18406e-10
1.14548e-10
1.10932e-10
1.0975e-10
1.07362e-10
1.07251e-10
1.05828e-10
1.05773e-10
1.0525e-10
1.05118e-10
1.04989e-10
1.04868e-10
1.04827e-10
1.04719e-10
1.04719e-10
1.04646e-10
1.04658e-10
1.04612e-10
1.04625e-10
1.04597e-10
1.04608e-10
1.04592e-10
1.04598e-10
1.04592e-10
1.04592e-10
1.04597e-10
1.04592e-10
1.04607e-10
1.04596e-10
1.04624e-10
1.04611e-10
1.04658e-10
1.04646e-10
1.04719e-10
1.0472e-10
1.04827e-10
1.04869e-10
1.0499e-10
1.05117e-10
1.05247e-10
1.05771e-10
1.05825e-10
1.07248e-10
1.07358e-10
1.09746e-10
1.10928e-10
1.14544e-10
1.18407e-10
1.23709e-10
5.78989e-11
5.55562e-11
5.38598e-11
5.22112e-11
5.17022e-11
5.06247e-11
5.05927e-11
4.99428e-11
4.9929e-11
4.96915e-11
4.96372e-11
4.95773e-11
4.95224e-11
4.95029e-11
4.94555e-11
4.94551e-11
4.94231e-11
4.94282e-11
4.94076e-11
4.94135e-11
4.94012e-11
4.94057e-11
4.93988e-11
4.94013e-11
4.93989e-11
4.93987e-11
4.9401e-11
4.93986e-11
4.94054e-11
4.94006e-11
4.94131e-11
4.94073e-11
4.94279e-11
4.94228e-11
4.94553e-11
4.9456e-11
4.95032e-11
4.95227e-11
4.95777e-11
4.96365e-11
4.96901e-11
4.99281e-11
4.99414e-11
5.05911e-11
5.06229e-11
5.17003e-11
5.22094e-11
5.38579e-11
5.55554e-11
5.78951e-11
2.65225e-11
2.55245e-11
2.48071e-11
2.40907e-11
2.38808e-11
2.34154e-11
2.34089e-11
2.31244e-11
2.31231e-11
2.30193e-11
2.29981e-11
2.2971e-11
2.29476e-11
2.29387e-11
2.29188e-11
2.29183e-11
2.29049e-11
2.29068e-11
2.28982e-11
2.29006e-11
2.28954e-11
2.28972e-11
2.28944e-11
2.28953e-11
2.28943e-11
2.28943e-11
2.28953e-11
2.28943e-11
2.28971e-11
2.28951e-11
2.29004e-11
2.28981e-11
2.29067e-11
2.29047e-11
2.29184e-11
2.2919e-11
2.29388e-11
2.29478e-11
2.29712e-11
2.29979e-11
2.30188e-11
2.31227e-11
2.31238e-11
2.34082e-11
2.34147e-11
2.388e-11
2.40899e-11
2.48063e-11
2.55237e-11
2.65213e-11
1.17553e-11
1.13408e-11
1.10464e-11
1.07437e-11
1.06594e-11
1.04641e-11
1.04642e-11
1.03432e-11
1.03445e-11
1.03004e-11
1.02924e-11
1.02803e-11
1.02708e-11
1.02667e-11
1.02587e-11
1.02583e-11
1.02528e-11
1.02535e-11
1.025e-11
1.02509e-11
1.02488e-11
1.02495e-11
1.02484e-11
1.02488e-11
1.02484e-11
1.02483e-11
1.02487e-11
1.02483e-11
1.02495e-11
1.02487e-11
1.02508e-11
1.025e-11
1.02534e-11
1.02528e-11
1.02583e-11
1.02588e-11
1.02668e-11
1.02708e-11
1.02804e-11
1.02923e-11
1.03001e-11
1.03444e-11
1.03429e-11
1.04639e-11
1.04638e-11
1.06591e-11
1.07433e-11
1.10461e-11
1.13404e-11
1.17549e-11
4.81705e-12
4.65411e-12
4.54052e-12
4.41987e-12
4.38804e-12
4.3109e-12
4.31193e-12
4.2635e-12
4.26481e-12
4.24707e-12
4.24433e-12
4.2392e-12
4.2356e-12
4.23384e-12
4.23082e-12
4.23053e-12
4.22849e-12
4.22868e-12
4.22737e-12
4.22768e-12
4.2269e-12
4.22715e-12
4.22671e-12
4.22685e-12
4.22669e-12
4.22668e-12
4.22683e-12
4.22669e-12
4.22712e-12
4.22685e-12
4.22765e-12
4.22735e-12
4.22866e-12
4.22847e-12
4.23055e-12
4.23085e-12
4.23386e-12
4.23563e-12
4.2392e-12
4.24429e-12
4.24699e-12
4.26474e-12
4.2634e-12
4.31181e-12
4.31077e-12
4.38791e-12
4.41974e-12
4.54038e-12
4.6539e-12
4.81693e-12
1.6782e-12
1.6227e-12
1.58499e-12
1.54354e-12
1.53316e-12
1.50692e-12
1.50757e-12
1.49091e-12
1.4916e-12
1.48547e-12
1.48467e-12
1.48279e-12
1.48164e-12
1.48098e-12
1.48001e-12
1.47987e-12
1.47921e-12
1.47924e-12
1.47883e-12
1.47891e-12
1.47866e-12
1.47873e-12
1.47859e-12
1.47863e-12
1.47858e-12
1.47858e-12
1.47863e-12
1.47859e-12
1.47872e-12
1.47865e-12
1.4789e-12
1.47882e-12
1.47924e-12
1.4792e-12
1.47987e-12
1.48002e-12
1.48098e-12
1.48165e-12
1.48279e-12
1.48466e-12
1.48544e-12
1.49158e-12
1.49088e-12
1.50753e-12
1.50688e-12
1.53312e-12
1.5435e-12
1.58495e-12
1.62263e-12
1.67817e-12
4.30802e-13
4.16929e-13
4.07785e-13
3.97384e-13
3.94889e-13
3.8837e-13
3.88579e-13
3.84405e-13
3.84625e-13
3.83074e-13
3.82908e-13
3.82403e-13
3.8214e-13
3.81955e-13
3.81731e-13
3.81682e-13
3.81531e-13
3.81529e-13
3.81433e-13
3.81448e-13
3.81391e-13
3.81405e-13
3.81373e-13
3.81381e-13
3.8137e-13
3.81368e-13
3.8138e-13
3.81371e-13
3.81403e-13
3.81387e-13
3.81445e-13
3.81432e-13
3.81527e-13
3.81529e-13
3.81683e-13
3.81734e-13
3.81957e-13
3.82142e-13
3.82404e-13
3.82905e-13
3.83067e-13
3.8462e-13
3.84396e-13
3.88569e-13
3.88359e-13
3.94879e-13
3.97373e-13
4.07774e-13
4.16912e-13
4.30793e-13
6.51858e-14
6.32511e-14
6.20106e-14
6.05639e-14
6.02195e-14
5.93198e-14
5.93456e-14
5.87683e-14
5.87999e-14
5.85825e-14
5.85622e-14
5.84879e-14
5.84539e-14
5.84254e-14
5.83964e-14
5.83875e-14
5.8368e-14
5.83664e-14
5.83541e-14
5.83553e-14
5.8348e-14
5.83494e-14
5.83452e-14
5.83462e-14
5.83447e-14
5.83445e-14
5.8346e-14
5.8345e-14
5.83491e-14
5.83475e-14
5.8355e-14
5.83539e-14
5.83662e-14
5.83678e-14
5.83877e-14
5.83968e-14
5.84257e-14
5.84542e-14
5.84879e-14
5.85618e-14
5.85816e-14
5.87993e-14
5.87672e-14
5.93443e-14
5.93184e-14
6.02181e-14
6.05625e-14
6.2009e-14
6.3249e-14
6.51846e-14
)
;

boundaryField
{
    fuel
    {
        type            fixedValue;
        value           nonuniform 0();
    }
    wall
    {
        type            zeroGradient;
    }
    outlet
    {
        type            zeroGradient;
    }
    frontAndBack
    {
        type            empty;
    }
    procBoundary3to2
    {
        type            processor;
        value           nonuniform List<scalar> 
51
(
2.09297e-06
2.09141e-06
2.09068e-06
2.0897e-06
2.08946e-06
2.08887e-06
2.08883e-06
2.08848e-06
2.08851e-06
2.08829e-06
2.08833e-06
2.08821e-06
2.08823e-06
2.0882e-06
2.0882e-06
2.08823e-06
2.08821e-06
2.08832e-06
2.08829e-06
2.0885e-06
2.08848e-06
2.08883e-06
2.08887e-06
2.08947e-06
2.08971e-06
2.09069e-06
2.09142e-06
2.09295e-06
2.09482e-06
2.09747e-06
2.10174e-06
2.10648e-06
2.11514e-06
2.1235e-06
2.14046e-06
2.16092e-06
2.18482e-06
2.2224e-06
2.24443e-06
2.00276e-06
1.98206e-06
1.94731e-06
1.92533e-06
1.90659e-06
1.89114e-06
1.88349e-06
1.87554e-06
1.87128e-06
1.86744e-06
1.86504e-06
1.86504e-06
)
;
    }
}


// ************************************************************************* //
