/*--------------------------------*- C++ -*----------------------------------*\
| =========                 |                                                 |
| \\      /  F ield         | OpenFOAM: The Open Source CFD Toolbox           |
|  \\    /   O peration     | Version:  dev                                   |
|   \\  /    A nd           | Web:      www.OpenFOAM.org                      |
|    \\/     M anipulation  |                                                 |
\*---------------------------------------------------------------------------*/
FoamFile
{
    version     2.0;
    format      ascii;
    class       volScalarField;
    location    "0.065";
    object      A1C2H-;
}
// * * * * * * * * * * * * * * * * * * * * * * * * * * * * * * * * * * * * * //

dimensions      [0 0 0 0 0 0 0];

internalField   nonuniform List<scalar> 
1997
(
5.73543e-09
5.75257e-09
5.75997e-09
5.76515e-09
5.76459e-09
5.76413e-09
5.7628e-09
5.7616e-09
5.76004e-09
5.75925e-09
5.75834e-09
5.75799e-09
5.75746e-09
5.75736e-09
5.75705e-09
5.75706e-09
5.75689e-09
5.75694e-09
5.63072e-09
5.64673e-09
5.65319e-09
5.65789e-09
5.65715e-09
5.65656e-09
5.65514e-09
5.65393e-09
5.6524e-09
5.65161e-09
5.65071e-09
5.65036e-09
5.64985e-09
5.64974e-09
5.64944e-09
5.64945e-09
5.64928e-09
5.64933e-09
5.64923e-09
5.64927e-09
5.64921e-09
5.64924e-09
5.64921e-09
5.64923e-09
5.64921e-09
5.64921e-09
5.64923e-09
5.64921e-09
5.52931e-09
5.54421e-09
5.54979e-09
5.55401e-09
5.55308e-09
5.55236e-09
5.55086e-09
5.54962e-09
5.54812e-09
5.54731e-09
5.54644e-09
5.54608e-09
5.54558e-09
5.54547e-09
5.54518e-09
5.54518e-09
5.54501e-09
5.54506e-09
5.54496e-09
5.54501e-09
5.54494e-09
5.54498e-09
5.54494e-09
5.54496e-09
5.54495e-09
5.54495e-09
5.54496e-09
5.54494e-09
5.54498e-09
5.54494e-09
5.54501e-09
5.54496e-09
5.54506e-09
5.54501e-09
5.54518e-09
5.54518e-09
5.54547e-09
5.54558e-09
5.54608e-09
5.54643e-09
5.43085e-09
5.44469e-09
5.44942e-09
5.45316e-09
5.45203e-09
5.45118e-09
5.44959e-09
5.44833e-09
5.44684e-09
5.44602e-09
5.44516e-09
5.4448e-09
5.44431e-09
5.44419e-09
5.44391e-09
5.44391e-09
5.44374e-09
5.44379e-09
5.44369e-09
5.44373e-09
5.44367e-09
5.4437e-09
5.44367e-09
5.44369e-09
5.44368e-09
5.44368e-09
5.44369e-09
5.44367e-09
5.4437e-09
5.44367e-09
5.44373e-09
5.44369e-09
5.44379e-09
5.44375e-09
5.44391e-09
5.44391e-09
5.44419e-09
5.44431e-09
5.4448e-09
5.44516e-09
5.44602e-09
5.44684e-09
5.44832e-09
5.44959e-09
5.45117e-09
5.45202e-09
5.45315e-09
5.4494e-09
5.44468e-09
5.43083e-09
5.33502e-09
5.34782e-09
5.35173e-09
5.35499e-09
5.35366e-09
5.35266e-09
5.35099e-09
5.34969e-09
5.34822e-09
5.34739e-09
5.34653e-09
5.34617e-09
5.34568e-09
5.34556e-09
5.34529e-09
5.34528e-09
5.34512e-09
5.34516e-09
5.34507e-09
5.34511e-09
5.34504e-09
5.34507e-09
5.34504e-09
5.34506e-09
5.34505e-09
5.34505e-09
5.34506e-09
5.34504e-09
5.34508e-09
5.34504e-09
5.34511e-09
5.34507e-09
5.34516e-09
5.34512e-09
5.34528e-09
5.34529e-09
5.34556e-09
5.34568e-09
5.34617e-09
5.34653e-09
5.34738e-09
5.34822e-09
5.34969e-09
5.35099e-09
5.35265e-09
5.35365e-09
5.35498e-09
5.35171e-09
5.34781e-09
5.335e-09
5.24009e-09
5.2521e-09
5.25518e-09
5.25789e-09
5.25609e-09
5.25486e-09
5.25302e-09
5.25161e-09
5.25009e-09
5.2492e-09
5.24833e-09
5.24794e-09
5.24744e-09
5.2473e-09
5.24702e-09
5.24701e-09
5.24685e-09
5.24688e-09
5.24679e-09
5.24682e-09
5.24676e-09
5.24679e-09
5.24676e-09
5.24677e-09
5.24676e-09
5.24676e-09
5.24677e-09
5.24676e-09
5.24679e-09
5.24676e-09
5.24682e-09
5.24679e-09
5.24688e-09
5.24685e-09
5.24701e-09
5.24703e-09
5.24731e-09
5.24744e-09
5.24794e-09
5.24833e-09
5.2492e-09
5.25009e-09
5.25161e-09
5.25301e-09
5.25485e-09
5.25609e-09
5.25788e-09
5.25517e-09
5.25209e-09
5.24007e-09
5.14832e-09
5.15937e-09
5.16166e-09
5.16388e-09
5.16182e-09
5.16042e-09
5.15849e-09
5.15703e-09
5.1555e-09
5.15459e-09
5.15372e-09
5.15332e-09
5.15282e-09
5.15268e-09
5.15241e-09
5.15239e-09
5.15222e-09
5.15225e-09
5.15216e-09
5.15219e-09
5.15213e-09
5.15216e-09
5.15213e-09
5.15214e-09
5.15214e-09
5.15214e-09
5.15214e-09
5.15213e-09
5.15216e-09
5.15213e-09
5.15219e-09
5.15216e-09
5.15226e-09
5.15223e-09
5.15239e-09
5.15241e-09
5.15268e-09
5.15283e-09
5.15332e-09
5.15372e-09
5.15458e-09
5.1555e-09
5.15702e-09
5.15848e-09
5.16042e-09
5.16182e-09
5.16387e-09
5.16164e-09
5.15935e-09
5.1483e-09
5.05806e-09
5.06817e-09
5.06967e-09
5.0714e-09
5.06907e-09
5.06748e-09
5.06545e-09
5.06393e-09
5.06239e-09
5.06144e-09
5.06052e-09
5.06008e-09
5.05955e-09
5.05939e-09
5.05909e-09
5.05906e-09
5.05889e-09
5.05891e-09
5.05881e-09
5.05884e-09
5.05877e-09
5.0588e-09
5.05877e-09
5.05878e-09
5.05877e-09
5.05877e-09
5.05878e-09
5.05877e-09
5.0588e-09
5.05878e-09
5.05884e-09
5.05881e-09
5.05891e-09
5.05889e-09
5.05906e-09
5.05909e-09
5.05939e-09
5.05955e-09
5.06008e-09
5.06051e-09
5.06144e-09
5.06238e-09
5.06392e-09
5.06544e-09
5.06748e-09
5.06906e-09
5.07139e-09
5.06966e-09
5.06815e-09
5.05804e-09
4.96896e-09
4.97815e-09
4.97887e-09
4.98009e-09
4.97746e-09
4.97569e-09
4.97354e-09
4.97195e-09
4.97039e-09
4.9694e-09
4.96847e-09
4.96802e-09
4.96749e-09
4.96731e-09
4.96702e-09
4.96698e-09
4.96681e-09
4.96683e-09
4.96673e-09
4.96676e-09
4.96669e-09
4.96671e-09
4.96668e-09
4.9667e-09
4.96669e-09
4.96669e-09
4.9667e-09
4.96668e-09
4.96671e-09
4.96669e-09
4.96676e-09
4.96673e-09
4.96683e-09
4.96681e-09
4.96698e-09
4.96702e-09
4.96732e-09
4.96749e-09
4.96802e-09
4.96847e-09
4.9694e-09
4.97039e-09
4.97194e-09
4.97353e-09
4.97568e-09
4.97745e-09
4.98008e-09
4.97885e-09
4.97813e-09
4.96894e-09
4.87936e-09
4.88789e-09
4.88778e-09
4.88845e-09
4.8854e-09
4.88336e-09
4.88102e-09
4.87932e-09
4.87768e-09
4.87663e-09
4.87567e-09
4.87518e-09
4.87463e-09
4.87444e-09
4.87414e-09
4.8741e-09
4.87391e-09
4.87393e-09
4.87382e-09
4.87385e-09
4.87378e-09
4.8738e-09
4.87377e-09
4.87378e-09
4.87377e-09
4.87377e-09
4.87378e-09
4.87377e-09
4.8738e-09
4.87378e-09
4.87385e-09
4.87382e-09
4.87393e-09
4.87391e-09
4.8741e-09
4.87414e-09
4.87445e-09
4.87463e-09
4.87518e-09
4.87566e-09
4.87663e-09
4.87768e-09
4.87931e-09
4.88102e-09
4.88335e-09
4.88539e-09
4.88844e-09
4.88777e-09
4.88787e-09
4.87934e-09
4.78864e-09
4.79619e-09
4.79532e-09
4.79544e-09
4.79206e-09
4.78979e-09
4.78732e-09
4.78553e-09
4.78386e-09
4.78277e-09
4.78178e-09
4.78128e-09
4.78072e-09
4.78052e-09
4.78021e-09
4.78016e-09
4.77997e-09
4.77998e-09
4.77988e-09
4.7799e-09
4.77983e-09
4.77985e-09
4.77982e-09
4.77983e-09
4.77982e-09
4.77982e-09
4.77983e-09
4.77982e-09
4.77985e-09
4.77983e-09
4.7799e-09
4.77988e-09
4.77998e-09
4.77997e-09
4.78016e-09
4.78021e-09
4.78052e-09
4.78072e-09
4.78128e-09
4.78178e-09
4.78276e-09
4.78386e-09
4.78553e-09
4.78732e-09
4.78979e-09
4.79205e-09
4.79543e-09
4.79531e-09
4.79618e-09
4.78862e-09
4.70037e-09
4.70707e-09
4.70538e-09
4.70495e-09
4.7012e-09
4.6987e-09
4.69607e-09
4.69419e-09
4.69247e-09
4.69132e-09
4.69031e-09
4.68978e-09
4.68921e-09
4.68899e-09
4.68867e-09
4.68862e-09
4.68843e-09
4.68843e-09
4.68833e-09
4.68835e-09
4.68827e-09
4.68829e-09
4.68826e-09
4.68827e-09
4.68826e-09
4.68826e-09
4.68827e-09
4.68826e-09
4.68829e-09
4.68827e-09
4.68835e-09
4.68833e-09
4.68843e-09
4.68843e-09
4.68862e-09
4.68867e-09
4.68899e-09
4.68921e-09
4.68978e-09
4.6903e-09
4.69131e-09
4.69246e-09
4.69418e-09
4.69606e-09
4.69869e-09
4.70119e-09
4.70494e-09
4.70537e-09
4.70706e-09
4.70035e-09
4.61163e-09
4.61748e-09
4.61495e-09
4.61396e-09
4.60981e-09
4.60705e-09
4.60427e-09
4.60228e-09
4.6005e-09
4.5993e-09
4.59825e-09
4.59769e-09
4.5971e-09
4.59687e-09
4.59654e-09
4.59648e-09
4.59628e-09
4.59628e-09
4.59618e-09
4.5962e-09
4.59612e-09
4.59614e-09
4.5961e-09
4.59612e-09
4.59611e-09
4.59611e-09
4.59612e-09
4.5961e-09
4.59614e-09
4.59612e-09
4.5962e-09
4.59618e-09
4.59628e-09
4.59628e-09
4.59648e-09
4.59654e-09
4.59687e-09
4.5971e-09
4.59769e-09
4.59825e-09
4.59929e-09
4.6005e-09
4.60227e-09
4.60426e-09
4.60704e-09
4.6098e-09
4.61394e-09
4.61493e-09
4.61746e-09
4.61161e-09
4.52207e-09
4.52707e-09
4.52368e-09
4.52211e-09
4.51756e-09
4.51451e-09
4.51157e-09
4.50947e-09
4.50762e-09
4.50636e-09
4.50527e-09
4.50468e-09
4.50408e-09
4.50382e-09
4.50349e-09
4.50341e-09
4.50321e-09
4.50321e-09
4.5031e-09
4.50312e-09
4.50304e-09
4.50306e-09
4.50302e-09
4.50303e-09
4.50302e-09
4.50302e-09
4.50303e-09
4.50302e-09
4.50306e-09
4.50303e-09
4.50311e-09
4.5031e-09
4.50321e-09
4.50321e-09
4.50341e-09
4.50349e-09
4.50382e-09
4.50408e-09
4.50468e-09
4.50527e-09
4.50635e-09
4.50762e-09
4.50946e-09
4.51157e-09
4.51451e-09
4.51755e-09
4.5221e-09
4.52367e-09
4.52706e-09
4.52205e-09
4.43137e-09
4.43554e-09
4.43126e-09
4.42909e-09
4.42413e-09
4.42077e-09
4.41767e-09
4.41544e-09
4.41352e-09
4.41221e-09
4.41106e-09
4.41043e-09
4.40981e-09
4.40953e-09
4.40919e-09
4.4091e-09
4.40889e-09
4.40889e-09
4.40877e-09
4.40879e-09
4.40871e-09
4.40873e-09
4.40869e-09
4.4087e-09
4.40869e-09
4.40869e-09
4.4087e-09
4.40869e-09
4.40873e-09
4.4087e-09
4.40879e-09
4.40877e-09
4.40889e-09
4.40889e-09
4.4091e-09
4.40919e-09
4.40953e-09
4.40981e-09
4.41042e-09
4.41105e-09
4.41219e-09
4.41352e-09
4.41542e-09
4.41767e-09
4.42076e-09
4.42412e-09
4.42908e-09
4.43125e-09
4.43552e-09
4.43135e-09
4.33691e-09
4.34031e-09
4.33511e-09
4.33228e-09
4.32685e-09
4.32309e-09
4.31979e-09
4.31738e-09
4.31536e-09
4.31398e-09
4.31274e-09
4.31204e-09
4.31143e-09
4.31112e-09
4.31076e-09
4.31064e-09
4.31043e-09
4.31041e-09
4.3103e-09
4.31031e-09
4.31022e-09
4.31024e-09
4.31022e-09
4.31023e-09
4.31022e-09
4.31022e-09
4.31023e-09
4.31022e-09
4.31024e-09
4.3102e-09
4.31031e-09
4.31029e-09
4.31041e-09
4.31043e-09
4.31064e-09
4.31076e-09
4.31112e-09
4.31143e-09
4.31204e-09
4.31274e-09
4.31396e-09
4.31536e-09
4.31737e-09
4.31979e-09
4.32308e-09
4.32684e-09
4.33227e-09
4.33509e-09
4.34029e-09
4.33689e-09
4.23997e-09
4.24245e-09
4.23637e-09
4.2329e-09
4.22703e-09
4.22292e-09
4.21946e-09
4.2169e-09
4.21482e-09
4.21338e-09
4.21204e-09
4.21126e-09
4.21071e-09
4.21039e-09
4.21002e-09
4.20984e-09
4.20959e-09
4.20957e-09
4.20945e-09
4.20946e-09
4.20938e-09
4.20939e-09
4.20941e-09
4.20942e-09
4.20941e-09
4.20941e-09
4.20942e-09
4.20941e-09
4.20939e-09
4.20932e-09
4.20946e-09
4.20945e-09
4.20957e-09
4.20959e-09
4.20984e-09
4.21002e-09
4.21039e-09
4.21071e-09
4.21125e-09
4.21204e-09
4.21336e-09
4.21481e-09
4.21689e-09
4.21946e-09
4.22291e-09
4.22702e-09
4.23288e-09
4.23635e-09
4.24244e-09
4.23995e-09
4.14054e-09
4.14212e-09
4.13514e-09
4.13102e-09
4.1247e-09
4.12024e-09
4.11661e-09
4.11389e-09
4.11175e-09
4.11026e-09
4.10873e-09
4.10785e-09
4.10752e-09
4.10719e-09
4.10681e-09
4.10654e-09
4.10614e-09
4.10612e-09
4.10599e-09
4.106e-09
4.10592e-09
4.10593e-09
4.10602e-09
4.10603e-09
4.10602e-09
4.10602e-09
4.10603e-09
4.10602e-09
4.10593e-09
4.10584e-09
4.106e-09
4.10599e-09
4.10611e-09
4.10613e-09
4.10654e-09
4.1068e-09
4.10719e-09
4.10752e-09
4.10784e-09
4.10873e-09
4.11025e-09
4.11175e-09
4.11388e-09
4.1166e-09
4.12023e-09
4.12469e-09
4.131e-09
4.13512e-09
4.1421e-09
4.14052e-09
4.04118e-09
4.04197e-09
4.03404e-09
4.0293e-09
4.02249e-09
4.01768e-09
4.01385e-09
4.011e-09
4.00879e-09
4.00725e-09
4.00528e-09
4.00436e-09
4.00454e-09
4.00421e-09
4.00382e-09
4.00353e-09
4.00262e-09
4.0026e-09
4.00247e-09
4.00248e-09
4.0024e-09
4.00241e-09
4.00253e-09
4.00254e-09
4.00253e-09
4.00253e-09
4.00254e-09
4.00253e-09
4.00241e-09
4.00233e-09
4.00248e-09
4.00247e-09
4.0026e-09
4.00262e-09
4.00353e-09
4.00382e-09
4.00421e-09
4.00454e-09
4.00436e-09
4.00527e-09
4.00724e-09
4.00879e-09
4.01099e-09
4.01385e-09
4.01767e-09
4.02248e-09
4.02928e-09
4.03402e-09
4.04195e-09
4.04116e-09
3.93679e-09
3.93689e-09
3.92793e-09
3.92251e-09
3.91512e-09
3.90985e-09
3.90578e-09
3.90275e-09
3.90045e-09
3.89886e-09
3.89838e-09
3.89785e-09
3.89627e-09
3.89596e-09
3.89554e-09
3.89562e-09
3.89611e-09
3.89609e-09
3.89596e-09
3.89597e-09
3.89588e-09
3.8959e-09
3.89564e-09
3.89565e-09
3.89563e-09
3.89563e-09
3.89565e-09
3.89563e-09
3.8959e-09
3.8959e-09
3.89597e-09
3.89595e-09
3.89609e-09
3.89611e-09
3.89562e-09
3.89555e-09
3.89596e-09
3.89627e-09
3.89785e-09
3.89837e-09
3.89885e-09
3.90045e-09
3.90274e-09
3.90578e-09
3.90984e-09
3.91511e-09
3.92249e-09
3.92791e-09
3.93687e-09
3.93678e-09
3.83143e-09
3.83079e-09
3.82089e-09
3.81486e-09
3.80694e-09
3.80134e-09
3.79707e-09
3.7939e-09
3.79153e-09
3.78991e-09
3.78901e-09
3.78843e-09
3.78737e-09
3.78708e-09
3.78665e-09
3.78669e-09
3.78655e-09
3.78653e-09
3.78637e-09
3.78638e-09
3.78629e-09
3.78631e-09
3.78616e-09
3.78617e-09
3.78615e-09
3.78615e-09
3.78617e-09
3.78615e-09
3.78631e-09
3.78641e-09
3.78638e-09
3.78637e-09
3.78653e-09
3.78655e-09
3.78669e-09
3.78665e-09
3.78708e-09
3.78737e-09
3.78843e-09
3.78901e-09
3.78991e-09
3.79153e-09
3.79389e-09
3.79706e-09
3.80133e-09
3.80693e-09
3.81485e-09
3.82087e-09
3.83078e-09
3.83141e-09
3.72295e-09
3.7216e-09
3.71074e-09
3.70415e-09
3.69566e-09
3.68976e-09
3.6853e-09
3.68198e-09
3.67956e-09
3.6779e-09
3.67684e-09
3.67618e-09
3.67532e-09
3.67503e-09
3.67458e-09
3.67455e-09
3.67429e-09
3.67427e-09
3.67411e-09
3.67412e-09
3.67403e-09
3.67405e-09
3.67395e-09
3.67396e-09
3.67395e-09
3.67395e-09
3.67396e-09
3.67395e-09
3.67405e-09
3.6741e-09
3.67412e-09
3.67411e-09
3.67427e-09
3.67429e-09
3.67455e-09
3.67458e-09
3.67503e-09
3.67532e-09
3.67618e-09
3.67683e-09
3.6779e-09
3.67956e-09
3.68197e-09
3.68529e-09
3.68976e-09
3.69565e-09
3.70413e-09
3.71072e-09
3.72158e-09
3.72294e-09
3.60913e-09
3.60703e-09
3.59519e-09
3.588e-09
3.57884e-09
3.57259e-09
3.56791e-09
3.56441e-09
3.56191e-09
3.5602e-09
3.55904e-09
3.5583e-09
3.55752e-09
3.55722e-09
3.55675e-09
3.55666e-09
3.55637e-09
3.55635e-09
3.55618e-09
3.55619e-09
3.5561e-09
3.55612e-09
3.55606e-09
3.55607e-09
3.55605e-09
3.55605e-09
3.55607e-09
3.55606e-09
3.55612e-09
3.55614e-09
3.55619e-09
3.55618e-09
3.55634e-09
3.55637e-09
3.55666e-09
3.55675e-09
3.55722e-09
3.55752e-09
3.5583e-09
3.55904e-09
3.5602e-09
3.56191e-09
3.5644e-09
3.5679e-09
3.57259e-09
3.57883e-09
3.58798e-09
3.59517e-09
3.60701e-09
3.60911e-09
3.49423e-09
3.49137e-09
3.47863e-09
3.47091e-09
3.46125e-09
3.45468e-09
3.44985e-09
3.44621e-09
3.44367e-09
3.44192e-09
3.44071e-09
3.43992e-09
3.43915e-09
3.43883e-09
3.43835e-09
3.43824e-09
3.43795e-09
3.43793e-09
3.43776e-09
3.43777e-09
3.43768e-09
3.4377e-09
3.43765e-09
3.43766e-09
3.43764e-09
3.43764e-09
3.43766e-09
3.43765e-09
3.4377e-09
3.43769e-09
3.43777e-09
3.43776e-09
3.43793e-09
3.43795e-09
3.43824e-09
3.43835e-09
3.43883e-09
3.43915e-09
3.43991e-09
3.4407e-09
3.44192e-09
3.44367e-09
3.4462e-09
3.44985e-09
3.45468e-09
3.46124e-09
3.4709e-09
3.47861e-09
3.49135e-09
3.49421e-09
3.37623e-09
3.37263e-09
3.35902e-09
3.35078e-09
3.3407e-09
3.33381e-09
3.32885e-09
3.32507e-09
3.32243e-09
3.32054e-09
3.31924e-09
3.31838e-09
3.31758e-09
3.31723e-09
3.31672e-09
3.31658e-09
3.31629e-09
3.31626e-09
3.31608e-09
3.31609e-09
3.316e-09
3.31601e-09
3.31596e-09
3.31598e-09
3.31596e-09
3.31596e-09
3.31597e-09
3.31596e-09
3.31601e-09
3.31599e-09
3.31608e-09
3.31607e-09
3.31626e-09
3.31629e-09
3.31658e-09
3.31672e-09
3.31723e-09
3.31758e-09
3.31837e-09
3.31924e-09
3.32054e-09
3.32243e-09
3.32506e-09
3.32885e-09
3.33381e-09
3.34068e-09
3.35076e-09
3.359e-09
3.37261e-09
3.37622e-09
3.25314e-09
3.24861e-09
3.23396e-09
3.22506e-09
3.2145e-09
3.20719e-09
3.2021e-09
3.19813e-09
3.19544e-09
3.19349e-09
3.19215e-09
3.19126e-09
3.19045e-09
3.19008e-09
3.18955e-09
3.1894e-09
3.18911e-09
3.18908e-09
3.18889e-09
3.1889e-09
3.18881e-09
3.18883e-09
3.18877e-09
3.18879e-09
3.18877e-09
3.18877e-09
3.18878e-09
3.18877e-09
3.18882e-09
3.1888e-09
3.1889e-09
3.18889e-09
3.18908e-09
3.18911e-09
3.1894e-09
3.18955e-09
3.19008e-09
3.19044e-09
3.19125e-09
3.19215e-09
3.19349e-09
3.19544e-09
3.19812e-09
3.2021e-09
3.20719e-09
3.21449e-09
3.22504e-09
3.23394e-09
3.2486e-09
3.25312e-09
3.12928e-09
3.12402e-09
3.10864e-09
3.09927e-09
3.0884e-09
3.08082e-09
3.07566e-09
3.07157e-09
3.06886e-09
3.06686e-09
3.06551e-09
3.0646e-09
3.06378e-09
3.0634e-09
3.06287e-09
3.06272e-09
3.06242e-09
3.06239e-09
3.0622e-09
3.06221e-09
3.06212e-09
3.06213e-09
3.06208e-09
3.06209e-09
3.06207e-09
3.06207e-09
3.06209e-09
3.06208e-09
3.06213e-09
3.06211e-09
3.06221e-09
3.0622e-09
3.06239e-09
3.06242e-09
3.06272e-09
3.06287e-09
3.0634e-09
3.06378e-09
3.06459e-09
3.0655e-09
3.06686e-09
3.06886e-09
3.07155e-09
3.07567e-09
3.08081e-09
3.08839e-09
3.09925e-09
3.10862e-09
3.124e-09
3.12927e-09
3.00255e-09
2.99603e-09
2.97927e-09
2.96913e-09
2.95763e-09
2.94965e-09
2.94434e-09
2.94006e-09
2.93729e-09
2.93522e-09
2.93383e-09
2.9329e-09
2.93207e-09
2.93168e-09
2.93113e-09
2.93098e-09
2.93067e-09
2.93063e-09
2.93044e-09
2.93045e-09
2.93035e-09
2.93037e-09
2.93031e-09
2.93032e-09
2.9303e-09
2.9303e-09
2.93032e-09
2.93031e-09
2.93037e-09
2.93035e-09
2.93045e-09
2.93044e-09
2.93063e-09
2.93067e-09
2.93098e-09
2.93113e-09
2.93167e-09
2.93207e-09
2.93289e-09
2.93383e-09
2.93522e-09
2.93729e-09
2.94005e-09
2.94434e-09
2.94965e-09
2.95761e-09
2.96911e-09
2.97925e-09
2.99601e-09
3.00254e-09
2.87405e-09
2.86681e-09
2.84941e-09
2.83895e-09
2.82714e-09
2.81896e-09
2.81365e-09
2.8093e-09
2.80653e-09
2.80442e-09
2.80303e-09
2.80211e-09
2.80128e-09
2.80088e-09
2.80034e-09
2.80018e-09
2.79987e-09
2.79983e-09
2.79964e-09
2.79965e-09
2.79955e-09
2.79957e-09
2.79951e-09
2.79952e-09
2.7995e-09
2.7995e-09
2.79952e-09
2.7995e-09
2.79957e-09
2.79954e-09
2.79965e-09
2.79964e-09
2.79983e-09
2.79987e-09
2.80018e-09
2.80034e-09
2.80088e-09
2.80128e-09
2.8021e-09
2.80303e-09
2.80443e-09
2.80652e-09
2.80929e-09
2.81365e-09
2.81896e-09
2.82713e-09
2.83893e-09
2.84939e-09
2.86679e-09
2.87404e-09
2.74386e-09
2.73587e-09
2.71798e-09
2.70725e-09
2.69489e-09
2.68624e-09
2.68075e-09
2.6762e-09
2.67336e-09
2.67115e-09
2.66972e-09
2.66878e-09
2.66795e-09
2.66754e-09
2.66698e-09
2.66682e-09
2.6665e-09
2.66646e-09
2.66626e-09
2.66627e-09
2.66616e-09
2.66618e-09
2.66612e-09
2.66613e-09
2.66611e-09
2.66611e-09
2.66613e-09
2.66612e-09
2.66618e-09
2.66616e-09
2.66627e-09
2.66626e-09
2.66646e-09
2.66649e-09
2.66682e-09
2.66698e-09
2.66754e-09
2.66794e-09
2.66877e-09
2.66972e-09
2.67116e-09
2.67334e-09
2.67619e-09
2.68075e-09
2.68625e-09
2.69488e-09
2.70723e-09
2.71796e-09
2.73586e-09
2.74385e-09
2.60986e-09
2.60375e-09
2.58548e-09
2.57458e-09
2.56188e-09
2.55315e-09
2.54769e-09
2.5431e-09
2.54029e-09
2.53807e-09
2.53664e-09
2.53572e-09
2.5349e-09
2.53452e-09
2.53396e-09
2.5338e-09
2.53348e-09
2.53344e-09
2.53324e-09
2.53325e-09
2.53314e-09
2.53316e-09
2.5331e-09
2.53311e-09
2.53309e-09
2.53309e-09
2.53311e-09
2.53309e-09
2.53316e-09
2.53314e-09
2.53325e-09
2.53324e-09
2.53344e-09
2.53347e-09
2.5338e-09
2.53396e-09
2.53452e-09
2.5349e-09
2.53571e-09
2.53664e-09
2.53808e-09
2.54028e-09
2.54309e-09
2.54769e-09
2.55315e-09
2.56187e-09
2.57456e-09
2.58546e-09
2.60373e-09
2.60985e-09
2.47758e-09
2.47084e-09
2.45138e-09
2.43995e-09
2.42655e-09
2.41754e-09
2.41205e-09
2.40733e-09
2.40453e-09
2.40225e-09
2.4008e-09
2.39988e-09
2.39907e-09
2.39872e-09
2.39816e-09
2.398e-09
2.39766e-09
2.39762e-09
2.39742e-09
2.39743e-09
2.39732e-09
2.39734e-09
2.39728e-09
2.39729e-09
2.39727e-09
2.39727e-09
2.39729e-09
2.39727e-09
2.39734e-09
2.39732e-09
2.39743e-09
2.39742e-09
2.39762e-09
2.39766e-09
2.398e-09
2.39816e-09
2.39872e-09
2.39907e-09
2.39987e-09
2.40081e-09
2.40226e-09
2.40451e-09
2.40732e-09
2.41205e-09
2.41754e-09
2.42654e-09
2.43993e-09
2.45136e-09
2.47083e-09
2.47757e-09
2.34184e-09
2.33459e-09
2.31483e-09
2.30337e-09
2.29313e-09
2.2841e-09
2.27871e-09
2.27399e-09
2.27124e-09
2.26898e-09
2.26753e-09
2.26662e-09
2.26583e-09
2.26556e-09
2.265e-09
2.26485e-09
2.26451e-09
2.26447e-09
2.26428e-09
2.26429e-09
2.26418e-09
2.26419e-09
2.26413e-09
2.26414e-09
2.26412e-09
2.26412e-09
2.26414e-09
2.26413e-09
2.26419e-09
2.26417e-09
2.26428e-09
2.26427e-09
2.26447e-09
2.26451e-09
2.26485e-09
2.265e-09
2.26555e-09
2.26583e-09
2.26661e-09
2.26753e-09
2.26899e-09
2.27121e-09
2.27398e-09
2.27872e-09
2.28411e-09
2.29311e-09
2.30335e-09
2.31481e-09
2.33458e-09
2.34183e-09
2.20951e-09
2.20213e-09
2.1821e-09
2.17069e-09
2.16028e-09
2.15097e-09
2.14562e-09
2.14081e-09
2.13804e-09
2.13576e-09
2.13428e-09
2.13334e-09
2.13255e-09
2.13239e-09
2.13183e-09
2.13168e-09
2.13134e-09
2.1313e-09
2.1311e-09
2.13111e-09
2.131e-09
2.13102e-09
2.13095e-09
2.13097e-09
2.13094e-09
2.13094e-09
2.13097e-09
2.13095e-09
2.13102e-09
2.131e-09
2.13111e-09
2.1311e-09
2.1313e-09
2.13134e-09
2.13168e-09
2.13183e-09
2.13239e-09
2.13254e-09
2.13333e-09
2.13428e-09
2.13576e-09
2.13801e-09
2.14079e-09
2.14564e-09
2.15098e-09
2.16026e-09
2.17067e-09
2.18208e-09
2.20211e-09
2.2095e-09
2.07811e-09
2.06861e-09
2.0505e-09
2.0392e-09
2.02886e-09
2.01958e-09
2.0144e-09
2.00966e-09
2.00693e-09
2.00469e-09
2.00322e-09
2.00227e-09
2.00145e-09
2.0015e-09
2.00095e-09
2.0008e-09
2.00047e-09
2.00043e-09
2.00024e-09
2.00025e-09
2.00014e-09
2.00015e-09
2.00009e-09
2.0001e-09
2.00008e-09
2.00008e-09
2.0001e-09
2.00009e-09
2.00015e-09
2.00013e-09
2.00025e-09
2.00023e-09
2.00043e-09
2.00047e-09
2.0008e-09
2.00095e-09
2.0015e-09
2.00145e-09
2.00226e-09
2.00322e-09
2.00469e-09
2.0069e-09
2.00963e-09
2.01441e-09
2.01959e-09
2.02884e-09
2.03918e-09
2.05047e-09
2.06859e-09
2.07809e-09
1.94828e-09
1.93877e-09
1.92064e-09
1.90951e-09
1.89935e-09
1.89017e-09
1.88515e-09
1.8805e-09
1.87784e-09
1.87563e-09
1.87418e-09
1.87322e-09
1.87234e-09
1.8715e-09
1.87096e-09
1.87081e-09
1.87048e-09
1.87044e-09
1.87025e-09
1.87026e-09
1.87015e-09
1.87017e-09
1.8701e-09
1.87012e-09
1.87009e-09
1.87009e-09
1.87011e-09
1.8701e-09
1.87016e-09
1.87014e-09
1.87026e-09
1.87025e-09
1.87044e-09
1.87048e-09
1.87081e-09
1.87096e-09
1.8715e-09
1.87234e-09
1.8732e-09
1.87418e-09
1.87562e-09
1.87781e-09
1.88048e-09
1.88516e-09
1.89018e-09
1.89933e-09
1.90949e-09
1.92062e-09
1.93875e-09
1.94826e-09
1.82062e-09
1.81109e-09
1.79319e-09
1.7822e-09
1.77232e-09
1.7633e-09
1.75846e-09
1.75392e-09
1.75132e-09
1.74916e-09
1.74774e-09
1.74677e-09
1.74587e-09
1.74521e-09
1.74468e-09
1.74454e-09
1.74422e-09
1.74418e-09
1.74399e-09
1.74401e-09
1.7439e-09
1.74391e-09
1.74385e-09
1.74386e-09
1.74384e-09
1.74384e-09
1.74386e-09
1.74385e-09
1.74391e-09
1.74389e-09
1.744e-09
1.74399e-09
1.74418e-09
1.74422e-09
1.74454e-09
1.74468e-09
1.74521e-09
1.74586e-09
1.74676e-09
1.74773e-09
1.74915e-09
1.7513e-09
1.75389e-09
1.75846e-09
1.76332e-09
1.7723e-09
1.78218e-09
1.79317e-09
1.81107e-09
1.8206e-09
1.6957e-09
1.6862e-09
1.66865e-09
1.65787e-09
1.64835e-09
1.63952e-09
1.63485e-09
1.63045e-09
1.62794e-09
1.62585e-09
1.62445e-09
1.62348e-09
1.62259e-09
1.62207e-09
1.62155e-09
1.62141e-09
1.6211e-09
1.62107e-09
1.62089e-09
1.6209e-09
1.62079e-09
1.62081e-09
1.62075e-09
1.62076e-09
1.62074e-09
1.62074e-09
1.62076e-09
1.62075e-09
1.62081e-09
1.62079e-09
1.62089e-09
1.62088e-09
1.62107e-09
1.6211e-09
1.62141e-09
1.62155e-09
1.62207e-09
1.62259e-09
1.62347e-09
1.62444e-09
1.62582e-09
1.62792e-09
1.63042e-09
1.63485e-09
1.63956e-09
1.64831e-09
1.65785e-09
1.66863e-09
1.68618e-09
1.69568e-09
1.57406e-09
1.56465e-09
1.54754e-09
1.53703e-09
1.5279e-09
1.51935e-09
1.51485e-09
1.5106e-09
1.50819e-09
1.50617e-09
1.50481e-09
1.50386e-09
1.503e-09
1.50256e-09
1.50206e-09
1.50194e-09
1.50163e-09
1.5016e-09
1.50142e-09
1.50144e-09
1.50133e-09
1.50135e-09
1.50129e-09
1.5013e-09
1.50128e-09
1.50128e-09
1.5013e-09
1.50129e-09
1.50135e-09
1.50133e-09
1.50143e-09
1.50142e-09
1.5016e-09
1.50163e-09
1.50193e-09
1.50206e-09
1.50256e-09
1.503e-09
1.50384e-09
1.5048e-09
1.50613e-09
1.50816e-09
1.51057e-09
1.51484e-09
1.51937e-09
1.52788e-09
1.53702e-09
1.54751e-09
1.56463e-09
1.57403e-09
1.45617e-09
1.44691e-09
1.43032e-09
1.42017e-09
1.41149e-09
1.4032e-09
1.39889e-09
1.39482e-09
1.39253e-09
1.39057e-09
1.38926e-09
1.38835e-09
1.38754e-09
1.38715e-09
1.38667e-09
1.38655e-09
1.38626e-09
1.38623e-09
1.38605e-09
1.38607e-09
1.38597e-09
1.38598e-09
1.38593e-09
1.38594e-09
1.38592e-09
1.38592e-09
1.38594e-09
1.38593e-09
1.38598e-09
1.38596e-09
1.38606e-09
1.38605e-09
1.38623e-09
1.38625e-09
1.38655e-09
1.38667e-09
1.38715e-09
1.38754e-09
1.38833e-09
1.38925e-09
1.39053e-09
1.39249e-09
1.39479e-09
1.39889e-09
1.40321e-09
1.41147e-09
1.42016e-09
1.4303e-09
1.44689e-09
1.45614e-09
1.34247e-09
1.33343e-09
1.31742e-09
1.30713e-09
1.2985e-09
1.29148e-09
1.28738e-09
1.28349e-09
1.28133e-09
1.27945e-09
1.2782e-09
1.27733e-09
1.27657e-09
1.27622e-09
1.27576e-09
1.27564e-09
1.27536e-09
1.27533e-09
1.27516e-09
1.27518e-09
1.27508e-09
1.2751e-09
1.27504e-09
1.27505e-09
1.27504e-09
1.27504e-09
1.27505e-09
1.27504e-09
1.2751e-09
1.27508e-09
1.27517e-09
1.27516e-09
1.27533e-09
1.27536e-09
1.27564e-09
1.27576e-09
1.27622e-09
1.27657e-09
1.27731e-09
1.27818e-09
1.27941e-09
1.28129e-09
1.28346e-09
1.28738e-09
1.29148e-09
1.29848e-09
1.30711e-09
1.3174e-09
1.3334e-09
1.34244e-09
1.23332e-09
1.22456e-09
1.2092e-09
1.19935e-09
1.19121e-09
1.18452e-09
1.18065e-09
1.17696e-09
1.17492e-09
1.17313e-09
1.17195e-09
)
;

boundaryField
{
    fuel
    {
        type            fixedValue;
        value           nonuniform 0();
    }
    wall
    {
        type            zeroGradient;
    }
    outlet
    {
        type            zeroGradient;
    }
    frontAndBack
    {
        type            empty;
    }
    procBoundary2to0
    {
        type            processor;
        value           nonuniform List<scalar> 
53
(
5.84377e-09
5.86209e-09
5.87047e-09
5.87614e-09
5.87575e-09
5.87541e-09
5.87416e-09
5.87298e-09
5.87138e-09
5.8706e-09
5.86966e-09
5.86932e-09
5.86877e-09
5.86867e-09
5.86836e-09
5.86837e-09
5.86819e-09
5.86825e-09
5.75683e-09
5.75683e-09
5.75688e-09
5.75681e-09
5.75685e-09
5.75681e-09
5.75683e-09
5.75682e-09
5.75682e-09
5.75683e-09
5.75681e-09
5.64924e-09
5.64924e-09
5.64921e-09
5.64927e-09
5.64922e-09
5.64933e-09
5.64928e-09
5.64945e-09
5.64944e-09
5.64974e-09
5.64985e-09
5.65036e-09
5.65071e-09
5.54731e-09
5.54731e-09
5.54811e-09
5.54961e-09
5.55085e-09
5.55235e-09
5.55307e-09
5.554e-09
5.54977e-09
5.54419e-09
5.52929e-09
)
;
    }
    procBoundary2to3
    {
        type            processor;
        value           nonuniform List<scalar> 
51
(
1.17114e-09
1.17043e-09
1.17011e-09
1.16966e-09
1.16955e-09
1.16927e-09
1.16925e-09
1.16908e-09
1.1691e-09
1.169e-09
1.16902e-09
1.16897e-09
1.16898e-09
1.16896e-09
1.16896e-09
1.16898e-09
1.16897e-09
1.16902e-09
1.169e-09
1.16909e-09
1.16908e-09
1.16924e-09
1.16927e-09
1.16954e-09
1.16966e-09
1.17011e-09
1.17043e-09
1.17112e-09
1.17195e-09
1.17311e-09
1.1749e-09
1.17695e-09
1.18066e-09
1.18452e-09
1.1912e-09
1.19934e-09
1.20918e-09
1.22454e-09
1.2333e-09
1.12905e-09
1.12062e-09
1.10595e-09
1.09658e-09
1.08893e-09
1.08262e-09
1.07898e-09
1.0755e-09
1.0736e-09
1.0719e-09
1.17114e-09
1.07079e-09
)
;
    }
}


// ************************************************************************* //
