/*--------------------------------*- C++ -*----------------------------------*\
| =========                 |                                                 |
| \\      /  F ield         | OpenFOAM: The Open Source CFD Toolbox           |
|  \\    /   O peration     | Version:  dev                                   |
|   \\  /    A nd           | Web:      www.OpenFOAM.org                      |
|    \\/     M anipulation  |                                                 |
\*---------------------------------------------------------------------------*/
FoamFile
{
    version     2.0;
    format      ascii;
    class       volScalarField;
    location    "0.065";
    object      A1C2H*;
}
// * * * * * * * * * * * * * * * * * * * * * * * * * * * * * * * * * * * * * //

dimensions      [0 0 0 0 0 0 0];

internalField   nonuniform List<scalar> 
250
(
5.71906e-10
6.24552e-07
6.56251e-07
6.53488e-07
6.53213e-07
6.52431e-07
6.52647e-07
6.52428e-07
6.52772e-07
4.14991e-10
6.10692e-07
5.69709e-07
5.62679e-07
5.60921e-07
5.60385e-07
5.6038e-07
5.60386e-07
5.60286e-07
3.4357e-10
4.25725e-07
3.74612e-07
3.67862e-07
3.65597e-07
3.65133e-07
3.65055e-07
3.65131e-07
3.64925e-07
2.5535e-10
2.73299e-07
2.31283e-07
2.26225e-07
2.239e-07
2.23573e-07
2.23475e-07
2.23543e-07
2.23358e-07
2.0561e-10
1.76811e-07
1.44523e-07
1.40972e-07
1.38948e-07
1.38827e-07
1.38712e-07
1.38763e-07
1.38642e-07
1.81649e-10
1.11142e-07
9.43989e-08
9.08097e-08
8.89641e-08
8.85396e-08
8.85539e-08
8.84601e-08
8.84459e-08
1.94304e-10
7.78253e-08
6.51657e-08
6.18645e-08
6.07384e-08
6.04352e-08
6.04535e-08
6.03515e-08
6.04032e-08
2.6603e-10
5.76605e-08
4.75601e-08
4.42518e-08
4.21902e-08
4.17397e-08
4.18486e-08
4.168e-08
4.18146e-08
4.58001e-10
4.45445e-08
3.58742e-08
3.27115e-08
3.14642e-08
3.09748e-08
3.11416e-08
3.09369e-08
3.1114e-08
8.94553e-10
3.50913e-08
2.77306e-08
2.5387e-08
2.44849e-08
2.3947e-08
2.41616e-08
2.39272e-08
2.41256e-08
1.70683e-09
2.88227e-08
2.27677e-08
2.00406e-08
1.92989e-08
1.86664e-08
1.89229e-08
1.86611e-08
1.88685e-08
1.87348e-08
2.98501e-09
2.51665e-08
1.91559e-08
1.60848e-08
1.55868e-08
1.49413e-08
1.52053e-08
1.49469e-08
1.51353e-08
1.50145e-08
4.73041e-09
2.25068e-08
1.62788e-08
1.32499e-08
1.29177e-08
1.22797e-08
1.25379e-08
1.22912e-08
1.24566e-08
1.2349e-08
6.95685e-09
2.02796e-08
1.41001e-08
1.11539e-08
1.09331e-08
1.0318e-08
1.05627e-08
1.03319e-08
1.04757e-08
1.03811e-08
9.66446e-09
1.86721e-08
1.23865e-08
9.5565e-09
9.40889e-09
8.8269e-09
9.05414e-09
8.84133e-09
8.96648e-09
8.88389e-09
1.28819e-08
1.71421e-08
1.09925e-08
8.30405e-09
8.20317e-09
7.6604e-09
7.86861e-09
7.67418e-09
7.78388e-09
7.71184e-09
1.66592e-08
1.58428e-08
9.82742e-09
7.29717e-09
7.22476e-09
6.72448e-09
6.91328e-09
6.73696e-09
6.83369e-09
6.77086e-09
2.09425e-08
1.47098e-08
8.8323e-09
6.47043e-09
6.41395e-09
5.95766e-09
6.12726e-09
5.96849e-09
6.05403e-09
5.9993e-09
2.54671e-08
1.38216e-08
7.96774e-09
5.77976e-09
5.73073e-09
5.31884e-09
5.4697e-09
5.32786e-09
5.40341e-09
5.35589e-09
2.97667e-08
1.29709e-08
7.2057e-09
5.19458e-09
5.14729e-09
4.77973e-09
4.91229e-09
4.78688e-09
4.85319e-09
4.81225e-09
3.33135e-08
1.21461e-08
6.5253e-09
4.69277e-09
4.64347e-09
4.32e-09
4.43457e-09
4.32532e-09
4.3828e-09
4.34801e-09
3.56885e-08
1.13395e-08
5.98501e-09
4.25696e-09
4.20339e-09
3.92402e-09
4.02063e-09
3.9276e-09
3.97629e-09
3.94753e-09
3.66921e-08
1.05432e-08
5.46238e-09
3.92118e-09
3.86256e-09
3.61784e-09
3.7016e-09
3.61998e-09
3.66292e-09
3.63799e-09
3.63557e-08
9.66463e-09
4.97607e-09
3.61115e-09
3.56617e-09
3.33585e-09
3.41293e-09
3.33721e-09
3.37663e-09
3.35373e-09
3.48817e-08
8.80907e-09
4.58373e-09
3.3555e-09
3.30953e-09
3.1068e-09
3.17364e-09
3.10715e-09
3.14187e-09
3.12197e-09
3.25481e-08
7.98365e-09
4.2084e-09
3.13154e-09
3.08621e-09
2.9078e-09
2.96587e-09
2.90736e-09
2.93805e-09
2.92066e-09
)
;

boundaryField
{
    fuel
    {
        type            fixedValue;
        value           uniform 0;
    }
    wall
    {
        type            zeroGradient;
    }
    outlet
    {
        type            zeroGradient;
    }
    frontAndBack
    {
        type            empty;
    }
    procBoundary2to0
    {
        type            processor;
        value           nonuniform List<scalar> 
12
(
3.12544e-09
2.96172e-08
7.1751e-09
3.88791e-09
2.93349e-09
2.89041e-09
2.73298e-09
2.78378e-09
2.73194e-09
2.7593e-09
2.92352e-09
2.74392e-09
)
;
    }
    procBoundary2to3
    {
        type            processor;
        value           nonuniform List<scalar> 
25
(
6.52847e-07
5.60343e-07
3.64983e-07
2.23384e-07
1.38644e-07
8.83838e-08
6.03322e-08
4.17095e-08
3.09906e-08
2.39927e-08
2.39927e-08
1.87636e-08
1.50432e-08
1.2379e-08
1.04107e-08
8.91127e-09
7.73597e-09
6.79138e-09
6.01629e-09
5.36969e-09
4.82325e-09
4.35658e-09
3.9539e-09
3.64325e-09
3.35795e-09
)
;
    }
}


// ************************************************************************* //
