/*--------------------------------*- C++ -*----------------------------------*\
| =========                 |                                                 |
| \\      /  F ield         | OpenFOAM: The Open Source CFD Toolbox           |
|  \\    /   O peration     | Version:  dev                                   |
|   \\  /    A nd           | Web:      www.OpenFOAM.org                      |
|    \\/     M anipulation  |                                                 |
\*---------------------------------------------------------------------------*/
FoamFile
{
    version     2.0;
    format      ascii;
    class       volScalarField;
    location    "0.065";
    object      C;
}
// * * * * * * * * * * * * * * * * * * * * * * * * * * * * * * * * * * * * * //

dimensions      [0 0 0 0 0 0 0];

internalField   nonuniform List<scalar> 
1997
(
1.73369e-09
1.73721e-09
1.73162e-09
1.72815e-09
1.72108e-09
1.71711e-09
1.7132e-09
1.7102e-09
1.70747e-09
1.70568e-09
1.7041e-09
1.70316e-09
1.70224e-09
1.70177e-09
1.70123e-09
1.70101e-09
1.70069e-09
1.7006e-09
1.64448e-09
1.64744e-09
1.64141e-09
1.63769e-09
1.63044e-09
1.62646e-09
1.62249e-09
1.61951e-09
1.61681e-09
1.61503e-09
1.61349e-09
1.61256e-09
1.61165e-09
1.61119e-09
1.61066e-09
1.61044e-09
1.61013e-09
1.61003e-09
1.60985e-09
1.60982e-09
1.60971e-09
1.6097e-09
1.60964e-09
1.60964e-09
1.60962e-09
1.60962e-09
1.60964e-09
1.60964e-09
1.55641e-09
1.55883e-09
1.55241e-09
1.54846e-09
1.54106e-09
1.53708e-09
1.53308e-09
1.53012e-09
1.52746e-09
1.5257e-09
1.52419e-09
1.52327e-09
1.52239e-09
1.52193e-09
1.52141e-09
1.52119e-09
1.52089e-09
1.5208e-09
1.52062e-09
1.52058e-09
1.52047e-09
1.52046e-09
1.52041e-09
1.52041e-09
1.52039e-09
1.52039e-09
1.52041e-09
1.52041e-09
1.52046e-09
1.52048e-09
1.52058e-09
1.52062e-09
1.5208e-09
1.52089e-09
1.5212e-09
1.52142e-09
1.52194e-09
1.52239e-09
1.52328e-09
1.52419e-09
1.46964e-09
1.47153e-09
1.46477e-09
1.46062e-09
1.45313e-09
1.44915e-09
1.44513e-09
1.44221e-09
1.4396e-09
1.43786e-09
1.43638e-09
1.43548e-09
1.43462e-09
1.43417e-09
1.43366e-09
1.43345e-09
1.43315e-09
1.43306e-09
1.43289e-09
1.43285e-09
1.43275e-09
1.43274e-09
1.43268e-09
1.43268e-09
1.43267e-09
1.43267e-09
1.43268e-09
1.43268e-09
1.43274e-09
1.43275e-09
1.43285e-09
1.43289e-09
1.43307e-09
1.43316e-09
1.43346e-09
1.43367e-09
1.43418e-09
1.43463e-09
1.43549e-09
1.43639e-09
1.43787e-09
1.43961e-09
1.44222e-09
1.44514e-09
1.44916e-09
1.45313e-09
1.46063e-09
1.46478e-09
1.47154e-09
1.46964e-09
1.38436e-09
1.38574e-09
1.37869e-09
1.37436e-09
1.36682e-09
1.36285e-09
1.35884e-09
1.35596e-09
1.35341e-09
1.3517e-09
1.35026e-09
1.34938e-09
1.34853e-09
1.3481e-09
1.3476e-09
1.34739e-09
1.3471e-09
1.34702e-09
1.34685e-09
1.34681e-09
1.34671e-09
1.3467e-09
1.34665e-09
1.34665e-09
1.34663e-09
1.34663e-09
1.34665e-09
1.34665e-09
1.3467e-09
1.34671e-09
1.34681e-09
1.34685e-09
1.34702e-09
1.34711e-09
1.3474e-09
1.34761e-09
1.34811e-09
1.34855e-09
1.34939e-09
1.35027e-09
1.35171e-09
1.35342e-09
1.35597e-09
1.35885e-09
1.36286e-09
1.36683e-09
1.37437e-09
1.3787e-09
1.38575e-09
1.38436e-09
1.29948e-09
1.3006e-09
1.29328e-09
1.28873e-09
1.28098e-09
1.27696e-09
1.27291e-09
1.27002e-09
1.26748e-09
1.26578e-09
1.26435e-09
1.26348e-09
1.26264e-09
1.26221e-09
1.26172e-09
1.26152e-09
1.26123e-09
1.26114e-09
1.26097e-09
1.26094e-09
1.26083e-09
1.26083e-09
1.26077e-09
1.26077e-09
1.26076e-09
1.26076e-09
1.26077e-09
1.26077e-09
1.26083e-09
1.26084e-09
1.26094e-09
1.26098e-09
1.26115e-09
1.26123e-09
1.26152e-09
1.26173e-09
1.26222e-09
1.26265e-09
1.26349e-09
1.26436e-09
1.26579e-09
1.2675e-09
1.27003e-09
1.27292e-09
1.27698e-09
1.28099e-09
1.28875e-09
1.29329e-09
1.30061e-09
1.29949e-09
1.21762e-09
1.2183e-09
1.21078e-09
1.20611e-09
1.1984e-09
1.1944e-09
1.1904e-09
1.18756e-09
1.1851e-09
1.18342e-09
1.18204e-09
1.18119e-09
1.18039e-09
1.17996e-09
1.1795e-09
1.17929e-09
1.17901e-09
1.17893e-09
1.17877e-09
1.17873e-09
1.17863e-09
1.17862e-09
1.17857e-09
1.17857e-09
1.17856e-09
1.17856e-09
1.17857e-09
1.17857e-09
1.17862e-09
1.17864e-09
1.17874e-09
1.17877e-09
1.17894e-09
1.17902e-09
1.1793e-09
1.17951e-09
1.17998e-09
1.1804e-09
1.1812e-09
1.18205e-09
1.18344e-09
1.18511e-09
1.18758e-09
1.19041e-09
1.19441e-09
1.19841e-09
1.20612e-09
1.21079e-09
1.21831e-09
1.21763e-09
1.13777e-09
1.13803e-09
1.13036e-09
1.1256e-09
1.11797e-09
1.11401e-09
1.11007e-09
1.1073e-09
1.10491e-09
1.10328e-09
1.1019e-09
1.10105e-09
1.10024e-09
1.09982e-09
1.09935e-09
1.09915e-09
1.09887e-09
1.09879e-09
1.09862e-09
1.09859e-09
1.09849e-09
1.09848e-09
1.09843e-09
1.09843e-09
1.09841e-09
1.09841e-09
1.09843e-09
1.09843e-09
1.09848e-09
1.09849e-09
1.09859e-09
1.09863e-09
1.0988e-09
1.09888e-09
1.09916e-09
1.09937e-09
1.09984e-09
1.10025e-09
1.10106e-09
1.10191e-09
1.10329e-09
1.10493e-09
1.10732e-09
1.11008e-09
1.11402e-09
1.11798e-09
1.12561e-09
1.13037e-09
1.13804e-09
1.13778e-09
1.0601e-09
1.05997e-09
1.0522e-09
1.04738e-09
1.03988e-09
1.03596e-09
1.03211e-09
1.02942e-09
1.02711e-09
1.02552e-09
1.02419e-09
1.02337e-09
1.02259e-09
1.02218e-09
1.02173e-09
1.02154e-09
1.02126e-09
1.02119e-09
1.02103e-09
1.02099e-09
1.02089e-09
1.02089e-09
1.02084e-09
1.02084e-09
1.02082e-09
1.02082e-09
1.02084e-09
1.02084e-09
1.02089e-09
1.0209e-09
1.021e-09
1.02103e-09
1.02119e-09
1.02127e-09
1.02155e-09
1.02174e-09
1.0222e-09
1.0226e-09
1.02338e-09
1.0242e-09
1.02553e-09
1.02712e-09
1.02943e-09
1.03212e-09
1.03598e-09
1.03989e-09
1.04739e-09
1.05221e-09
1.05998e-09
1.06011e-09
9.8366e-10
9.83389e-10
9.75539e-10
9.70657e-10
9.6326e-10
9.5935e-10
9.55533e-10
9.529e-10
9.50635e-10
9.49078e-10
9.47785e-10
9.4699e-10
9.46229e-10
9.45837e-10
9.45398e-10
9.45213e-10
9.44944e-10
9.44869e-10
9.44714e-10
9.44683e-10
9.44582e-10
9.44576e-10
9.44528e-10
9.44528e-10
9.44514e-10
9.44514e-10
9.44529e-10
9.44529e-10
9.44577e-10
9.44588e-10
9.44686e-10
9.44718e-10
9.44875e-10
9.44952e-10
9.45222e-10
9.45409e-10
9.4585e-10
9.46242e-10
9.47e-10
9.47794e-10
9.4909e-10
9.50651e-10
9.52911e-10
9.55546e-10
9.59363e-10
9.63273e-10
9.7067e-10
9.75551e-10
9.834e-10
9.83669e-10
9.08531e-10
9.07875e-10
9.00075e-10
8.95177e-10
8.88026e-10
8.84192e-10
8.80489e-10
8.7796e-10
8.75793e-10
8.74292e-10
8.73058e-10
8.72296e-10
8.71571e-10
8.71193e-10
8.70776e-10
8.70599e-10
8.70342e-10
8.70269e-10
8.70122e-10
8.70092e-10
8.69995e-10
8.69989e-10
8.69943e-10
8.69943e-10
8.6993e-10
8.6993e-10
8.69944e-10
8.69944e-10
8.6999e-10
8.7e-10
8.70095e-10
8.70126e-10
8.70275e-10
8.7035e-10
8.70608e-10
8.70787e-10
8.71206e-10
8.71582e-10
8.72305e-10
8.73067e-10
8.74304e-10
8.75809e-10
8.77971e-10
8.80502e-10
8.84205e-10
8.88038e-10
8.9519e-10
9.00086e-10
9.07885e-10
9.08539e-10
8.38249e-10
8.37311e-10
8.29556e-10
8.24681e-10
8.17783e-10
8.14033e-10
8.10439e-10
8.08018e-10
8.05945e-10
8.04502e-10
8.03324e-10
8.02595e-10
8.01903e-10
8.01541e-10
8.01144e-10
8.00976e-10
8.0073e-10
8.0066e-10
8.0052e-10
8.00492e-10
8.00398e-10
8.00393e-10
8.00349e-10
8.00349e-10
8.00336e-10
8.00336e-10
8.00349e-10
8.0035e-10
8.00394e-10
8.00404e-10
8.00495e-10
8.00524e-10
8.00665e-10
8.00737e-10
8.00984e-10
8.01154e-10
8.01553e-10
8.01914e-10
8.02604e-10
8.03332e-10
8.04513e-10
8.0596e-10
8.08027e-10
8.10452e-10
8.14045e-10
8.17795e-10
8.24693e-10
8.29566e-10
8.3732e-10
8.38257e-10
7.70766e-10
7.6958e-10
7.61914e-10
7.57092e-10
7.50479e-10
7.46811e-10
7.43362e-10
7.41044e-10
7.39069e-10
7.3769e-10
7.36566e-10
7.35871e-10
7.35214e-10
7.34867e-10
7.34492e-10
7.34333e-10
7.34098e-10
7.34031e-10
7.339e-10
7.33873e-10
7.33783e-10
7.33778e-10
7.33735e-10
7.33736e-10
7.33723e-10
7.33724e-10
7.33736e-10
7.33737e-10
7.33779e-10
7.33788e-10
7.33876e-10
7.33904e-10
7.34036e-10
7.34105e-10
7.3434e-10
7.34501e-10
7.34879e-10
7.35224e-10
7.35879e-10
7.36574e-10
7.37699e-10
7.39084e-10
7.41052e-10
7.43374e-10
7.46823e-10
7.5049e-10
7.57103e-10
7.61923e-10
7.69588e-10
7.70774e-10
7.06203e-10
7.04804e-10
6.97271e-10
6.92528e-10
6.86228e-10
6.82645e-10
6.7937e-10
6.77151e-10
6.75278e-10
6.73966e-10
6.72897e-10
6.72236e-10
6.71614e-10
6.71283e-10
6.70929e-10
6.70778e-10
6.70558e-10
6.70494e-10
6.7037e-10
6.70346e-10
6.7026e-10
6.70256e-10
6.70215e-10
6.70215e-10
6.70204e-10
6.70204e-10
6.70216e-10
6.70216e-10
6.70257e-10
6.70264e-10
6.70349e-10
6.70374e-10
6.70499e-10
6.70564e-10
6.70785e-10
6.70937e-10
6.71293e-10
6.71624e-10
6.72243e-10
6.72904e-10
6.73973e-10
6.75292e-10
6.77158e-10
6.79381e-10
6.82656e-10
6.86238e-10
6.92538e-10
6.97279e-10
7.04811e-10
7.0621e-10
6.44681e-10
6.43103e-10
6.35743e-10
6.31107e-10
6.25142e-10
6.21652e-10
6.18566e-10
6.16448e-10
6.14679e-10
6.13443e-10
6.12425e-10
6.11795e-10
6.11213e-10
6.10897e-10
6.10564e-10
6.1042e-10
6.10215e-10
6.10156e-10
6.1004e-10
6.10018e-10
6.09937e-10
6.09933e-10
6.09896e-10
6.09896e-10
6.09885e-10
6.09885e-10
6.09897e-10
6.09897e-10
6.09934e-10
6.09937e-10
6.1002e-10
6.10043e-10
6.1016e-10
6.10221e-10
6.10426e-10
6.10572e-10
6.10906e-10
6.11222e-10
6.11802e-10
6.12432e-10
6.13447e-10
6.14693e-10
6.16455e-10
6.18576e-10
6.21663e-10
6.25151e-10
6.31116e-10
6.35751e-10
6.4311e-10
6.44688e-10
5.84829e-10
5.83157e-10
5.76023e-10
5.715e-10
5.65874e-10
5.62456e-10
5.59547e-10
5.57522e-10
5.55846e-10
5.54682e-10
5.53706e-10
5.53096e-10
5.52561e-10
5.52258e-10
5.51945e-10
5.51798e-10
5.51609e-10
5.51554e-10
5.51446e-10
5.51426e-10
5.5135e-10
5.51347e-10
5.51319e-10
5.51319e-10
5.51309e-10
5.51309e-10
5.5132e-10
5.51319e-10
5.51348e-10
5.51342e-10
5.51429e-10
5.51449e-10
5.51559e-10
5.51615e-10
5.51805e-10
5.51952e-10
5.52266e-10
5.52568e-10
5.53102e-10
5.53712e-10
5.54685e-10
5.55859e-10
5.57527e-10
5.59557e-10
5.62465e-10
5.65882e-10
5.71508e-10
5.76029e-10
5.83163e-10
5.84834e-10
5.27966e-10
5.26145e-10
5.19315e-10
5.14958e-10
5.09701e-10
5.06425e-10
5.03721e-10
5.01812e-10
5.00259e-10
4.99182e-10
4.98248e-10
4.97653e-10
4.97197e-10
4.96912e-10
4.96623e-10
4.96462e-10
4.96281e-10
4.96231e-10
4.96131e-10
4.96113e-10
4.96043e-10
4.96041e-10
4.96034e-10
4.96035e-10
4.96025e-10
4.96025e-10
4.96035e-10
4.96035e-10
4.96041e-10
4.96021e-10
4.96115e-10
4.96133e-10
4.96234e-10
4.96285e-10
4.96468e-10
4.9663e-10
4.9692e-10
4.97203e-10
4.97658e-10
4.98253e-10
4.99184e-10
5.00271e-10
5.01816e-10
5.0373e-10
5.06434e-10
5.09709e-10
5.14965e-10
5.19321e-10
5.2615e-10
5.27971e-10
4.74429e-10
4.72502e-10
4.6601e-10
4.61849e-10
4.56955e-10
4.53841e-10
4.5134e-10
4.49548e-10
4.48131e-10
4.47141e-10
4.46214e-10
4.45625e-10
4.45314e-10
4.45054e-10
4.44789e-10
4.446e-10
4.44376e-10
4.44331e-10
4.44239e-10
4.44223e-10
4.44161e-10
4.44159e-10
4.4419e-10
4.44191e-10
4.44182e-10
4.44182e-10
4.44192e-10
4.44191e-10
4.44159e-10
4.44124e-10
4.44225e-10
4.44241e-10
4.44334e-10
4.4438e-10
4.44605e-10
4.44794e-10
4.45061e-10
4.4532e-10
4.4563e-10
4.46218e-10
4.47143e-10
4.48142e-10
4.49552e-10
4.51348e-10
4.53849e-10
4.56961e-10
4.61855e-10
4.66015e-10
4.72506e-10
4.74433e-10
4.25687e-10
4.23738e-10
4.17561e-10
4.13618e-10
4.09053e-10
4.06107e-10
4.03789e-10
4.02126e-10
4.00829e-10
3.99925e-10
3.98902e-10
3.98348e-10
3.98299e-10
3.98072e-10
3.97828e-10
3.97637e-10
3.97222e-10
3.97182e-10
3.97097e-10
3.97084e-10
3.97029e-10
3.97027e-10
3.97081e-10
3.97082e-10
3.97074e-10
3.97074e-10
3.97082e-10
3.97081e-10
3.97027e-10
3.96997e-10
3.97086e-10
3.97099e-10
3.97185e-10
3.97225e-10
3.97641e-10
3.97833e-10
3.98078e-10
3.98305e-10
3.98353e-10
3.98905e-10
3.99928e-10
4.00839e-10
4.0213e-10
4.03796e-10
4.06114e-10
4.09059e-10
4.13623e-10
4.17565e-10
4.23742e-10
4.25691e-10
3.79263e-10
3.77372e-10
3.71518e-10
3.67793e-10
3.63524e-10
3.60725e-10
3.58571e-10
3.57028e-10
3.5584e-10
3.55019e-10
3.54697e-10
3.54369e-10
3.53641e-10
3.53448e-10
3.53224e-10
3.53208e-10
3.53373e-10
3.5334e-10
3.53262e-10
3.53251e-10
3.53203e-10
3.53201e-10
3.53094e-10
3.53095e-10
3.53087e-10
3.53087e-10
3.53095e-10
3.53094e-10
3.53202e-10
3.53214e-10
3.53253e-10
3.53264e-10
3.53342e-10
3.53376e-10
3.53211e-10
3.53229e-10
3.53454e-10
3.53647e-10
3.54373e-10
3.547e-10
3.55023e-10
3.55849e-10
3.57032e-10
3.58578e-10
3.60733e-10
3.6353e-10
3.67798e-10
3.71522e-10
3.77375e-10
3.79267e-10
3.37064e-10
3.35229e-10
3.29732e-10
3.26259e-10
3.22296e-10
3.19699e-10
3.17716e-10
3.16301e-10
3.15227e-10
3.14491e-10
3.14073e-10
3.13771e-10
3.13299e-10
3.13139e-10
3.12933e-10
3.12914e-10
3.12845e-10
3.12815e-10
3.12739e-10
3.12729e-10
3.12685e-10
3.12684e-10
3.12623e-10
3.12624e-10
3.12616e-10
3.12616e-10
3.12624e-10
3.12623e-10
3.12685e-10
3.1273e-10
3.12731e-10
3.12741e-10
3.12817e-10
3.12848e-10
3.12918e-10
3.12937e-10
3.13143e-10
3.13303e-10
3.13774e-10
3.14076e-10
3.14498e-10
3.15235e-10
3.16305e-10
3.17721e-10
3.19707e-10
3.223e-10
3.26263e-10
3.29735e-10
3.35232e-10
3.37067e-10
2.98129e-10
2.96361e-10
2.91234e-10
2.88024e-10
2.84348e-10
2.81971e-10
2.80155e-10
2.78863e-10
2.77899e-10
2.77241e-10
2.76821e-10
2.76534e-10
2.76183e-10
2.76044e-10
2.75857e-10
2.75818e-10
2.75717e-10
2.75692e-10
2.75623e-10
2.75615e-10
2.75577e-10
2.75577e-10
2.7554e-10
2.75541e-10
2.75534e-10
2.75534e-10
2.75541e-10
2.7554e-10
2.75578e-10
2.756e-10
2.75617e-10
2.75624e-10
2.75694e-10
2.7572e-10
2.75822e-10
2.75861e-10
2.76048e-10
2.76186e-10
2.76536e-10
2.76824e-10
2.77248e-10
2.77906e-10
2.78867e-10
2.80161e-10
2.81978e-10
2.84352e-10
2.88027e-10
2.91236e-10
2.96363e-10
2.98132e-10
2.61689e-10
2.59995e-10
2.55243e-10
2.52295e-10
2.48874e-10
2.46701e-10
2.45048e-10
2.43864e-10
2.43e-10
2.42409e-10
2.42013e-10
2.4174e-10
2.41458e-10
2.41334e-10
2.41165e-10
2.41116e-10
2.41015e-10
2.40994e-10
2.40931e-10
2.40925e-10
2.40893e-10
2.40893e-10
2.4087e-10
2.40871e-10
2.40864e-10
2.40864e-10
2.40871e-10
2.4087e-10
2.40893e-10
2.40904e-10
2.40926e-10
2.40933e-10
2.40996e-10
2.41017e-10
2.41119e-10
2.41168e-10
2.41337e-10
2.41461e-10
2.41742e-10
2.42015e-10
2.42415e-10
2.43005e-10
2.43868e-10
2.45053e-10
2.46707e-10
2.48877e-10
2.52298e-10
2.55245e-10
2.59998e-10
2.61692e-10
2.29069e-10
2.27446e-10
2.23072e-10
2.20385e-10
2.1726e-10
2.15284e-10
2.13798e-10
2.12727e-10
2.1196e-10
2.11436e-10
2.11075e-10
2.10823e-10
2.10584e-10
2.10471e-10
2.1032e-10
2.10271e-10
2.10183e-10
2.10165e-10
2.10109e-10
2.10104e-10
2.10076e-10
2.10076e-10
2.10059e-10
2.1006e-10
2.10054e-10
2.10054e-10
2.1006e-10
2.10059e-10
2.10077e-10
2.1008e-10
2.10105e-10
2.1011e-10
2.10166e-10
2.10185e-10
2.10274e-10
2.10323e-10
2.10474e-10
2.10586e-10
2.10824e-10
2.11077e-10
2.1144e-10
2.11965e-10
2.1273e-10
2.13803e-10
2.15289e-10
2.17264e-10
2.20388e-10
2.23074e-10
2.27448e-10
2.29072e-10
1.99469e-10
1.97925e-10
1.93927e-10
1.91489e-10
1.88669e-10
1.86876e-10
1.85553e-10
1.84586e-10
1.83897e-10
1.8341e-10
1.83075e-10
1.82838e-10
1.82624e-10
1.8252e-10
1.82382e-10
1.82334e-10
1.82254e-10
1.82238e-10
1.82187e-10
1.82183e-10
1.82157e-10
1.82157e-10
1.82143e-10
1.82144e-10
1.82139e-10
1.82139e-10
1.82144e-10
1.82143e-10
1.82158e-10
1.82158e-10
1.82184e-10
1.82188e-10
1.82239e-10
1.82255e-10
1.82336e-10
1.82384e-10
1.82523e-10
1.82626e-10
1.8284e-10
1.83076e-10
1.83414e-10
1.83901e-10
1.84589e-10
1.85557e-10
1.86881e-10
1.88672e-10
1.91491e-10
1.93928e-10
1.97926e-10
1.99472e-10
1.72291e-10
1.708e-10
1.67133e-10
1.64903e-10
1.62371e-10
1.60733e-10
1.59563e-10
1.58687e-10
1.58081e-10
1.57645e-10
1.57348e-10
1.57135e-10
1.56948e-10
1.56855e-10
1.56732e-10
1.56689e-10
1.56619e-10
1.56605e-10
1.5656e-10
1.56557e-10
1.56534e-10
1.56535e-10
1.56522e-10
1.56523e-10
1.56518e-10
1.56518e-10
1.56523e-10
1.56522e-10
1.56535e-10
1.56534e-10
1.56558e-10
1.56561e-10
1.56606e-10
1.56621e-10
1.56691e-10
1.56734e-10
1.56857e-10
1.5695e-10
1.57137e-10
1.57349e-10
1.57648e-10
1.58085e-10
1.58689e-10
1.59568e-10
1.60737e-10
1.62374e-10
1.64905e-10
1.67134e-10
1.70802e-10
1.72293e-10
1.4833e-10
1.46932e-10
1.43635e-10
1.4163e-10
1.39388e-10
1.3792e-10
1.36896e-10
1.36115e-10
1.35585e-10
1.352e-10
1.34939e-10
1.34753e-10
1.3459e-10
1.34507e-10
1.344e-10
1.34363e-10
1.34301e-10
1.34289e-10
1.3425e-10
1.34247e-10
1.34227e-10
1.34228e-10
1.34216e-10
1.34217e-10
1.34213e-10
1.34213e-10
1.34217e-10
1.34216e-10
1.34228e-10
1.34227e-10
1.34248e-10
1.3425e-10
1.3429e-10
1.34302e-10
1.34364e-10
1.34401e-10
1.34509e-10
1.34591e-10
1.34754e-10
1.3494e-10
1.35203e-10
1.35589e-10
1.36116e-10
1.369e-10
1.37923e-10
1.3939e-10
1.41631e-10
1.43636e-10
1.46933e-10
1.48333e-10
1.26913e-10
1.25525e-10
1.2247e-10
1.20629e-10
1.18604e-10
1.17278e-10
1.16374e-10
1.15672e-10
1.15209e-10
1.14865e-10
1.14636e-10
1.14472e-10
1.1433e-10
1.14256e-10
1.14162e-10
1.1413e-10
1.14075e-10
1.14064e-10
1.1403e-10
1.14028e-10
1.1401e-10
1.14011e-10
1.14e-10
1.14001e-10
1.13997e-10
1.13997e-10
1.14001e-10
1.14e-10
1.14011e-10
1.1401e-10
1.14028e-10
1.1403e-10
1.14065e-10
1.14076e-10
1.14131e-10
1.14163e-10
1.14257e-10
1.14331e-10
1.14473e-10
1.14637e-10
1.14868e-10
1.15211e-10
1.15674e-10
1.16377e-10
1.17281e-10
1.18606e-10
1.2063e-10
1.22471e-10
1.25526e-10
1.26915e-10
1.08001e-10
1.06716e-10
1.03998e-10
1.02373e-10
1.00589e-10
9.94177e-11
9.86391e-11
9.80242e-11
9.76246e-11
9.73248e-11
9.71264e-11
9.69865e-11
9.68643e-11
9.68008e-11
9.6719e-11
9.66918e-11
9.6644e-11
9.6635e-11
9.66052e-11
9.66038e-11
9.65885e-11
9.6589e-11
9.65796e-11
9.65803e-11
9.65771e-11
9.65771e-11
9.65804e-11
9.65795e-11
9.65892e-11
9.6588e-11
9.66041e-11
9.66055e-11
9.66356e-11
9.66448e-11
9.66928e-11
9.67203e-11
9.68018e-11
9.68652e-11
9.69869e-11
9.71274e-11
9.73272e-11
9.76262e-11
9.80257e-11
9.86422e-11
9.94202e-11
1.0059e-10
1.02373e-10
1.03998e-10
1.06717e-10
1.08003e-10
9.13682e-11
9.01798e-11
8.77867e-11
8.6363e-11
8.4766e-11
8.37062e-11
8.30173e-11
8.24672e-11
8.21156e-11
8.18474e-11
8.16725e-11
8.15517e-11
8.14455e-11
8.13903e-11
8.13184e-11
8.12948e-11
8.12525e-11
8.12446e-11
8.12184e-11
8.12174e-11
8.12037e-11
8.12042e-11
8.11959e-11
8.11966e-11
8.11938e-11
8.11938e-11
8.11966e-11
8.11958e-11
8.12044e-11
8.12033e-11
8.12176e-11
8.12187e-11
8.12451e-11
8.12531e-11
8.12957e-11
8.13195e-11
8.13911e-11
8.14462e-11
8.15518e-11
8.16739e-11
8.18496e-11
8.21166e-11
8.24682e-11
8.302e-11
8.37086e-11
8.4767e-11
8.63634e-11
8.77867e-11
9.01804e-11
9.13698e-11
7.65547e-11
7.57412e-11
7.36556e-11
7.2422e-11
7.10158e-11
7.00967e-11
6.95092e-11
6.90331e-11
6.87353e-11
6.85031e-11
6.83536e-11
6.82523e-11
6.81628e-11
6.81171e-11
6.80558e-11
6.80359e-11
6.79994e-11
6.79928e-11
6.79705e-11
6.79698e-11
6.79578e-11
6.79584e-11
6.79512e-11
6.79518e-11
6.79494e-11
6.79494e-11
6.79519e-11
6.79511e-11
6.79585e-11
6.79575e-11
6.79699e-11
6.79707e-11
6.79932e-11
6.8e-11
6.80366e-11
6.80566e-11
6.81178e-11
6.81634e-11
6.82523e-11
6.8355e-11
6.85052e-11
6.87354e-11
6.90341e-11
6.95115e-11
7.00988e-11
7.10166e-11
7.24222e-11
7.36555e-11
7.57417e-11
7.65561e-11
6.39475e-11
6.32134e-11
6.13269e-11
6.02304e-11
5.89642e-11
5.81551e-11
5.76515e-11
5.72338e-11
5.69809e-11
5.67781e-11
5.66493e-11
5.65632e-11
5.64881e-11
5.64512e-11
5.63987e-11
5.63817e-11
5.63503e-11
5.63445e-11
5.63255e-11
5.63249e-11
5.63145e-11
5.6315e-11
5.63088e-11
5.63094e-11
5.63073e-11
5.63073e-11
5.63094e-11
5.63088e-11
5.63151e-11
5.63143e-11
5.6325e-11
5.63256e-11
5.63449e-11
5.63507e-11
5.63823e-11
5.63994e-11
5.64517e-11
5.64885e-11
5.65631e-11
5.66506e-11
5.678e-11
5.69803e-11
5.72345e-11
5.76537e-11
5.81571e-11
5.89648e-11
6.02303e-11
6.13267e-11
6.32137e-11
6.39486e-11
5.28251e-11
5.21723e-11
5.05444e-11
4.96116e-11
4.87613e-11
4.80687e-11
4.76465e-11
4.72889e-11
4.70771e-11
4.69048e-11
4.67953e-11
4.67233e-11
4.66613e-11
4.66346e-11
4.65904e-11
4.65763e-11
4.65497e-11
4.65449e-11
4.65288e-11
4.65285e-11
4.65195e-11
4.652e-11
4.65148e-11
4.65153e-11
4.65136e-11
4.65135e-11
4.65153e-11
4.65148e-11
4.65201e-11
4.65193e-11
4.65285e-11
4.6529e-11
4.65452e-11
4.65501e-11
4.65768e-11
4.6591e-11
4.6635e-11
4.66616e-11
4.67232e-11
4.67964e-11
4.69064e-11
4.7076e-11
4.72893e-11
4.76484e-11
4.80706e-11
4.87616e-11
4.96114e-11
5.05441e-11
5.21725e-11
5.28258e-11
4.35345e-11
4.29772e-11
4.15722e-11
4.07829e-11
4.00579e-11
3.94496e-11
3.90939e-11
3.87834e-11
3.86028e-11
3.84548e-11
3.836e-11
3.82978e-11
3.82451e-11
3.82298e-11
3.81921e-11
3.81802e-11
3.81575e-11
3.81535e-11
3.81398e-11
3.81395e-11
3.81318e-11
3.81323e-11
3.81278e-11
3.81283e-11
3.81268e-11
3.81267e-11
3.81283e-11
3.81277e-11
3.81323e-11
3.81316e-11
3.81396e-11
3.81398e-11
3.81537e-11
3.81577e-11
3.81806e-11
3.81926e-11
3.82301e-11
3.82454e-11
3.82976e-11
3.83608e-11
3.84563e-11
3.86016e-11
3.87831e-11
3.90958e-11
3.94514e-11
4.00579e-11
4.07827e-11
4.15718e-11
4.29774e-11
4.3535e-11
3.56446e-11
3.50575e-11
3.39711e-11
3.33091e-11
3.27008e-11
3.21841e-11
3.18912e-11
3.16305e-11
3.14789e-11
3.13557e-11
3.12752e-11
3.12224e-11
3.11769e-11
3.11754e-11
3.11441e-11
3.11344e-11
3.11153e-11
3.11121e-11
3.11007e-11
3.11005e-11
3.1094e-11
3.10944e-11
3.10907e-11
3.10911e-11
3.10898e-11
3.10898e-11
3.10911e-11
3.10906e-11
3.10945e-11
3.10938e-11
3.11005e-11
3.11007e-11
3.11123e-11
3.11155e-11
3.11347e-11
3.11444e-11
3.11756e-11
3.11771e-11
3.12221e-11
3.12759e-11
3.13566e-11
3.14781e-11
3.163e-11
3.18927e-11
3.21855e-11
3.27007e-11
3.33089e-11
3.39708e-11
3.50575e-11
3.56448e-11
2.8994e-11
2.84947e-11
2.75779e-11
2.70263e-11
2.6521e-11
2.60866e-11
2.5846e-11
2.56292e-11
2.55035e-11
2.54005e-11
2.53333e-11
2.52881e-11
2.52471e-11
2.52084e-11
2.51821e-11
2.51741e-11
2.51581e-11
2.51555e-11
2.51459e-11
2.51458e-11
2.51403e-11
2.51408e-11
2.51376e-11
2.5138e-11
2.51369e-11
2.51369e-11
2.5138e-11
2.51376e-11
2.51408e-11
2.51402e-11
2.51458e-11
2.5146e-11
2.51556e-11
2.51583e-11
2.51743e-11
2.51824e-11
2.52086e-11
2.52472e-11
2.52878e-11
2.53337e-11
2.54008e-11
2.55029e-11
2.56286e-11
2.58471e-11
2.60879e-11
2.65208e-11
2.70261e-11
2.75775e-11
2.84947e-11
2.8994e-11
2.34292e-11
2.30069e-11
2.2243e-11
2.17836e-11
2.13686e-11
2.10068e-11
2.08104e-11
2.0631e-11
2.05274e-11
2.04422e-11
2.03863e-11
2.03477e-11
2.0312e-11
2.0285e-11
2.02634e-11
2.02569e-11
2.02438e-11
2.02417e-11
2.02338e-11
2.02337e-11
2.02291e-11
2.02295e-11
2.02269e-11
2.02273e-11
2.02264e-11
2.02264e-11
2.02273e-11
2.02269e-11
2.02295e-11
2.02291e-11
2.02337e-11
2.02338e-11
2.02418e-11
2.02439e-11
2.02571e-11
2.02636e-11
2.02852e-11
2.03121e-11
2.03474e-11
2.03865e-11
2.04422e-11
2.05268e-11
2.06304e-11
2.08112e-11
2.10081e-11
2.13681e-11
2.17834e-11
2.22426e-11
2.30068e-11
2.3429e-11
1.88075e-11
1.84532e-11
1.78221e-11
1.74423e-11
1.71052e-11
1.68059e-11
1.66461e-11
1.64992e-11
1.64144e-11
1.63446e-11
1.62983e-11
1.62659e-11
1.6236e-11
1.62173e-11
1.61996e-11
1.61944e-11
1.61836e-11
1.6182e-11
1.61755e-11
1.61755e-11
1.61718e-11
1.61721e-11
1.617e-11
1.61703e-11
1.61695e-11
1.61695e-11
1.61703e-11
1.617e-11
1.61721e-11
1.61717e-11
1.61755e-11
1.61755e-11
1.61821e-11
1.61837e-11
1.61945e-11
1.61998e-11
1.62174e-11
1.62361e-11
1.62656e-11
1.62984e-11
1.63443e-11
1.64139e-11
1.64986e-11
1.66466e-11
1.68075e-11
1.71042e-11
1.74421e-11
1.78217e-11
1.8453e-11
1.88072e-11
1.4998e-11
1.47034e-11
1.41859e-11
1.38749e-11
1.36029e-11
1.33582e-11
1.32284e-11
1.31089e-11
1.30405e-11
1.29835e-11
1.29455e-11
1.29188e-11
1.28946e-11
1.28812e-11
1.28669e-11
1.28628e-11
1.2854e-11
1.28528e-11
1.28475e-11
1.28475e-11
1.28444e-11
1.28447e-11
1.2843e-11
1.28432e-11
1.28427e-11
1.28427e-11
1.28432e-11
1.2843e-11
1.28447e-11
1.28444e-11
1.28475e-11
1.28475e-11
1.28528e-11
1.28541e-11
1.28629e-11
1.28671e-11
1.28813e-11
1.28947e-11
1.29185e-11
1.29456e-11
1.2983e-11
1.30399e-11
1.31084e-11
1.32287e-11
1.33591e-11
1.36024e-11
1.38747e-11
1.41856e-11
1.47032e-11
1.49977e-11
1.18817e-11
1.16389e-11
1.12177e-11
1.09658e-11
1.07488e-11
1.0549e-11
1.04446e-11
1.03482e-11
1.02933e-11
1.02472e-11
1.02163e-11
1.01947e-11
1.01755e-11
1.01657e-11
1.01541e-11
1.01508e-11
1.01438e-11
1.01428e-11
1.01385e-11
1.01386e-11
1.01361e-11
1.01364e-11
1.0135e-11
1.01352e-11
1.01347e-11
1.01347e-11
1.01352e-11
1.01349e-11
1.01363e-11
1.0136e-11
1.01386e-11
1.01385e-11
1.01428e-11
1.01438e-11
1.01509e-11
1.01543e-11
1.01657e-11
1.01755e-11
1.01944e-11
1.02163e-11
1.02465e-11
1.02928e-11
1.03477e-11
1.04447e-11
1.05495e-11
1.07485e-11
1.09656e-11
1.12174e-11
1.16386e-11
1.18813e-11
9.35163e-12
9.15335e-12
8.81304e-12
8.59996e-12
8.42023e-12
8.27724e-12
8.19394e-12
8.11682e-12
8.07321e-12
8.03621e-12
8.01138e-12
7.99407e-12
7.979e-12
7.97166e-12
7.96242e-12
7.95981e-12
7.95415e-12
7.95339e-12
7.94998e-12
7.95003e-12
7.94802e-12
7.94825e-12
7.94713e-12
7.9473e-12
7.94693e-12
7.94693e-12
7.9473e-12
7.94712e-12
7.94824e-12
7.94799e-12
7.95002e-12
7.94998e-12
7.95341e-12
7.95419e-12
7.95987e-12
7.96251e-12
7.97172e-12
7.97904e-12
7.99386e-12
8.01123e-12
8.03549e-12
8.07269e-12
8.11641e-12
8.19403e-12
8.27747e-12
8.42007e-12
8.59976e-12
8.81279e-12
9.15311e-12
9.35118e-12
7.3131e-12
7.15273e-12
6.8798e-12
6.70904e-12
6.56718e-12
6.45399e-12
6.38806e-12
6.32688e-12
6.29253e-12
6.26297e-12
6.24335e-12
)
;

boundaryField
{
    fuel
    {
        type            fixedValue;
        value           nonuniform 0();
    }
    wall
    {
        type            zeroGradient;
    }
    outlet
    {
        type            zeroGradient;
    }
    frontAndBack
    {
        type            empty;
    }
    procBoundary2to0
    {
        type            processor;
        value           nonuniform List<scalar> 
53
(
1.82386e-09
1.82797e-09
1.82285e-09
1.81967e-09
1.8128e-09
1.80887e-09
1.80504e-09
1.80203e-09
1.79927e-09
1.79746e-09
1.79587e-09
1.79492e-09
1.79399e-09
1.79351e-09
1.79296e-09
1.79274e-09
1.79242e-09
1.79232e-09
1.70041e-09
1.70041e-09
1.70038e-09
1.70027e-09
1.70026e-09
1.7002e-09
1.7002e-09
1.70018e-09
1.70018e-09
1.7002e-09
1.7002e-09
1.6097e-09
1.6097e-09
1.60971e-09
1.60982e-09
1.60985e-09
1.61004e-09
1.61013e-09
1.61044e-09
1.61067e-09
1.61119e-09
1.61166e-09
1.61256e-09
1.61349e-09
1.52571e-09
1.52571e-09
1.52747e-09
1.53013e-09
1.53308e-09
1.53709e-09
1.54106e-09
1.54847e-09
1.55241e-09
1.55883e-09
1.55641e-09
)
;
    }
    procBoundary2to3
    {
        type            processor;
        value           nonuniform List<scalar> 
51
(
6.22978e-12
6.21796e-12
6.21241e-12
6.20499e-12
6.20292e-12
6.19837e-12
6.19778e-12
6.19505e-12
6.1951e-12
6.1935e-12
6.19368e-12
6.19279e-12
6.19293e-12
6.19264e-12
6.19264e-12
6.19294e-12
6.19279e-12
6.19368e-12
6.19348e-12
6.1951e-12
6.19504e-12
6.1978e-12
6.1984e-12
6.20297e-12
6.20506e-12
6.21245e-12
6.218e-12
6.22958e-12
6.2433e-12
6.26254e-12
6.2922e-12
6.32666e-12
6.38821e-12
6.45412e-12
6.56714e-12
6.70893e-12
6.87966e-12
7.15251e-12
7.31278e-12
5.68311e-12
5.55467e-12
5.33735e-12
5.20182e-12
5.09066e-12
5.00175e-12
4.94998e-12
4.90189e-12
4.87512e-12
4.85167e-12
6.22978e-12
4.83634e-12
)
;
    }
}


// ************************************************************************* //
