/*--------------------------------*- C++ -*----------------------------------*\
| =========                 |                                                 |
| \\      /  F ield         | OpenFOAM: The Open Source CFD Toolbox           |
|  \\    /   O peration     | Version:  dev                                   |
|   \\  /    A nd           | Web:      www.OpenFOAM.org                      |
|    \\/     M anipulation  |                                                 |
\*---------------------------------------------------------------------------*/
FoamFile
{
    version     2.0;
    format      ascii;
    class       volScalarField;
    location    "0.065";
    object      c-C6H4;
}
// * * * * * * * * * * * * * * * * * * * * * * * * * * * * * * * * * * * * * //

dimensions      [0 0 0 0 0 0 0];

internalField   nonuniform List<scalar> 
1997
(
8.58788e-07
8.60532e-07
8.61199e-07
8.61645e-07
8.61487e-07
8.61365e-07
8.61166e-07
8.60999e-07
8.60804e-07
8.60699e-07
8.60586e-07
8.60538e-07
8.60473e-07
8.60456e-07
8.60419e-07
8.60417e-07
8.60395e-07
8.60399e-07
8.46461e-07
8.48086e-07
8.48645e-07
8.49032e-07
8.48845e-07
8.48702e-07
8.48487e-07
8.48314e-07
8.48119e-07
8.4801e-07
8.47898e-07
8.47848e-07
8.47783e-07
8.47765e-07
8.47729e-07
8.47726e-07
8.47705e-07
8.47708e-07
8.47696e-07
8.477e-07
8.47692e-07
8.47695e-07
8.47691e-07
8.47693e-07
8.47692e-07
8.47692e-07
8.47693e-07
8.47691e-07
8.34342e-07
8.3585e-07
8.36303e-07
8.3663e-07
8.36411e-07
8.36246e-07
8.36016e-07
8.35836e-07
8.3564e-07
8.35527e-07
8.35414e-07
8.35363e-07
8.35298e-07
8.35279e-07
8.35243e-07
8.35239e-07
8.35218e-07
8.35221e-07
8.35209e-07
8.35212e-07
8.35205e-07
8.35208e-07
8.35204e-07
8.35205e-07
8.35204e-07
8.35204e-07
8.35205e-07
8.35204e-07
8.35208e-07
8.35205e-07
8.35213e-07
8.35209e-07
8.35221e-07
8.35218e-07
8.3524e-07
8.35243e-07
8.3528e-07
8.35299e-07
8.35363e-07
8.35414e-07
8.22388e-07
8.23781e-07
8.24128e-07
8.24394e-07
8.24141e-07
8.23952e-07
8.23707e-07
8.23519e-07
8.2332e-07
8.23203e-07
8.2309e-07
8.23036e-07
8.22972e-07
8.22951e-07
8.22915e-07
8.22911e-07
8.2289e-07
8.22892e-07
8.2288e-07
8.22884e-07
8.22876e-07
8.22879e-07
8.22875e-07
8.22876e-07
8.22875e-07
8.22875e-07
8.22876e-07
8.22875e-07
8.22879e-07
8.22876e-07
8.22884e-07
8.22881e-07
8.22893e-07
8.22891e-07
8.22912e-07
8.22916e-07
8.22953e-07
8.22973e-07
8.23037e-07
8.2309e-07
8.23204e-07
8.23321e-07
8.23519e-07
8.23707e-07
8.23952e-07
8.24141e-07
8.24394e-07
8.24128e-07
8.2378e-07
8.22387e-07
8.10555e-07
8.11833e-07
8.12076e-07
8.12278e-07
8.1199e-07
8.11775e-07
8.11514e-07
8.11317e-07
8.11116e-07
8.10994e-07
8.10879e-07
8.10824e-07
8.10759e-07
8.10737e-07
8.10701e-07
8.10696e-07
8.10675e-07
8.10677e-07
8.10665e-07
8.10668e-07
8.1066e-07
8.10663e-07
8.10659e-07
8.1066e-07
8.10659e-07
8.10659e-07
8.1066e-07
8.10659e-07
8.10663e-07
8.1066e-07
8.10668e-07
8.10665e-07
8.10678e-07
8.10676e-07
8.10697e-07
8.10702e-07
8.10739e-07
8.1076e-07
8.10825e-07
8.1088e-07
8.10995e-07
8.11117e-07
8.11317e-07
8.11515e-07
8.11776e-07
8.1199e-07
8.12278e-07
8.12075e-07
8.11833e-07
8.10554e-07
7.98622e-07
7.99815e-07
7.99949e-07
8.00077e-07
7.99719e-07
7.99468e-07
7.99178e-07
7.98962e-07
7.9875e-07
7.98618e-07
7.98498e-07
7.98439e-07
7.98371e-07
7.98347e-07
7.98309e-07
7.98303e-07
7.98281e-07
7.98282e-07
7.9827e-07
7.98272e-07
7.98264e-07
7.98266e-07
7.98262e-07
7.98264e-07
7.98263e-07
7.98263e-07
7.98264e-07
7.98262e-07
7.98267e-07
7.98264e-07
7.98273e-07
7.9827e-07
7.98283e-07
7.98282e-07
7.98304e-07
7.9831e-07
7.98348e-07
7.98372e-07
7.98439e-07
7.98499e-07
7.98619e-07
7.98751e-07
7.98963e-07
7.99179e-07
7.99468e-07
7.9972e-07
8.00077e-07
7.99948e-07
7.99814e-07
7.98621e-07
7.86868e-07
7.8795e-07
7.87977e-07
7.88037e-07
7.87636e-07
7.87354e-07
7.87046e-07
7.86818e-07
7.866e-07
7.86462e-07
7.86341e-07
7.86278e-07
7.8621e-07
7.86184e-07
7.86146e-07
7.86139e-07
7.86117e-07
7.86117e-07
7.86105e-07
7.86107e-07
7.86099e-07
7.86101e-07
7.86097e-07
7.86098e-07
7.86097e-07
7.86097e-07
7.86098e-07
7.86097e-07
7.86101e-07
7.86099e-07
7.86107e-07
7.86105e-07
7.86118e-07
7.86118e-07
7.8614e-07
7.86147e-07
7.86185e-07
7.86211e-07
7.86279e-07
7.86341e-07
7.86464e-07
7.86602e-07
7.86819e-07
7.87047e-07
7.87355e-07
7.87636e-07
7.88037e-07
7.87976e-07
7.87949e-07
7.86867e-07
7.7508e-07
7.76052e-07
7.75969e-07
7.7596e-07
7.75509e-07
7.75196e-07
7.74867e-07
7.74626e-07
7.74402e-07
7.74257e-07
7.74125e-07
7.74056e-07
7.73982e-07
7.73953e-07
7.73912e-07
7.73903e-07
7.73879e-07
7.73878e-07
7.73865e-07
7.73867e-07
7.73857e-07
7.7386e-07
7.73855e-07
7.73857e-07
7.73856e-07
7.73856e-07
7.73857e-07
7.73855e-07
7.7386e-07
7.73858e-07
7.73867e-07
7.73865e-07
7.73879e-07
7.73879e-07
7.73904e-07
7.73913e-07
7.73954e-07
7.73983e-07
7.74057e-07
7.74126e-07
7.74258e-07
7.74403e-07
7.74627e-07
7.74868e-07
7.75196e-07
7.7551e-07
7.7596e-07
7.75968e-07
7.76051e-07
7.75079e-07
7.63209e-07
7.64071e-07
7.63876e-07
7.63794e-07
7.63291e-07
7.62943e-07
7.62592e-07
7.62337e-07
7.62105e-07
7.61952e-07
7.61817e-07
7.61744e-07
7.61668e-07
7.61637e-07
7.61595e-07
7.61585e-07
7.6156e-07
7.61559e-07
7.61545e-07
7.61547e-07
7.61537e-07
7.6154e-07
7.61535e-07
7.61537e-07
7.61535e-07
7.61535e-07
7.61537e-07
7.61535e-07
7.6154e-07
7.61538e-07
7.61547e-07
7.61546e-07
7.6156e-07
7.61561e-07
7.61586e-07
7.61596e-07
7.61638e-07
7.61669e-07
7.61745e-07
7.61817e-07
7.61953e-07
7.62106e-07
7.62337e-07
7.62593e-07
7.62944e-07
7.63291e-07
7.63794e-07
7.63875e-07
7.64071e-07
7.63209e-07
7.51029e-07
7.51813e-07
7.51497e-07
7.51333e-07
7.50761e-07
7.50367e-07
7.49983e-07
7.49706e-07
7.49458e-07
7.49294e-07
7.49151e-07
7.49074e-07
7.48993e-07
7.4896e-07
7.48915e-07
7.48905e-07
7.48878e-07
7.48876e-07
7.48862e-07
7.48863e-07
7.48853e-07
7.48855e-07
7.4885e-07
7.48851e-07
7.4885e-07
7.4885e-07
7.48851e-07
7.4885e-07
7.48855e-07
7.48853e-07
7.48863e-07
7.48862e-07
7.48877e-07
7.48879e-07
7.48905e-07
7.48916e-07
7.48961e-07
7.48994e-07
7.49074e-07
7.49152e-07
7.49294e-07
7.49459e-07
7.49706e-07
7.49983e-07
7.50367e-07
7.50761e-07
7.51333e-07
7.51496e-07
7.51813e-07
7.51028e-07
7.38442e-07
7.39105e-07
7.38672e-07
7.38425e-07
7.37793e-07
7.37359e-07
7.36949e-07
7.36654e-07
7.36397e-07
7.36223e-07
7.36075e-07
7.35993e-07
7.3591e-07
7.35874e-07
7.35828e-07
7.35816e-07
7.35789e-07
7.35786e-07
7.35771e-07
7.35772e-07
7.35762e-07
7.35764e-07
7.35759e-07
7.3576e-07
7.35759e-07
7.35759e-07
7.3576e-07
7.35759e-07
7.35764e-07
7.35762e-07
7.35772e-07
7.35772e-07
7.35787e-07
7.35789e-07
7.35817e-07
7.35829e-07
7.35875e-07
7.35911e-07
7.35994e-07
7.36075e-07
7.36223e-07
7.36398e-07
7.36654e-07
7.36949e-07
7.37359e-07
7.37793e-07
7.38425e-07
7.38671e-07
7.39104e-07
7.38441e-07
7.25944e-07
7.26497e-07
7.25939e-07
7.25609e-07
7.24912e-07
7.24435e-07
7.23994e-07
7.23681e-07
7.23413e-07
7.23228e-07
7.23074e-07
7.22987e-07
7.22901e-07
7.22862e-07
7.22814e-07
7.22801e-07
7.22772e-07
7.22769e-07
7.22754e-07
7.22754e-07
7.22743e-07
7.22745e-07
7.2274e-07
7.22741e-07
7.2274e-07
7.2274e-07
7.22741e-07
7.2274e-07
7.22745e-07
7.22744e-07
7.22755e-07
7.22754e-07
7.2277e-07
7.22773e-07
7.22802e-07
7.22815e-07
7.22862e-07
7.22902e-07
7.22988e-07
7.23074e-07
7.23228e-07
7.23413e-07
7.23681e-07
7.23994e-07
7.24435e-07
7.24912e-07
7.25608e-07
7.25938e-07
7.26496e-07
7.25943e-07
7.13123e-07
7.13567e-07
7.12877e-07
7.1246e-07
7.11695e-07
7.11171e-07
7.107e-07
7.10366e-07
7.10085e-07
7.0989e-07
7.09728e-07
7.09636e-07
7.09546e-07
7.09504e-07
7.09454e-07
7.0944e-07
7.0941e-07
7.09406e-07
7.0939e-07
7.09391e-07
7.09379e-07
7.09381e-07
7.09375e-07
7.09376e-07
7.09375e-07
7.09375e-07
7.09376e-07
7.09375e-07
7.09381e-07
7.09379e-07
7.09391e-07
7.0939e-07
7.09406e-07
7.0941e-07
7.09441e-07
7.09455e-07
7.09504e-07
7.09547e-07
7.09637e-07
7.09728e-07
7.0989e-07
7.10086e-07
7.10366e-07
7.10701e-07
7.11171e-07
7.11695e-07
7.1246e-07
7.12876e-07
7.13566e-07
7.13122e-07
6.99934e-07
7.00266e-07
6.9944e-07
6.98933e-07
6.98097e-07
6.97521e-07
6.97022e-07
6.96664e-07
6.96369e-07
6.96164e-07
6.95993e-07
6.95894e-07
6.95801e-07
6.95754e-07
6.95703e-07
6.95687e-07
6.95656e-07
6.95651e-07
6.95635e-07
6.95635e-07
6.95623e-07
6.95625e-07
6.95619e-07
6.9562e-07
6.95618e-07
6.95618e-07
6.9562e-07
6.95619e-07
6.95625e-07
6.95623e-07
6.95635e-07
6.95635e-07
6.95652e-07
6.95656e-07
6.95687e-07
6.95703e-07
6.95755e-07
6.95801e-07
6.95895e-07
6.95993e-07
6.96163e-07
6.9637e-07
6.96664e-07
6.97022e-07
6.97521e-07
6.98096e-07
6.98932e-07
6.99439e-07
7.00265e-07
6.99933e-07
6.86334e-07
6.86554e-07
6.85586e-07
6.84985e-07
6.84075e-07
6.83445e-07
6.82916e-07
6.82534e-07
6.82224e-07
6.82008e-07
6.81826e-07
6.81721e-07
6.81624e-07
6.81574e-07
6.8152e-07
6.81501e-07
6.8147e-07
6.81465e-07
6.81447e-07
6.81447e-07
6.81435e-07
6.81437e-07
6.81431e-07
6.81432e-07
6.81431e-07
6.81431e-07
6.81432e-07
6.81431e-07
6.81437e-07
6.81434e-07
6.81448e-07
6.81448e-07
6.81465e-07
6.8147e-07
6.81502e-07
6.8152e-07
6.81575e-07
6.81624e-07
6.81721e-07
6.81826e-07
6.82007e-07
6.82225e-07
6.82533e-07
6.82916e-07
6.83445e-07
6.84075e-07
6.84985e-07
6.85585e-07
6.86552e-07
6.86333e-07
6.71929e-07
6.72045e-07
6.70928e-07
6.70224e-07
6.69232e-07
6.68532e-07
6.67967e-07
6.67554e-07
6.67225e-07
6.66996e-07
6.66799e-07
6.66682e-07
6.66584e-07
6.6653e-07
6.66472e-07
6.66448e-07
6.66415e-07
6.6641e-07
6.66391e-07
6.66391e-07
6.66378e-07
6.6638e-07
6.66376e-07
6.66378e-07
6.66376e-07
6.66376e-07
6.66378e-07
6.66377e-07
6.6638e-07
6.66374e-07
6.66391e-07
6.66391e-07
6.6641e-07
6.66416e-07
6.66449e-07
6.66473e-07
6.6653e-07
6.66584e-07
6.66681e-07
6.66799e-07
6.66995e-07
6.67226e-07
6.67553e-07
6.67967e-07
6.68532e-07
6.69232e-07
6.70223e-07
6.70927e-07
6.72043e-07
6.71927e-07
6.56915e-07
6.56903e-07
6.55644e-07
6.54838e-07
6.53769e-07
6.53009e-07
6.52413e-07
6.51973e-07
6.51631e-07
6.51392e-07
6.51177e-07
6.51045e-07
6.50958e-07
6.509e-07
6.5084e-07
6.50807e-07
6.50768e-07
6.50762e-07
6.50742e-07
6.50742e-07
6.50729e-07
6.5073e-07
6.50734e-07
6.50735e-07
6.50733e-07
6.50733e-07
6.50735e-07
6.50734e-07
6.5073e-07
6.5072e-07
6.50742e-07
6.50742e-07
6.50762e-07
6.50768e-07
6.50807e-07
6.50841e-07
6.50901e-07
6.50958e-07
6.51044e-07
6.51177e-07
6.5139e-07
6.51631e-07
6.51972e-07
6.52414e-07
6.5301e-07
6.53768e-07
6.54837e-07
6.55642e-07
6.56902e-07
6.56913e-07
6.41298e-07
6.4116e-07
6.39755e-07
6.38848e-07
6.37699e-07
6.36879e-07
6.36252e-07
6.35783e-07
6.3543e-07
6.3518e-07
6.34933e-07
6.34784e-07
6.34732e-07
6.34673e-07
6.3461e-07
6.34563e-07
6.34498e-07
6.34491e-07
6.34471e-07
6.34471e-07
6.34457e-07
6.34459e-07
6.34474e-07
6.34475e-07
6.34473e-07
6.34473e-07
6.34475e-07
6.34474e-07
6.34459e-07
6.34444e-07
6.3447e-07
6.34471e-07
6.34491e-07
6.34498e-07
6.34563e-07
6.34611e-07
6.34673e-07
6.34732e-07
6.34783e-07
6.34933e-07
6.35179e-07
6.3543e-07
6.35782e-07
6.36252e-07
6.36879e-07
6.37698e-07
6.38846e-07
6.39753e-07
6.41158e-07
6.41297e-07
6.25498e-07
6.25248e-07
6.23689e-07
6.22685e-07
6.21452e-07
6.20571e-07
6.1991e-07
6.19416e-07
6.1905e-07
6.18792e-07
6.18471e-07
6.18315e-07
6.18344e-07
6.18287e-07
6.18221e-07
6.1817e-07
6.18023e-07
6.18017e-07
6.17995e-07
6.17995e-07
6.17982e-07
6.17983e-07
6.18003e-07
6.18004e-07
6.18002e-07
6.18002e-07
6.18004e-07
6.18003e-07
6.17983e-07
6.17971e-07
6.17995e-07
6.17995e-07
6.18017e-07
6.18023e-07
6.1817e-07
6.18222e-07
6.18287e-07
6.18345e-07
6.18315e-07
6.1847e-07
6.18791e-07
6.1905e-07
6.19415e-07
6.1991e-07
6.20571e-07
6.21451e-07
6.22683e-07
6.23687e-07
6.25246e-07
6.25496e-07
6.0871e-07
6.08364e-07
6.06639e-07
6.05529e-07
6.04197e-07
6.03241e-07
6.02537e-07
6.02014e-07
6.0163e-07
6.01361e-07
6.0128e-07
6.01187e-07
6.00931e-07
6.00875e-07
6.00806e-07
6.00814e-07
6.00893e-07
6.00887e-07
6.00865e-07
6.00865e-07
6.00851e-07
6.00852e-07
6.00811e-07
6.00812e-07
6.0081e-07
6.0081e-07
6.00812e-07
6.00811e-07
6.00852e-07
6.00854e-07
6.00864e-07
6.00865e-07
6.00887e-07
6.00893e-07
6.00814e-07
6.00807e-07
6.00876e-07
6.00931e-07
6.01187e-07
6.0128e-07
6.01361e-07
6.01631e-07
6.02013e-07
6.02538e-07
6.03241e-07
6.04196e-07
6.05528e-07
6.06637e-07
6.08362e-07
6.08709e-07
5.91605e-07
5.91156e-07
5.89278e-07
5.88076e-07
5.86654e-07
5.85645e-07
5.84906e-07
5.84358e-07
5.83963e-07
5.83686e-07
5.83536e-07
5.83434e-07
5.83261e-07
5.83208e-07
5.83136e-07
5.83139e-07
5.83116e-07
5.83108e-07
5.83083e-07
5.83082e-07
5.83068e-07
5.8307e-07
5.83045e-07
5.83046e-07
5.83043e-07
5.83043e-07
5.83046e-07
5.83045e-07
5.8307e-07
5.83087e-07
5.83083e-07
5.83083e-07
5.83109e-07
5.83116e-07
5.83139e-07
5.83136e-07
5.83208e-07
5.8326e-07
5.83434e-07
5.83536e-07
5.83687e-07
5.83963e-07
5.84357e-07
5.84906e-07
5.85645e-07
5.86654e-07
5.88075e-07
5.89276e-07
5.91154e-07
5.91604e-07
5.73856e-07
5.73304e-07
5.71275e-07
5.69987e-07
5.68472e-07
5.67415e-07
5.66644e-07
5.66071e-07
5.65666e-07
5.65382e-07
5.65203e-07
5.65089e-07
5.64946e-07
5.64894e-07
5.64819e-07
5.64809e-07
5.64767e-07
5.6476e-07
5.64733e-07
5.64733e-07
5.64719e-07
5.6472e-07
5.64704e-07
5.64706e-07
5.64703e-07
5.64703e-07
5.64706e-07
5.64704e-07
5.6472e-07
5.64729e-07
5.64733e-07
5.64733e-07
5.6476e-07
5.64767e-07
5.64809e-07
5.64819e-07
5.64894e-07
5.64946e-07
5.65088e-07
5.65203e-07
5.65383e-07
5.65666e-07
5.66071e-07
5.66644e-07
5.67416e-07
5.68471e-07
5.69985e-07
5.71273e-07
5.73302e-07
5.73855e-07
5.55111e-07
5.54453e-07
5.5227e-07
5.50894e-07
5.4927e-07
5.48158e-07
5.47351e-07
5.46749e-07
5.4633e-07
5.46035e-07
5.45841e-07
5.45713e-07
5.45583e-07
5.45528e-07
5.4545e-07
5.45431e-07
5.45382e-07
5.45375e-07
5.45348e-07
5.45348e-07
5.45333e-07
5.45335e-07
5.45325e-07
5.45326e-07
5.45323e-07
5.45323e-07
5.45326e-07
5.45325e-07
5.45335e-07
5.45339e-07
5.45348e-07
5.45348e-07
5.45376e-07
5.45383e-07
5.45431e-07
5.4545e-07
5.45528e-07
5.45582e-07
5.45712e-07
5.4584e-07
5.46037e-07
5.4633e-07
5.46748e-07
5.47352e-07
5.48158e-07
5.49269e-07
5.50892e-07
5.52268e-07
5.54451e-07
5.5511e-07
5.36103e-07
5.35339e-07
5.33017e-07
5.31564e-07
5.29863e-07
5.28702e-07
5.27873e-07
5.27247e-07
5.26821e-07
5.2652e-07
5.26316e-07
5.2618e-07
5.26052e-07
5.25995e-07
5.25915e-07
5.25892e-07
5.25844e-07
5.25837e-07
5.25809e-07
5.25809e-07
5.25794e-07
5.25796e-07
5.25788e-07
5.25789e-07
5.25786e-07
5.25786e-07
5.25789e-07
5.25787e-07
5.25796e-07
5.25796e-07
5.25809e-07
5.25809e-07
5.25837e-07
5.25844e-07
5.25892e-07
5.25915e-07
5.25995e-07
5.26052e-07
5.26179e-07
5.26316e-07
5.26521e-07
5.26821e-07
5.27246e-07
5.27873e-07
5.28702e-07
5.29863e-07
5.31562e-07
5.33015e-07
5.35337e-07
5.36103e-07
5.16523e-07
5.15653e-07
5.13202e-07
5.11675e-07
5.09914e-07
5.08704e-07
5.07858e-07
5.0721e-07
5.06768e-07
5.06444e-07
5.06226e-07
5.06078e-07
5.05945e-07
5.05883e-07
5.05798e-07
5.05771e-07
5.05722e-07
5.05714e-07
5.05684e-07
5.05684e-07
5.05668e-07
5.0567e-07
5.05662e-07
5.05663e-07
5.0566e-07
5.0566e-07
5.05663e-07
5.05662e-07
5.0567e-07
5.05668e-07
5.05684e-07
5.05684e-07
5.05714e-07
5.05722e-07
5.05771e-07
5.05798e-07
5.05883e-07
5.05945e-07
5.06078e-07
5.06225e-07
5.06445e-07
5.06768e-07
5.07209e-07
5.07859e-07
5.08705e-07
5.09913e-07
5.11674e-07
5.13199e-07
5.15651e-07
5.16522e-07
4.96062e-07
4.95062e-07
4.92455e-07
4.90833e-07
4.89007e-07
4.87732e-07
4.86869e-07
4.86191e-07
4.85743e-07
4.85409e-07
4.85185e-07
4.85033e-07
4.84898e-07
4.84834e-07
4.84747e-07
4.84719e-07
4.84669e-07
4.84661e-07
4.84631e-07
4.8463e-07
4.84614e-07
4.84616e-07
4.84608e-07
4.84609e-07
4.84606e-07
4.84606e-07
4.84609e-07
4.84607e-07
4.84616e-07
4.84614e-07
4.8463e-07
4.8463e-07
4.84661e-07
4.84669e-07
4.84719e-07
4.84747e-07
4.84834e-07
4.84898e-07
4.85033e-07
4.85185e-07
4.8541e-07
4.85743e-07
4.8619e-07
4.8687e-07
4.87733e-07
4.89006e-07
4.90831e-07
4.92452e-07
4.9506e-07
4.96061e-07
4.75478e-07
4.74378e-07
4.71674e-07
4.69991e-07
4.68128e-07
4.66818e-07
4.65949e-07
4.65255e-07
4.64803e-07
4.64464e-07
4.64238e-07
4.64085e-07
4.6395e-07
4.63884e-07
4.63796e-07
4.63769e-07
4.63718e-07
4.63711e-07
4.63679e-07
4.63679e-07
4.63663e-07
4.63665e-07
4.63656e-07
4.63657e-07
4.63654e-07
4.63654e-07
4.63657e-07
4.63656e-07
4.63665e-07
4.63663e-07
4.63679e-07
4.63679e-07
4.63711e-07
4.63718e-07
4.63769e-07
4.63797e-07
4.63884e-07
4.6395e-07
4.64084e-07
4.64238e-07
4.64465e-07
4.64804e-07
4.65253e-07
4.6595e-07
4.66818e-07
4.68127e-07
4.69989e-07
4.71672e-07
4.74377e-07
4.75477e-07
4.54449e-07
4.53167e-07
4.5026e-07
4.48469e-07
4.46518e-07
4.45154e-07
4.44265e-07
4.43545e-07
4.43088e-07
4.42738e-07
4.42508e-07
4.42353e-07
4.42216e-07
4.42148e-07
4.42059e-07
4.42031e-07
4.41979e-07
4.41971e-07
4.41939e-07
4.41939e-07
4.41923e-07
4.41924e-07
4.41915e-07
4.41916e-07
4.41913e-07
4.41913e-07
4.41916e-07
4.41914e-07
4.41924e-07
4.41922e-07
4.41939e-07
4.41939e-07
4.41971e-07
4.41979e-07
4.42031e-07
4.42059e-07
4.42148e-07
4.42216e-07
4.42352e-07
4.42508e-07
4.4274e-07
4.43088e-07
4.43544e-07
4.44267e-07
4.45154e-07
4.46517e-07
4.48467e-07
4.50258e-07
4.53165e-07
4.54449e-07
4.33193e-07
4.3182e-07
4.28841e-07
4.27019e-07
4.25038e-07
4.23653e-07
4.22772e-07
4.22047e-07
4.21592e-07
4.2124e-07
4.2101e-07
4.20858e-07
4.20723e-07
4.20656e-07
4.20566e-07
4.20539e-07
4.20486e-07
4.20479e-07
4.20447e-07
4.20447e-07
4.2043e-07
4.20432e-07
4.20422e-07
4.20424e-07
4.2042e-07
4.2042e-07
4.20424e-07
4.20422e-07
4.20432e-07
4.2043e-07
4.20447e-07
4.20447e-07
4.20478e-07
4.20486e-07
4.20539e-07
4.20566e-07
4.20655e-07
4.20722e-07
4.20857e-07
4.21011e-07
4.21242e-07
4.2159e-07
4.22045e-07
4.22774e-07
4.23654e-07
4.25037e-07
4.27017e-07
4.28838e-07
4.31818e-07
4.33193e-07
4.1176e-07
4.10295e-07
4.07271e-07
4.05431e-07
4.03381e-07
4.01936e-07
4.01033e-07
4.00283e-07
3.99819e-07
3.99456e-07
3.99221e-07
3.99068e-07
3.98932e-07
3.98865e-07
3.98774e-07
3.98746e-07
3.98692e-07
3.98684e-07
3.98652e-07
3.98652e-07
3.98635e-07
3.98637e-07
3.98627e-07
3.98628e-07
3.98624e-07
3.98624e-07
3.98628e-07
3.98626e-07
3.98636e-07
3.98634e-07
3.98652e-07
3.98652e-07
3.98684e-07
3.98692e-07
3.98746e-07
3.98774e-07
3.98865e-07
3.98932e-07
3.99067e-07
3.99222e-07
3.99458e-07
3.99818e-07
4.00282e-07
4.01035e-07
4.01937e-07
4.0338e-07
4.05428e-07
4.07268e-07
4.10293e-07
4.1176e-07
3.89841e-07
3.88715e-07
3.85672e-07
3.83832e-07
3.81752e-07
3.80311e-07
3.79425e-07
3.78677e-07
3.78224e-07
3.77861e-07
3.77629e-07
3.77481e-07
3.77349e-07
3.77286e-07
3.77197e-07
3.77169e-07
3.77116e-07
3.77108e-07
3.77076e-07
3.77077e-07
3.77059e-07
3.77061e-07
3.77051e-07
3.77053e-07
3.77049e-07
3.77049e-07
3.77053e-07
3.77051e-07
3.77061e-07
3.77059e-07
3.77076e-07
3.77076e-07
3.77108e-07
3.77116e-07
3.7717e-07
3.77197e-07
3.77286e-07
3.77349e-07
3.7748e-07
3.7763e-07
3.77863e-07
3.78221e-07
3.78676e-07
3.79426e-07
3.80312e-07
3.8175e-07
3.83829e-07
3.85669e-07
3.88713e-07
3.89841e-07
3.68385e-07
3.67189e-07
3.63996e-07
3.62101e-07
3.59937e-07
3.58473e-07
3.57593e-07
3.56834e-07
3.56387e-07
3.56021e-07
3.55789e-07
3.55642e-07
3.55514e-07
3.55457e-07
3.55367e-07
3.55341e-07
3.55287e-07
3.55279e-07
3.55247e-07
3.55248e-07
3.5523e-07
3.55232e-07
3.55222e-07
3.55224e-07
3.5522e-07
3.5522e-07
3.55223e-07
3.55222e-07
3.55232e-07
3.5523e-07
3.55247e-07
3.55247e-07
3.55279e-07
3.55287e-07
3.55341e-07
3.55368e-07
3.55457e-07
3.55514e-07
3.55641e-07
3.5579e-07
3.56023e-07
3.56384e-07
3.56833e-07
3.57594e-07
3.58475e-07
3.59936e-07
3.62099e-07
3.63993e-07
3.67187e-07
3.68384e-07
3.4659e-07
3.45346e-07
3.42157e-07
3.40292e-07
3.38666e-07
3.37224e-07
3.36372e-07
3.35625e-07
3.35192e-07
3.34833e-07
3.34605e-07
3.34462e-07
3.3434e-07
3.34295e-07
3.34208e-07
3.34182e-07
3.3413e-07
3.34123e-07
3.34091e-07
3.34092e-07
3.34075e-07
3.34077e-07
3.34067e-07
3.34068e-07
3.34065e-07
3.34065e-07
3.34068e-07
3.34066e-07
3.34076e-07
3.34074e-07
3.34092e-07
3.34091e-07
3.34122e-07
3.3413e-07
3.34182e-07
3.34208e-07
3.34295e-07
3.34339e-07
3.34461e-07
3.34606e-07
3.34835e-07
3.35187e-07
3.35623e-07
3.36374e-07
3.37226e-07
3.38665e-07
3.4029e-07
3.42154e-07
3.45344e-07
3.4659e-07
3.25613e-07
3.2438e-07
3.21207e-07
3.19385e-07
3.17764e-07
3.16302e-07
3.15471e-07
3.14722e-07
3.14294e-07
3.13938e-07
3.13709e-07
3.13565e-07
3.13443e-07
3.13418e-07
3.13332e-07
3.13307e-07
3.13255e-07
3.13248e-07
3.13217e-07
3.13218e-07
3.132e-07
3.13202e-07
3.13193e-07
3.13194e-07
3.13191e-07
3.13191e-07
3.13194e-07
3.13192e-07
3.13202e-07
3.132e-07
3.13217e-07
3.13217e-07
3.13248e-07
3.13255e-07
3.13307e-07
3.13332e-07
3.13418e-07
3.13442e-07
3.13563e-07
3.13709e-07
3.1394e-07
3.14289e-07
3.14719e-07
3.15474e-07
3.16304e-07
3.17762e-07
3.19383e-07
3.21203e-07
3.24378e-07
3.25612e-07
3.05089e-07
3.03562e-07
3.00751e-07
2.98987e-07
2.97407e-07
2.95979e-07
2.95189e-07
2.94465e-07
2.9405e-07
2.93709e-07
2.93485e-07
2.93343e-07
2.93219e-07
2.93227e-07
2.93144e-07
2.93121e-07
2.93071e-07
2.93064e-07
2.93034e-07
2.93035e-07
2.93018e-07
2.9302e-07
2.93011e-07
2.93012e-07
2.93009e-07
2.93009e-07
2.93012e-07
2.9301e-07
2.9302e-07
2.93017e-07
2.93035e-07
2.93034e-07
2.93064e-07
2.9307e-07
2.93121e-07
2.93145e-07
2.93227e-07
2.93219e-07
2.9334e-07
2.93485e-07
2.93709e-07
2.94047e-07
2.94462e-07
2.95192e-07
2.95981e-07
2.97405e-07
2.98985e-07
3.00748e-07
3.0356e-07
3.05087e-07
2.85163e-07
2.83676e-07
2.80928e-07
2.79232e-07
2.77713e-07
2.76331e-07
2.75583e-07
2.74889e-07
2.74493e-07
2.74163e-07
2.73948e-07
2.73806e-07
2.73677e-07
2.73551e-07
2.7347e-07
2.73448e-07
2.73399e-07
2.73393e-07
2.73364e-07
2.73365e-07
2.73348e-07
2.7335e-07
2.73341e-07
2.73343e-07
2.73339e-07
2.73339e-07
2.73343e-07
2.73341e-07
2.7335e-07
2.73348e-07
2.73364e-07
2.73363e-07
2.73392e-07
2.73399e-07
2.73448e-07
2.7347e-07
2.73551e-07
2.73676e-07
2.73804e-07
2.73948e-07
2.74163e-07
2.74489e-07
2.74886e-07
2.75584e-07
2.76334e-07
2.7771e-07
2.7923e-07
2.80925e-07
2.83674e-07
2.85161e-07
2.6597e-07
2.64527e-07
2.61883e-07
2.60254e-07
2.58812e-07
2.57489e-07
2.56784e-07
2.56123e-07
2.55747e-07
2.55433e-07
2.55227e-07
2.55088e-07
2.54957e-07
2.54861e-07
2.54784e-07
2.54763e-07
2.54717e-07
2.54711e-07
2.54684e-07
2.54685e-07
2.54669e-07
2.54671e-07
2.54662e-07
2.54664e-07
2.54661e-07
2.54661e-07
2.54664e-07
2.54662e-07
2.54671e-07
2.54668e-07
2.54684e-07
2.54683e-07
2.54711e-07
2.54717e-07
2.54763e-07
2.54784e-07
2.54861e-07
2.54957e-07
2.55085e-07
2.55226e-07
2.55431e-07
2.55743e-07
2.5612e-07
2.56785e-07
2.57492e-07
2.58809e-07
2.60252e-07
2.6188e-07
2.64525e-07
2.65968e-07
2.47638e-07
2.46249e-07
2.43731e-07
2.42182e-07
2.40831e-07
2.39573e-07
2.38912e-07
2.3829e-07
2.37936e-07
2.3764e-07
2.37444e-07
2.37309e-07
2.37184e-07
2.37109e-07
2.37037e-07
2.37018e-07
2.36974e-07
2.36969e-07
2.36943e-07
2.36944e-07
2.36929e-07
2.36932e-07
2.36923e-07
2.36925e-07
2.36922e-07
2.36922e-07
2.36925e-07
2.36923e-07
2.36931e-07
2.36929e-07
2.36944e-07
2.36943e-07
2.36969e-07
2.36974e-07
2.37018e-07
2.37037e-07
2.37109e-07
2.37184e-07
2.37307e-07
2.37443e-07
2.37638e-07
2.37932e-07
2.38286e-07
2.38912e-07
2.39579e-07
2.40825e-07
2.4218e-07
2.43728e-07
2.46247e-07
2.47635e-07
2.30285e-07
2.28964e-07
2.2659e-07
2.25134e-07
2.2388e-07
2.22699e-07
2.22082e-07
2.21501e-07
2.21172e-07
2.20896e-07
2.20711e-07
2.20584e-07
2.20468e-07
2.20407e-07
2.2034e-07
2.20323e-07
2.20282e-07
2.20278e-07
2.20253e-07
2.20255e-07
2.2024e-07
2.20243e-07
2.20235e-07
2.20236e-07
2.20234e-07
2.20234e-07
2.20236e-07
2.20235e-07
2.20242e-07
2.2024e-07
2.20254e-07
2.20253e-07
2.20277e-07
2.20282e-07
2.20323e-07
2.2034e-07
2.20407e-07
2.20467e-07
2.20581e-07
2.2071e-07
2.20892e-07
2.21168e-07
2.21497e-07
2.22081e-07
2.22702e-07
2.23876e-07
2.25132e-07
2.26587e-07
2.28961e-07
2.30282e-07
2.14022e-07
2.12779e-07
2.10565e-07
2.09215e-07
2.08065e-07
2.06963e-07
2.06393e-07
2.05857e-07
2.05555e-07
2.05299e-07
2.05128e-07
2.0501e-07
2.04905e-07
2.04854e-07
2.04793e-07
2.04777e-07
2.04739e-07
2.04735e-07
2.04713e-07
2.04714e-07
2.04701e-07
2.04703e-07
2.04696e-07
2.04698e-07
2.04695e-07
2.04695e-07
2.04698e-07
2.04696e-07
2.04703e-07
2.04701e-07
2.04714e-07
2.04713e-07
2.04735e-07
2.04739e-07
2.04777e-07
2.04793e-07
2.04854e-07
2.04904e-07
2.05007e-07
2.05126e-07
2.05294e-07
2.05551e-07
2.05853e-07
2.06392e-07
2.06964e-07
2.08063e-07
2.09212e-07
2.10562e-07
2.12776e-07
2.14018e-07
1.98943e-07
1.9779e-07
1.95748e-07
1.94441e-07
1.93345e-07
1.92453e-07
1.91933e-07
1.91444e-07
1.9117e-07
1.90936e-07
1.90779e-07
1.90672e-07
1.90579e-07
1.90536e-07
1.9048e-07
1.90466e-07
1.90431e-07
1.90428e-07
1.90408e-07
1.90409e-07
1.90397e-07
1.90399e-07
1.90392e-07
1.90394e-07
1.90392e-07
1.90392e-07
1.90394e-07
1.90392e-07
1.90399e-07
1.90397e-07
1.90409e-07
1.90407e-07
1.90428e-07
1.90431e-07
1.90465e-07
1.9048e-07
1.90536e-07
1.90578e-07
1.9067e-07
1.90777e-07
1.9093e-07
1.91165e-07
1.9144e-07
1.91932e-07
1.92452e-07
1.93342e-07
1.94438e-07
1.95745e-07
1.97787e-07
1.98939e-07
1.85131e-07
1.84077e-07
1.82218e-07
1.81031e-07
1.80048e-07
1.79243e-07
1.78775e-07
1.78334e-07
1.78089e-07
1.77877e-07
1.77737e-07
)
;

boundaryField
{
    fuel
    {
        type            fixedValue;
        value           nonuniform 0();
    }
    wall
    {
        type            zeroGradient;
    }
    outlet
    {
        type            zeroGradient;
    }
    frontAndBack
    {
        type            empty;
    }
    procBoundary2to0
    {
        type            processor;
        value           nonuniform List<scalar> 
53
(
8.71365e-07
8.7323e-07
8.74008e-07
8.74512e-07
8.74381e-07
8.74279e-07
8.74095e-07
8.73934e-07
8.73738e-07
8.73635e-07
8.73522e-07
8.73475e-07
8.7341e-07
8.73393e-07
8.73356e-07
8.73354e-07
8.73333e-07
8.73337e-07
8.60386e-07
8.60386e-07
8.60391e-07
8.60383e-07
8.60386e-07
8.60382e-07
8.60384e-07
8.60382e-07
8.60382e-07
8.60384e-07
8.60382e-07
8.47695e-07
8.47695e-07
8.47692e-07
8.477e-07
8.47696e-07
8.47708e-07
8.47705e-07
8.47726e-07
8.47729e-07
8.47766e-07
8.47784e-07
8.47848e-07
8.47897e-07
8.35527e-07
8.35527e-07
8.3564e-07
8.35836e-07
8.36016e-07
8.36245e-07
8.36411e-07
8.36629e-07
8.36302e-07
8.35849e-07
8.34341e-07
)
;
    }
    procBoundary2to3
    {
        type            processor;
        value           nonuniform List<scalar> 
51
(
1.77642e-07
1.7756e-07
1.77524e-07
1.77473e-07
1.77461e-07
1.7743e-07
1.77427e-07
1.77408e-07
1.7741e-07
1.77399e-07
1.77401e-07
1.77395e-07
1.77396e-07
1.77394e-07
1.77394e-07
1.77396e-07
1.77395e-07
1.77401e-07
1.77399e-07
1.77409e-07
1.77408e-07
1.77427e-07
1.77429e-07
1.7746e-07
1.77473e-07
1.77524e-07
1.7756e-07
1.7764e-07
1.77736e-07
1.77873e-07
1.78086e-07
1.78332e-07
1.78775e-07
1.79243e-07
1.80047e-07
1.8103e-07
1.82216e-07
1.84075e-07
1.85128e-07
1.72652e-07
1.71708e-07
1.70039e-07
1.68979e-07
1.68106e-07
1.67393e-07
1.66976e-07
1.66586e-07
1.6637e-07
1.6618e-07
1.77642e-07
1.66057e-07
)
;
    }
}


// ************************************************************************* //
