/*--------------------------------*- C++ -*----------------------------------*\
| =========                 |                                                 |
| \\      /  F ield         | OpenFOAM: The Open Source CFD Toolbox           |
|  \\    /   O peration     | Version:  dev                                   |
|   \\  /    A nd           | Web:      www.OpenFOAM.org                      |
|    \\/     M anipulation  |                                                 |
\*---------------------------------------------------------------------------*/
FoamFile
{
    version     2.0;
    format      ascii;
    class       volScalarField;
    location    "0.065";
    object      c-C6H4;
}
// * * * * * * * * * * * * * * * * * * * * * * * * * * * * * * * * * * * * * //

dimensions      [0 0 0 0 0 0 0];

internalField   nonuniform List<scalar> 
25
(
7.99114e-11
9.45191e-11
1.085e-10
1.21566e-10
1.3304e-10
1.42314e-10
1.48875e-10
1.52379e-10
1.52617e-10
1.49622e-10
1.43613e-10
1.34976e-10
1.24225e-10
1.11952e-10
9.87796e-11
8.5317e-11
7.21143e-11
5.96329e-11
4.82246e-11
3.81234e-11
2.9449e-11
2.22185e-11
1.63666e-11
1.17721e-11
8.29432e-12
)
;

boundaryField
{
    wall
    {
        type            zeroGradient;
    }
    fuel
    {
        type            fixedValue;
        value           nonuniform 0();
    }
    outlet
    {
        type            inletOutlet;
        inletValue      nonuniform 0();
        value           nonuniform 0();
    }
    procBoundary2to1
    {
        type            processor;
        value           uniform 6.63022e-11;
    }
    procBoundary2to3
    {
        type            processor;
        value           uniform 5.69278e-12;
    }
}


// ************************************************************************* //
