/*--------------------------------*- C++ -*----------------------------------*\
| =========                 |                                                 |
| \\      /  F ield         | OpenFOAM: The Open Source CFD Toolbox           |
|  \\    /   O peration     | Version:  dev                                   |
|   \\  /    A nd           | Web:      www.OpenFOAM.org                      |
|    \\/     M anipulation  |                                                 |
\*---------------------------------------------------------------------------*/
FoamFile
{
    version     2.0;
    format      ascii;
    class       volScalarField;
    location    "0.065";
    object      C6H;
}
// * * * * * * * * * * * * * * * * * * * * * * * * * * * * * * * * * * * * * //

dimensions      [0 0 0 0 0 0 0];

internalField   nonuniform List<scalar> 
250
(
3.27232e-12
1.06699e-08
1.50829e-08
1.52463e-08
1.52883e-08
1.52576e-08
1.52681e-08
1.5259e-08
1.52776e-08
4.3191e-12
8.78227e-09
1.11451e-08
1.11998e-08
1.11985e-08
1.11848e-08
1.1187e-08
1.11863e-08
1.11859e-08
3.00288e-12
4.93385e-09
6.35397e-09
6.37572e-09
6.36202e-09
6.35124e-09
6.3519e-09
6.35214e-09
6.34881e-09
1.86043e-12
2.74789e-09
3.68434e-09
3.69714e-09
3.68135e-09
3.67214e-09
3.67304e-09
3.67235e-09
3.66987e-09
1.21498e-12
1.67994e-09
2.32752e-09
2.33553e-09
2.3233e-09
2.31616e-09
2.31733e-09
2.31585e-09
2.31476e-09
8.45114e-13
1.08419e-09
1.61984e-09
1.60891e-09
1.59832e-09
1.58593e-09
1.58941e-09
1.58547e-09
1.58619e-09
6.9731e-13
8.20669e-10
1.22796e-09
1.20806e-09
1.20658e-09
1.19486e-09
1.19882e-09
1.1944e-09
1.19631e-09
6.92126e-13
6.78214e-10
9.94558e-10
9.65106e-10
9.49911e-10
9.34967e-10
9.40628e-10
9.34866e-10
9.38253e-10
1.02687e-12
5.93992e-10
8.34927e-10
8.00154e-10
7.9563e-10
7.79113e-10
7.85963e-10
7.79321e-10
7.836e-10
2.92737e-12
5.35649e-10
7.15156e-10
6.87369e-10
6.86943e-10
6.68811e-10
6.76701e-10
6.69266e-10
6.74117e-10
9.80108e-12
4.94328e-10
6.33859e-10
5.95405e-10
5.96088e-10
5.75506e-10
5.84402e-10
5.76153e-10
5.81423e-10
5.77826e-10
2.87922e-11
4.65691e-10
5.66309e-10
5.17691e-10
5.21423e-10
4.9996e-10
5.09247e-10
5.0076e-10
5.05929e-10
5.02397e-10
6.76397e-11
4.38452e-10
5.04366e-10
4.53669e-10
4.59468e-10
4.37674e-10
4.47056e-10
4.38547e-10
4.43494e-10
4.40099e-10
1.29454e-10
4.07422e-10
4.50863e-10
3.99554e-10
4.06686e-10
3.85049e-10
3.94301e-10
3.8594e-10
3.90622e-10
3.87411e-10
2.07011e-10
3.77866e-10
4.03711e-10
3.53024e-10
3.60931e-10
3.39853e-10
3.48811e-10
3.40724e-10
3.45133e-10
3.42128e-10
2.84118e-10
3.43027e-10
3.61644e-10
3.12557e-10
3.20811e-10
3.00607e-10
3.0915e-10
3.01431e-10
3.05565e-10
3.02775e-10
3.43669e-10
3.08752e-10
3.23851e-10
2.77079e-10
2.8535e-10
2.66254e-10
2.74299e-10
2.67015e-10
2.70872e-10
2.68299e-10
3.75224e-10
2.76207e-10
2.89744e-10
2.45777e-10
2.53814e-10
2.35995e-10
2.43484e-10
2.36682e-10
2.40259e-10
2.379e-10
3.77569e-10
2.498e-10
2.58842e-10
2.18001e-10
2.25616e-10
2.09192e-10
2.16086e-10
2.09798e-10
2.13091e-10
2.10941e-10
3.56467e-10
2.2459e-10
2.30703e-10
1.93202e-10
2.0026e-10
1.85313e-10
1.91583e-10
1.85834e-10
1.88837e-10
1.86895e-10
3.20764e-10
2.00948e-10
2.04909e-10
1.70896e-10
1.77307e-10
1.63897e-10
1.6952e-10
1.64335e-10
1.67038e-10
1.65303e-10
2.78867e-10
1.7911e-10
1.83939e-10
1.50613e-10
1.5633e-10
1.44514e-10
1.49461e-10
1.44873e-10
1.47259e-10
1.45738e-10
2.3691e-10
1.59071e-10
1.63204e-10
1.34251e-10
1.39318e-10
1.28741e-10
1.33221e-10
1.29034e-10
1.31228e-10
1.29833e-10
1.98459e-10
1.38763e-10
1.43508e-10
1.18383e-10
1.23773e-10
1.13389e-10
1.17726e-10
1.13653e-10
1.15771e-10
1.14408e-10
1.65084e-10
1.20658e-10
1.27282e-10
1.04634e-10
1.09589e-10
1.00197e-10
1.04156e-10
1.00417e-10
1.02373e-10
1.0111e-10
1.36922e-10
1.04559e-10
1.11423e-10
9.19653e-11
9.65649e-11
8.80614e-11
9.16872e-11
8.82496e-11
9.00602e-11
8.88873e-11
)
;

boundaryField
{
    fuel
    {
        type            fixedValue;
        value           uniform 0;
    }
    wall
    {
        type            zeroGradient;
    }
    outlet
    {
        type            zeroGradient;
    }
    frontAndBack
    {
        type            empty;
    }
    procBoundary2to0
    {
        type            processor;
        value           nonuniform List<scalar> 
12
(
1.01275e-10
1.13552e-10
8.99119e-11
9.75893e-11
8.02628e-11
8.45408e-11
7.68429e-11
8.01709e-11
7.70061e-11
7.86871e-11
8.90303e-11
7.75924e-11
)
;
    }
    procBoundary2to3
    {
        type            processor;
        value           nonuniform List<scalar> 
25
(
1.52813e-08
1.11873e-08
6.34966e-09
3.66977e-09
2.31405e-09
1.5844e-09
1.19423e-09
9.35524e-10
7.80443e-10
6.70641e-10
6.70641e-10
5.78944e-10
5.03537e-10
4.41241e-10
3.88505e-10
3.43133e-10
3.03667e-10
2.6907e-10
2.38554e-10
2.11488e-10
1.87343e-10
1.65663e-10
1.46012e-10
1.30068e-10
1.14603e-10
)
;
    }
}


// ************************************************************************* //
