/*--------------------------------*- C++ -*----------------------------------*\
| =========                 |                                                 |
| \\      /  F ield         | OpenFOAM: The Open Source CFD Toolbox           |
|  \\    /   O peration     | Version:  dev                                   |
|   \\  /    A nd           | Web:      www.OpenFOAM.org                      |
|    \\/     M anipulation  |                                                 |
\*---------------------------------------------------------------------------*/
FoamFile
{
    version     2.0;
    format      ascii;
    class       volScalarField;
    location    "0.065";
    object      H2;
}
// * * * * * * * * * * * * * * * * * * * * * * * * * * * * * * * * * * * * * //

dimensions      [0 0 0 0 0 0 0];

internalField   nonuniform List<scalar> 
1997
(
0.00899457
0.00899316
0.00899251
0.00899204
0.00899204
0.00899204
0.00899212
0.00899219
0.0089923
0.00899236
0.00899242
0.00899245
0.00899249
0.00899249
0.00899251
0.00899251
0.00899253
0.00899252
0.00900231
0.00900097
0.00900037
0.00899993
0.00899994
0.00899994
0.00900002
0.0090001
0.00900021
0.00900026
0.00900032
0.00900035
0.00900038
0.00900039
0.00900041
0.00900041
0.00900042
0.00900042
0.00900042
0.00900042
0.00900042
0.00900042
0.00900042
0.00900042
0.00900042
0.00900042
0.00900042
0.00900042
0.00900983
0.00900855
0.00900801
0.00900759
0.00900761
0.00900761
0.0090077
0.00900777
0.00900788
0.00900793
0.00900799
0.00900801
0.00900805
0.00900806
0.00900808
0.00900808
0.00900809
0.00900808
0.00900809
0.00900809
0.00900809
0.00900809
0.00900809
0.00900809
0.00900809
0.00900809
0.00900809
0.00900809
0.00900808
0.00900809
0.00900808
0.00900808
0.00900808
0.00900808
0.00900807
0.00900807
0.00900805
0.00900804
0.00900801
0.00900798
0.00901713
0.00901591
0.00901542
0.00901503
0.00901505
0.00901506
0.00901515
0.00901522
0.00901532
0.00901537
0.00901543
0.00901546
0.00901549
0.0090155
0.00901552
0.00901551
0.00901553
0.00901552
0.00901553
0.00901552
0.00901553
0.00901552
0.00901553
0.00901553
0.00901553
0.00901553
0.00901553
0.00901553
0.00901552
0.00901552
0.00901552
0.00901552
0.00901551
0.00901552
0.00901551
0.00901551
0.00901549
0.00901548
0.00901545
0.00901542
0.00901536
0.00901531
0.00901521
0.00901513
0.00901504
0.00901503
0.00901501
0.00901541
0.0090159
0.00901711
0.00902421
0.00902306
0.00902261
0.00902224
0.00902226
0.00902228
0.00902237
0.00902244
0.00902254
0.00902259
0.00902265
0.00902267
0.0090227
0.00902271
0.00902273
0.00902273
0.00902274
0.00902273
0.00902274
0.00902273
0.00902274
0.00902274
0.00902274
0.00902274
0.00902274
0.00902274
0.00902274
0.00902274
0.00902273
0.00902273
0.00902273
0.00902273
0.00902273
0.00902273
0.00902272
0.00902272
0.0090227
0.00902269
0.00902266
0.00902264
0.00902258
0.00902253
0.00902243
0.00902235
0.00902226
0.00902225
0.00902223
0.0090226
0.00902304
0.00902419
0.00903117
0.00903007
0.00902967
0.00902932
0.00902937
0.00902939
0.00902949
0.00902957
0.00902967
0.00902972
0.00902978
0.0090298
0.00902983
0.00902984
0.00902986
0.00902986
0.00902987
0.00902986
0.00902987
0.00902986
0.00902987
0.00902987
0.00902987
0.00902987
0.00902987
0.00902987
0.00902987
0.00902987
0.00902986
0.00902986
0.00902986
0.00902986
0.00902986
0.00902986
0.00902985
0.00902985
0.00902983
0.00902982
0.00902979
0.00902977
0.00902971
0.00902965
0.00902955
0.00902948
0.00902938
0.00902935
0.00902931
0.00902965
0.00903005
0.00903116
0.00903783
0.00903678
0.00903642
0.0090361
0.00903615
0.00903618
0.00903628
0.00903635
0.00903645
0.0090365
0.00903656
0.00903658
0.00903661
0.00903662
0.00903664
0.00903663
0.00903665
0.00903664
0.00903665
0.00903664
0.00903665
0.00903664
0.00903665
0.00903665
0.00903665
0.00903665
0.00903664
0.00903665
0.00903664
0.00903664
0.00903664
0.00903664
0.00903663
0.00903664
0.00903663
0.00903663
0.00903661
0.0090366
0.00903657
0.00903655
0.00903649
0.00903644
0.00903634
0.00903626
0.00903616
0.00903614
0.00903609
0.00903641
0.00903677
0.00903781
0.00904427
0.00904329
0.00904296
0.00904266
0.00904272
0.00904275
0.00904285
0.00904292
0.00904302
0.00904307
0.00904312
0.00904315
0.00904318
0.00904319
0.00904321
0.00904321
0.00904322
0.00904321
0.00904322
0.00904321
0.00904322
0.00904322
0.00904322
0.00904322
0.00904322
0.00904322
0.00904322
0.00904322
0.00904321
0.00904321
0.00904321
0.00904321
0.00904321
0.00904321
0.0090432
0.0090432
0.00904318
0.00904317
0.00904314
0.00904311
0.00904305
0.009043
0.00904291
0.00904283
0.00904273
0.0090427
0.00904265
0.00904295
0.00904327
0.00904426
0.00905051
0.00904958
0.00904929
0.00904901
0.00904907
0.00904911
0.0090492
0.00904928
0.00904937
0.00904942
0.00904947
0.0090495
0.00904953
0.00904954
0.00904955
0.00904955
0.00904956
0.00904956
0.00904956
0.00904956
0.00904957
0.00904956
0.00904957
0.00904956
0.00904957
0.00904957
0.00904956
0.00904956
0.00904956
0.00904956
0.00904956
0.00904956
0.00904955
0.00904955
0.00904954
0.00904954
0.00904953
0.00904952
0.00904949
0.00904946
0.0090494
0.00904935
0.00904926
0.00904919
0.00904909
0.00904905
0.009049
0.00904928
0.00904956
0.00905049
0.00905663
0.00905574
0.00905549
0.00905523
0.0090553
0.00905534
0.00905544
0.00905552
0.00905561
0.00905566
0.00905571
0.00905574
0.00905577
0.00905577
0.00905579
0.00905579
0.0090558
0.0090558
0.0090558
0.0090558
0.0090558
0.0090558
0.00905581
0.0090558
0.00905581
0.0090558
0.0090558
0.0090558
0.0090558
0.0090558
0.0090558
0.0090558
0.00905579
0.00905579
0.00905578
0.00905578
0.00905576
0.00905576
0.00905573
0.0090557
0.00905565
0.00905559
0.0090555
0.00905543
0.00905532
0.00905528
0.00905521
0.00905547
0.00905572
0.00905662
0.00906265
0.00906182
0.00906159
0.00906135
0.00906142
0.00906147
0.00906157
0.00906164
0.00906173
0.00906178
0.00906183
0.00906185
0.00906188
0.00906189
0.00906191
0.00906191
0.00906192
0.00906191
0.00906192
0.00906192
0.00906192
0.00906192
0.00906192
0.00906192
0.00906192
0.00906192
0.00906192
0.00906192
0.00906191
0.00906192
0.00906191
0.00906191
0.00906191
0.00906191
0.0090619
0.0090619
0.00906188
0.00906187
0.00906184
0.00906182
0.00906177
0.00906171
0.00906163
0.00906155
0.00906145
0.00906141
0.00906134
0.00906158
0.0090618
0.00906264
0.0090683
0.00906752
0.00906732
0.0090671
0.00906717
0.00906721
0.00906731
0.00906739
0.00906747
0.00906752
0.00906757
0.00906759
0.00906762
0.00906763
0.00906765
0.00906764
0.00906765
0.00906765
0.00906766
0.00906765
0.00906766
0.00906765
0.00906766
0.00906766
0.00906766
0.00906766
0.00906766
0.00906766
0.00906765
0.00906765
0.00906765
0.00906765
0.00906764
0.00906765
0.00906764
0.00906764
0.00906762
0.00906761
0.00906758
0.00906756
0.00906751
0.00906745
0.00906737
0.0090673
0.0090672
0.00906715
0.00906708
0.0090673
0.0090675
0.00906829
0.00907375
0.00907302
0.00907284
0.00907264
0.00907271
0.00907276
0.00907286
0.00907293
0.00907301
0.00907306
0.00907311
0.00907313
0.00907316
0.00907316
0.00907318
0.00907318
0.00907319
0.00907318
0.00907319
0.00907319
0.00907319
0.00907319
0.00907319
0.00907319
0.00907319
0.00907319
0.00907319
0.00907319
0.00907318
0.00907319
0.00907318
0.00907318
0.00907318
0.00907318
0.00907317
0.00907317
0.00907315
0.00907315
0.00907312
0.0090731
0.00907304
0.00907299
0.00907291
0.00907284
0.00907274
0.00907269
0.00907262
0.00907283
0.009073
0.00907374
0.00907901
0.00907832
0.00907817
0.00907798
0.00907805
0.0090781
0.0090782
0.00907827
0.00907834
0.00907839
0.00907844
0.00907846
0.00907849
0.0090785
0.00907851
0.00907851
0.00907852
0.00907852
0.00907852
0.00907852
0.00907852
0.00907852
0.00907852
0.00907852
0.00907852
0.00907852
0.00907852
0.00907852
0.00907852
0.00907852
0.00907851
0.00907851
0.00907851
0.00907851
0.0090785
0.0090785
0.00907849
0.00907848
0.00907845
0.00907843
0.00907838
0.00907833
0.00907825
0.00907818
0.00907809
0.00907803
0.00907796
0.00907815
0.0090783
0.00907899
0.00908407
0.00908343
0.0090833
0.00908312
0.00908319
0.00908325
0.00908334
0.00908341
0.00908348
0.00908353
0.00908358
0.0090836
0.00908362
0.00908363
0.00908364
0.00908364
0.00908365
0.00908365
0.00908365
0.00908365
0.00908365
0.00908365
0.00908365
0.00908365
0.00908365
0.00908365
0.00908365
0.00908365
0.00908365
0.00908365
0.00908364
0.00908365
0.00908364
0.00908364
0.00908363
0.00908363
0.00908362
0.00908361
0.00908359
0.00908357
0.00908352
0.00908347
0.00908339
0.00908332
0.00908323
0.00908318
0.00908311
0.00908328
0.00908341
0.00908406
0.00908907
0.00908846
0.00908835
0.00908819
0.00908826
0.00908832
0.00908841
0.00908848
0.00908855
0.0090886
0.00908865
0.00908867
0.00908869
0.0090887
0.00908871
0.00908871
0.00908872
0.00908872
0.00908872
0.00908872
0.00908872
0.00908872
0.00908872
0.00908872
0.00908872
0.00908872
0.00908872
0.00908872
0.00908872
0.00908872
0.00908871
0.00908872
0.00908871
0.00908871
0.0090887
0.0090887
0.00908869
0.00908868
0.00908866
0.00908864
0.00908859
0.00908854
0.00908847
0.0090884
0.00908831
0.00908825
0.00908818
0.00908834
0.00908844
0.00908905
0.0090939
0.00909334
0.00909324
0.0090931
0.00909316
0.00909322
0.00909331
0.00909338
0.00909344
0.00909349
0.00909354
0.00909356
0.00909358
0.00909358
0.0090936
0.0090936
0.00909361
0.0090936
0.00909361
0.0090936
0.00909361
0.00909361
0.00909361
0.00909361
0.00909361
0.00909361
0.00909361
0.00909361
0.0090936
0.00909361
0.0090936
0.0090936
0.0090936
0.0090936
0.00909359
0.00909359
0.00909357
0.00909357
0.00909355
0.00909352
0.00909347
0.00909343
0.00909336
0.00909329
0.00909321
0.00909315
0.00909308
0.00909323
0.00909332
0.00909389
0.00909855
0.00909803
0.00909794
0.00909781
0.00909787
0.00909793
0.00909801
0.00909808
0.00909814
0.00909818
0.00909823
0.00909826
0.00909827
0.00909827
0.00909828
0.00909829
0.0090983
0.0090983
0.0090983
0.0090983
0.0090983
0.0090983
0.0090983
0.0090983
0.0090983
0.0090983
0.0090983
0.0090983
0.0090983
0.0090983
0.00909829
0.0090983
0.00909829
0.00909829
0.00909828
0.00909827
0.00909826
0.00909826
0.00909825
0.00909822
0.00909817
0.00909812
0.00909806
0.009098
0.00909792
0.00909786
0.00909779
0.00909792
0.00909801
0.00909853
0.00910289
0.00910239
0.00910232
0.0091022
0.00910226
0.00910232
0.00910239
0.00910246
0.00910252
0.00910255
0.00910262
0.00910264
0.00910263
0.00910263
0.00910264
0.00910265
0.00910268
0.00910268
0.00910268
0.00910268
0.00910268
0.00910268
0.00910268
0.00910268
0.00910268
0.00910268
0.00910267
0.00910267
0.00910268
0.00910268
0.00910267
0.00910268
0.00910267
0.00910267
0.00910264
0.00910263
0.00910262
0.00910262
0.00910263
0.00910261
0.00910254
0.0091025
0.00910244
0.00910238
0.0091023
0.00910224
0.00910218
0.0091023
0.00910238
0.00910287
0.00910713
0.00910666
0.0091066
0.00910649
0.00910655
0.00910661
0.00910669
0.00910675
0.0091068
0.00910684
0.00910684
0.00910684
0.0091069
0.0091069
0.00910691
0.0091069
0.00910688
0.00910687
0.00910688
0.00910687
0.00910688
0.00910687
0.00910688
0.00910688
0.00910688
0.00910688
0.00910688
0.00910688
0.00910687
0.00910687
0.00910687
0.00910687
0.00910687
0.00910687
0.00910689
0.0091069
0.00910689
0.00910689
0.00910683
0.00910683
0.00910682
0.00910679
0.00910673
0.00910667
0.00910659
0.00910653
0.00910647
0.00910658
0.00910664
0.00910711
0.0091111
0.00911066
0.00911061
0.0091105
0.00911056
0.00911062
0.00911069
0.00911074
0.0091108
0.00911083
0.00911084
0.00911085
0.00911088
0.00911088
0.00911089
0.00911088
0.00911088
0.00911088
0.00911088
0.00911088
0.00911088
0.00911088
0.00911088
0.00911088
0.00911088
0.00911088
0.00911088
0.00911088
0.00911087
0.00911087
0.00911087
0.00911087
0.00911087
0.00911087
0.00911087
0.00911088
0.00911087
0.00911087
0.00911084
0.00911083
0.00911081
0.00911078
0.00911073
0.00911067
0.0091106
0.00911054
0.00911048
0.00911059
0.00911064
0.00911108
0.00911488
0.00911447
0.00911442
0.00911432
0.00911438
0.00911443
0.0091145
0.00911455
0.0091146
0.00911462
0.00911464
0.00911465
0.00911467
0.00911467
0.00911468
0.00911467
0.00911467
0.00911467
0.00911467
0.00911467
0.00911467
0.00911467
0.00911467
0.00911467
0.00911468
0.00911467
0.00911467
0.00911467
0.00911467
0.00911467
0.00911467
0.00911467
0.00911466
0.00911467
0.00911466
0.00911467
0.00911466
0.00911466
0.00911464
0.00911463
0.00911461
0.00911458
0.00911453
0.00911448
0.00911441
0.00911436
0.0091143
0.0091144
0.00911445
0.00911486
0.00911855
0.00911816
0.00911812
0.00911802
0.00911808
0.00911813
0.00911819
0.00911824
0.00911829
0.00911831
0.00911833
0.00911833
0.00911835
0.00911835
0.00911836
0.00911835
0.00911836
0.00911835
0.00911836
0.00911835
0.00911836
0.00911835
0.00911836
0.00911836
0.00911836
0.00911836
0.00911835
0.00911835
0.00911835
0.00911835
0.00911835
0.00911835
0.00911835
0.00911835
0.00911834
0.00911835
0.00911834
0.00911834
0.00911832
0.00911832
0.0091183
0.00911827
0.00911823
0.00911817
0.00911811
0.00911806
0.009118
0.0091181
0.00911814
0.00911853
0.00912196
0.00912159
0.00912155
0.00912146
0.00912151
0.00912156
0.00912161
0.00912166
0.0091217
0.00912172
0.00912174
0.00912174
0.00912176
0.00912176
0.00912176
0.00912176
0.00912176
0.00912176
0.00912176
0.00912176
0.00912176
0.00912176
0.00912176
0.00912176
0.00912176
0.00912176
0.00912176
0.00912176
0.00912176
0.00912176
0.00912175
0.00912176
0.00912175
0.00912176
0.00912175
0.00912175
0.00912175
0.00912175
0.00912173
0.00912173
0.00912171
0.00912169
0.00912165
0.0091216
0.00912154
0.00912149
0.00912144
0.00912153
0.00912157
0.00912194
0.00912517
0.00912483
0.00912479
0.0091247
0.00912474
0.00912479
0.00912484
0.00912488
0.00912492
0.00912494
0.00912496
0.00912496
0.00912497
0.00912497
0.00912498
0.00912498
0.00912498
0.00912498
0.00912498
0.00912498
0.00912498
0.00912498
0.00912498
0.00912498
0.00912498
0.00912498
0.00912498
0.00912498
0.00912497
0.00912497
0.00912497
0.00912497
0.00912497
0.00912497
0.00912497
0.00912497
0.00912496
0.00912496
0.00912495
0.00912494
0.00912492
0.0091249
0.00912487
0.00912482
0.00912477
0.00912472
0.00912468
0.00912477
0.00912481
0.00912516
0.00912825
0.00912793
0.00912789
0.00912781
0.00912785
0.00912789
0.00912794
0.00912798
0.00912801
0.00912803
0.00912804
0.00912805
0.00912806
0.00912806
0.00912806
0.00912806
0.00912806
0.00912806
0.00912806
0.00912806
0.00912806
0.00912806
0.00912806
0.00912806
0.00912806
0.00912806
0.00912806
0.00912806
0.00912806
0.00912806
0.00912805
0.00912806
0.00912805
0.00912806
0.00912805
0.00912805
0.00912805
0.00912805
0.00912804
0.00912803
0.00912801
0.00912799
0.00912796
0.00912792
0.00912787
0.00912783
0.00912779
0.00912787
0.00912791
0.00912823
0.00913108
0.00913078
0.00913074
0.00913066
0.00913069
0.00913072
0.00913076
0.0091308
0.00913083
0.00913084
0.00913085
0.00913086
0.00913087
0.00913087
0.00913087
0.00913087
0.00913087
0.00913087
0.00913087
0.00913087
0.00913087
0.00913087
0.00913087
0.00913087
0.00913087
0.00913087
0.00913087
0.00913087
0.00913086
0.00913086
0.00913086
0.00913086
0.00913086
0.00913086
0.00913086
0.00913086
0.00913086
0.00913086
0.00913085
0.00913084
0.00913083
0.00913081
0.00913078
0.00913074
0.0091307
0.00913067
0.00913064
0.00913072
0.00913076
0.00913106
0.00913372
0.00913345
0.00913341
0.00913334
0.00913337
0.0091334
0.00913343
0.00913347
0.00913349
0.00913351
0.00913352
0.00913352
0.00913353
0.00913353
0.00913353
0.00913353
0.00913353
0.00913353
0.00913353
0.00913353
0.00913353
0.00913353
0.00913353
0.00913353
0.00913353
0.00913353
0.00913353
0.00913353
0.00913352
0.00913352
0.00913352
0.00913352
0.00913352
0.00913352
0.00913352
0.00913352
0.00913352
0.00913352
0.00913351
0.0091335
0.00913349
0.00913348
0.00913345
0.00913342
0.00913338
0.00913335
0.00913332
0.00913339
0.00913343
0.0091337
0.00913615
0.0091359
0.00913585
0.00913577
0.00913579
0.00913582
0.00913585
0.00913588
0.0091359
0.00913591
0.00913592
0.00913592
0.00913592
0.00913592
0.00913593
0.00913592
0.00913592
0.00913592
0.00913592
0.00913592
0.00913592
0.00913592
0.00913592
0.00913592
0.00913592
0.00913592
0.00913592
0.00913592
0.00913592
0.00913592
0.00913591
0.00913592
0.00913591
0.00913592
0.00913591
0.00913592
0.00913591
0.00913591
0.00913591
0.0091359
0.00913589
0.00913588
0.00913586
0.00913583
0.0091358
0.00913577
0.00913575
0.00913583
0.00913588
0.00913613
0.00913838
0.00913813
0.00913808
0.009138
0.00913801
0.00913804
0.00913806
0.00913809
0.0091381
0.00913811
0.00913812
0.00913812
0.00913812
0.00913812
0.00913813
0.00913812
0.00913812
0.00913812
0.00913812
0.00913812
0.00913812
0.00913812
0.00913812
0.00913812
0.00913812
0.00913812
0.00913812
0.00913812
0.00913812
0.00913812
0.00913811
0.00913812
0.00913811
0.00913812
0.00913811
0.00913812
0.00913811
0.00913811
0.00913811
0.00913811
0.0091381
0.00913809
0.00913807
0.00913804
0.00913802
0.00913799
0.00913798
0.00913805
0.00913811
0.00913836
0.00914043
0.00914016
0.00914009
0.00914
0.00914001
0.00914003
0.00914004
0.00914006
0.00914008
0.00914008
0.00914009
0.00914009
0.00914009
0.00914009
0.00914009
0.00914009
0.00914009
0.00914008
0.00914008
0.00914008
0.00914008
0.00914008
0.00914008
0.00914008
0.00914008
0.00914008
0.00914008
0.00914008
0.00914008
0.00914008
0.00914008
0.00914008
0.00914008
0.00914008
0.00914008
0.00914008
0.00914008
0.00914008
0.00914008
0.00914007
0.00914007
0.00914006
0.00914005
0.00914002
0.00914001
0.00913999
0.00913998
0.00914007
0.00914014
0.00914041
0.00914223
0.00914197
0.0091419
0.00914181
0.00914182
0.00914183
0.00914184
0.00914185
0.00914186
0.00914187
0.00914187
0.00914187
0.00914187
0.00914186
0.00914187
0.00914186
0.00914186
0.00914186
0.00914186
0.00914186
0.00914186
0.00914186
0.00914186
0.00914186
0.00914186
0.00914186
0.00914186
0.00914186
0.00914186
0.00914186
0.00914185
0.00914185
0.00914185
0.00914186
0.00914185
0.00914186
0.00914186
0.00914186
0.00914185
0.00914185
0.00914185
0.00914184
0.00914183
0.00914182
0.00914181
0.0091418
0.00914179
0.00914188
0.00914195
0.00914221
0.00914386
0.0091436
0.00914351
0.00914342
0.00914337
0.00914337
0.00914338
0.00914339
0.00914339
0.00914339
0.00914339
0.00914339
0.00914339
0.00914338
0.00914339
0.00914338
0.00914338
0.00914338
0.00914338
0.00914338
0.00914338
0.00914338
0.00914338
0.00914338
0.00914338
0.00914338
0.00914338
0.00914338
0.00914337
0.00914337
0.00914337
0.00914337
0.00914337
0.00914337
0.00914337
0.00914338
0.00914338
0.00914338
0.00914338
0.00914338
0.00914338
0.00914337
0.00914337
0.00914336
0.00914335
0.00914335
0.0091434
0.00914349
0.00914358
0.00914383
0.00914522
0.00914496
0.00914486
0.00914476
0.00914471
0.0091447
0.00914469
0.0091447
0.0091447
0.0091447
0.0091447
0.00914469
0.00914469
0.00914468
0.00914468
0.00914468
0.00914468
0.00914468
0.00914468
0.00914468
0.00914468
0.00914468
0.00914468
0.00914468
0.00914468
0.00914468
0.00914468
0.00914467
0.00914467
0.00914467
0.00914467
0.00914467
0.00914467
0.00914467
0.00914467
0.00914468
0.00914468
0.00914468
0.00914468
0.00914468
0.00914468
0.00914468
0.00914468
0.00914467
0.00914468
0.00914468
0.00914474
0.00914484
0.00914494
0.0091452
0.00914636
0.00914612
0.00914598
0.00914587
0.0091458
0.00914578
0.00914577
0.00914577
0.00914577
0.00914577
0.00914576
0.00914575
0.00914575
0.00914574
0.00914574
0.00914574
0.00914574
0.00914574
0.00914573
0.00914573
0.00914573
0.00914573
0.00914573
0.00914573
0.00914574
0.00914574
0.00914573
0.00914573
0.00914573
0.00914573
0.00914573
0.00914573
0.00914573
0.00914573
0.00914573
0.00914573
0.00914573
0.00914574
0.00914574
0.00914575
0.00914575
0.00914575
0.00914575
0.00914575
0.00914576
0.00914578
0.00914584
0.00914596
0.0091461
0.00914633
0.00914726
0.00914703
0.00914686
0.00914674
0.00914667
0.00914664
0.00914662
0.00914661
0.0091466
0.0091466
0.00914659
0.00914658
0.00914658
0.00914657
0.00914657
0.00914657
0.00914657
0.00914656
0.00914656
0.00914656
0.00914656
0.00914656
0.00914656
0.00914656
0.00914656
0.00914656
0.00914656
0.00914656
0.00914656
0.00914656
0.00914656
0.00914656
0.00914656
0.00914656
0.00914656
0.00914656
0.00914657
0.00914657
0.00914657
0.00914657
0.00914658
0.00914658
0.00914659
0.0091466
0.00914661
0.00914664
0.00914672
0.00914684
0.009147
0.00914724
0.00914794
0.0091477
0.00914751
0.00914738
0.00914729
0.00914725
0.00914723
0.00914721
0.0091472
0.00914719
0.00914718
0.00914717
0.00914716
0.00914716
0.00914716
0.00914715
0.00914715
0.00914715
0.00914715
0.00914715
0.00914715
0.00914715
0.00914715
0.00914715
0.00914715
0.00914715
0.00914715
0.00914715
0.00914714
0.00914714
0.00914714
0.00914714
0.00914714
0.00914714
0.00914715
0.00914715
0.00914715
0.00914715
0.00914716
0.00914716
0.00914717
0.00914718
0.00914719
0.0091472
0.00914723
0.00914727
0.00914735
0.00914749
0.00914767
0.00914791
0.00914837
0.00914813
0.00914792
0.00914777
0.00914768
0.00914762
0.00914759
0.00914757
0.00914755
0.00914754
0.00914753
0.00914751
0.00914751
0.0091475
0.0091475
0.0091475
0.00914749
0.00914749
0.00914749
0.00914749
0.00914749
0.00914749
0.00914749
0.00914749
0.00914749
0.00914749
0.00914749
0.00914749
0.00914749
0.00914749
0.00914749
0.00914749
0.00914749
0.00914749
0.00914749
0.00914749
0.0091475
0.0091475
0.0091475
0.00914751
0.00914752
0.00914753
0.00914755
0.00914757
0.0091476
0.00914765
0.00914775
0.0091479
0.0091481
0.00914835
0.00914857
0.00914832
0.00914809
0.00914793
0.00914782
0.00914775
0.00914772
0.00914769
0.00914767
0.00914765
0.00914764
0.00914762
0.00914761
0.00914761
0.0091476
0.0091476
0.00914759
0.00914759
0.00914759
0.00914759
0.00914759
0.00914759
0.00914759
0.00914759
0.00914759
0.00914759
0.00914759
0.00914759
0.00914759
0.00914759
0.00914759
0.00914759
0.00914759
0.00914759
0.00914759
0.00914759
0.0091476
0.0091476
0.00914761
0.00914762
0.00914763
0.00914765
0.00914766
0.00914769
0.00914773
0.0091478
0.0091479
0.00914807
0.00914829
0.00914855
0.00914853
0.00914826
0.00914801
0.00914784
0.00914772
0.00914764
0.0091476
0.00914756
0.00914754
0.00914752
0.0091475
0.00914748
0.00914747
0.00914747
0.00914746
0.00914746
0.00914745
0.00914745
0.00914745
0.00914745
0.00914745
0.00914745
0.00914745
0.00914745
0.00914745
0.00914745
0.00914745
0.00914745
0.00914745
0.00914744
0.00914744
0.00914744
0.00914744
0.00914745
0.00914745
0.00914745
0.00914746
0.00914746
0.00914747
0.00914748
0.0091475
0.00914751
0.00914754
0.00914757
0.00914762
0.0091477
0.00914781
0.00914799
0.00914824
0.00914851
0.00914824
0.00914797
0.00914769
0.0091475
0.00914737
0.00914728
0.00914723
0.00914719
0.00914716
0.00914714
0.00914712
0.0091471
0.00914709
0.00914708
0.00914708
0.00914707
0.00914707
0.00914707
0.00914706
0.00914706
0.00914706
0.00914706
0.00914706
0.00914706
0.00914706
0.00914706
0.00914706
0.00914706
0.00914706
0.00914706
0.00914706
0.00914706
0.00914706
0.00914706
0.00914706
0.00914707
0.00914707
0.00914708
0.00914709
0.0091471
0.00914712
0.00914714
0.00914717
0.00914721
0.00914726
0.00914735
0.00914748
0.00914767
0.00914795
0.00914822
0.00914772
0.00914743
0.00914713
0.00914693
0.00914678
0.00914669
0.00914663
0.00914658
0.00914655
0.00914652
0.0091465
)
;

boundaryField
{
    fuel
    {
        type            fixedValue;
        value           nonuniform 0();
    }
    wall
    {
        type            zeroGradient;
    }
    outlet
    {
        type            zeroGradient;
    }
    frontAndBack
    {
        type            empty;
    }
    procBoundary2to0
    {
        type            processor;
        value           nonuniform List<scalar> 
53
(
0.0089866
0.00898512
0.00898441
0.00898392
0.00898391
0.00898391
0.00898398
0.00898406
0.00898417
0.00898422
0.00898429
0.00898432
0.00898436
0.00898436
0.00898439
0.00898438
0.0089844
0.00898439
0.00899253
0.00899253
0.00899252
0.00899253
0.00899253
0.00899253
0.00899253
0.00899253
0.00899253
0.00899253
0.00899253
0.00900042
0.00900042
0.00900042
0.00900042
0.00900042
0.00900041
0.00900042
0.0090004
0.00900041
0.00900038
0.00900038
0.00900034
0.00900032
0.00900792
0.00900792
0.00900787
0.00900776
0.00900769
0.0090076
0.00900759
0.00900758
0.009008
0.00900854
0.00900982
)
;
    }
    procBoundary2to3
    {
        type            processor;
        value           nonuniform List<scalar> 
51
(
0.00914649
0.00914648
0.00914647
0.00914647
0.00914646
0.00914646
0.00914646
0.00914645
0.00914645
0.00914645
0.00914645
0.00914645
0.00914646
0.00914646
0.00914646
0.00914645
0.00914645
0.00914645
0.00914645
0.00914645
0.00914645
0.00914645
0.00914645
0.00914646
0.00914646
0.00914647
0.00914647
0.00914648
0.0091465
0.00914652
0.00914654
0.00914657
0.00914662
0.00914668
0.00914678
0.00914692
0.00914713
0.00914743
0.00914771
0.00914697
0.00914668
0.00914635
0.00914613
0.00914597
0.00914586
0.0091458
0.00914574
0.00914571
0.00914568
0.00914649
0.00914566
)
;
    }
}


// ************************************************************************* //
