/*--------------------------------*- C++ -*----------------------------------*\
| =========                 |                                                 |
| \\      /  F ield         | OpenFOAM: The Open Source CFD Toolbox           |
|  \\    /   O peration     | Version:  dev                                   |
|   \\  /    A nd           | Web:      www.OpenFOAM.org                      |
|    \\/     M anipulation  |                                                 |
\*---------------------------------------------------------------------------*/
FoamFile
{
    version     2.0;
    format      ascii;
    class       volScalarField;
    location    "0.065";
    object      HCCOH;
}
// * * * * * * * * * * * * * * * * * * * * * * * * * * * * * * * * * * * * * //

dimensions      [0 0 0 0 0 0 0];

internalField   nonuniform List<scalar> 
250
(
4.15979e-07
2.11209e-05
2.14735e-05
2.14905e-05
2.14904e-05
2.14898e-05
2.14906e-05
2.14866e-05
2.14886e-05
8.15723e-07
1.99829e-05
2.02628e-05
2.02457e-05
2.02379e-05
2.0237e-05
2.02377e-05
2.02346e-05
2.02367e-05
1.02876e-06
1.7777e-05
1.8231e-05
1.82026e-05
1.81885e-05
1.81873e-05
1.81882e-05
1.81852e-05
1.81875e-05
1.14689e-06
1.60042e-05
1.67509e-05
1.67246e-05
1.67059e-05
1.67045e-05
1.67056e-05
1.67024e-05
1.67049e-05
1.22317e-06
1.45828e-05
1.56568e-05
1.56424e-05
1.56211e-05
1.56194e-05
1.56209e-05
1.56172e-05
1.562e-05
1.27882e-06
1.33972e-05
1.47842e-05
1.475e-05
1.47025e-05
1.46984e-05
1.47e-05
1.46956e-05
1.46989e-05
1.3156e-06
1.23906e-05
1.40499e-05
1.40241e-05
1.3971e-05
1.39669e-05
1.39686e-05
1.39636e-05
1.39672e-05
1.31512e-06
1.1533e-05
1.33952e-05
1.33911e-05
1.33032e-05
1.32912e-05
1.32922e-05
1.32857e-05
1.32901e-05
1.24122e-06
1.08034e-05
1.27428e-05
1.27901e-05
1.27274e-05
1.27145e-05
1.27152e-05
1.27078e-05
1.27129e-05
1.06032e-06
1.01858e-05
1.22196e-05
1.21924e-05
1.21246e-05
1.21105e-05
1.21108e-05
1.21026e-05
1.21084e-05
8.05266e-07
9.66503e-06
1.16788e-05
1.17067e-05
1.16354e-05
1.16208e-05
1.16205e-05
1.16115e-05
1.16181e-05
1.16191e-05
5.94214e-07
9.22799e-06
1.1161e-05
1.12542e-05
1.11424e-05
1.11227e-05
1.11213e-05
1.11109e-05
1.11186e-05
1.11192e-05
5.15953e-07
8.86302e-06
1.07347e-05
1.07819e-05
1.06616e-05
1.06404e-05
1.0638e-05
1.06267e-05
1.06352e-05
1.06388e-05
5.64678e-07
8.55794e-06
1.02959e-05
1.03363e-05
1.02076e-05
1.01849e-05
1.01816e-05
1.01694e-05
1.01786e-05
1.01813e-05
7.1139e-07
8.3032e-06
9.92092e-06
9.91438e-06
9.77737e-06
9.75329e-06
9.74901e-06
9.73589e-06
9.74574e-06
9.74639e-06
9.38656e-07
8.05076e-06
9.53638e-06
9.51278e-06
9.36822e-06
9.34287e-06
9.3376e-06
9.3236e-06
9.33405e-06
9.33241e-06
1.23631e-06
7.82794e-06
9.15744e-06
9.12886e-06
8.97772e-06
8.95124e-06
8.94502e-06
8.93017e-06
8.94118e-06
8.93742e-06
1.5931e-06
7.65782e-06
8.79584e-06
8.76021e-06
8.6036e-06
8.57613e-06
8.56905e-06
8.55336e-06
8.5649e-06
8.55926e-06
1.99329e-06
7.49196e-06
8.44879e-06
8.40443e-06
8.24365e-06
8.21535e-06
8.20749e-06
8.19103e-06
8.20305e-06
8.19576e-06
2.41825e-06
7.33825e-06
8.11392e-06
8.05912e-06
7.89562e-06
7.86667e-06
7.85815e-06
7.84098e-06
7.85343e-06
7.84469e-06
2.84789e-06
7.1816e-06
7.78902e-06
7.72169e-06
7.55716e-06
7.52771e-06
7.51866e-06
7.50088e-06
7.51369e-06
7.50369e-06
3.26288e-06
7.01985e-06
7.47218e-06
7.38891e-06
7.22531e-06
7.1955e-06
7.18608e-06
7.16781e-06
7.18087e-06
7.16979e-06
3.64612e-06
6.84981e-06
7.16229e-06
7.09826e-06
6.93394e-06
6.90443e-06
6.89472e-06
6.87588e-06
6.88935e-06
6.87728e-06
3.9836e-06
6.67156e-06
6.85777e-06
6.80892e-06
6.62722e-06
6.59749e-06
6.58745e-06
6.56704e-06
6.5816e-06
6.56762e-06
4.26466e-06
6.48411e-06
6.55581e-06
6.49758e-06
6.34343e-06
6.31445e-06
6.30433e-06
6.2833e-06
6.29833e-06
6.28332e-06
4.4831e-06
6.28621e-06
6.27996e-06
6.21466e-06
6.06161e-06
6.03354e-06
6.02346e-06
6.00181e-06
6.01735e-06
6.0013e-06
)
;

boundaryField
{
    fuel
    {
        type            fixedValue;
        value           uniform 0;
    }
    wall
    {
        type            zeroGradient;
    }
    outlet
    {
        type            zeroGradient;
    }
    frontAndBack
    {
        type            empty;
    }
    procBoundary2to0
    {
        type            processor;
        value           nonuniform List<scalar> 
12
(
6.28348e-06
4.63202e-06
6.07607e-06
5.99864e-06
5.93059e-06
5.77962e-06
5.75264e-06
5.74268e-06
5.72045e-06
5.73651e-06
6.00197e-06
5.71942e-06
)
;
    }
    procBoundary2to3
    {
        type            processor;
        value           nonuniform List<scalar> 
25
(
2.14865e-05
2.02359e-05
1.81863e-05
1.67027e-05
1.56165e-05
1.46924e-05
1.39572e-05
1.3272e-05
1.26855e-05
1.21127e-05
1.21127e-05
1.16121e-05
1.11116e-05
1.06275e-05
1.01701e-05
9.73651e-06
9.32414e-06
8.93063e-06
8.55377e-06
8.1914e-06
7.84133e-06
7.50122e-06
7.16815e-06
6.87625e-06
6.56725e-06
)
;
    }
}


// ************************************************************************* //
