/*--------------------------------*- C++ -*----------------------------------*\
| =========                 |                                                 |
| \\      /  F ield         | OpenFOAM: The Open Source CFD Toolbox           |
|  \\    /   O peration     | Version:  dev                                   |
|   \\  /    A nd           | Web:      www.OpenFOAM.org                      |
|    \\/     M anipulation  |                                                 |
\*---------------------------------------------------------------------------*/
FoamFile
{
    version     2.0;
    format      ascii;
    class       volScalarField;
    location    "0.065";
    object      P2-H;
}
// * * * * * * * * * * * * * * * * * * * * * * * * * * * * * * * * * * * * * //

dimensions      [0 0 0 0 0 0 0];

internalField   nonuniform List<scalar> 
1997
(
1.60029e-16
1.60581e-16
1.61101e-16
1.61456e-16
1.61723e-16
1.61871e-16
1.61981e-16
1.62059e-16
1.6211e-16
1.62153e-16
1.62182e-16
1.62208e-16
1.62225e-16
1.62241e-16
1.62251e-16
1.62261e-16
1.62267e-16
1.62274e-16
1.59489e-16
1.60023e-16
1.60539e-16
1.60896e-16
1.61177e-16
1.61328e-16
1.61445e-16
1.61526e-16
1.61581e-16
1.61628e-16
1.61659e-16
1.61686e-16
1.61704e-16
1.61721e-16
1.61732e-16
1.61742e-16
1.61749e-16
1.61755e-16
1.61758e-16
1.61762e-16
1.61764e-16
1.61766e-16
1.61767e-16
1.61768e-16
1.61768e-16
1.61768e-16
1.61768e-16
1.61767e-16
1.59155e-16
1.59672e-16
1.60187e-16
1.60545e-16
1.60841e-16
1.60996e-16
1.61118e-16
1.61204e-16
1.61263e-16
1.61312e-16
1.61345e-16
1.61373e-16
1.61393e-16
1.6141e-16
1.61422e-16
1.61433e-16
1.6144e-16
1.61446e-16
1.6145e-16
1.61454e-16
1.61456e-16
1.61458e-16
1.61459e-16
1.6146e-16
1.6146e-16
1.6146e-16
1.6146e-16
1.61459e-16
1.61458e-16
1.61456e-16
1.61454e-16
1.6145e-16
1.61446e-16
1.61439e-16
1.61432e-16
1.61421e-16
1.6141e-16
1.61392e-16
1.61373e-16
1.61344e-16
1.59019e-16
1.59521e-16
1.60037e-16
1.60398e-16
1.60708e-16
1.60867e-16
1.60996e-16
1.61085e-16
1.61149e-16
1.612e-16
1.61235e-16
1.61264e-16
1.61286e-16
1.61303e-16
1.61316e-16
1.61327e-16
1.61334e-16
1.61341e-16
1.61345e-16
1.61349e-16
1.61351e-16
1.61353e-16
1.61354e-16
1.61355e-16
1.61356e-16
1.61356e-16
1.61355e-16
1.61354e-16
1.61353e-16
1.61351e-16
1.61349e-16
1.61345e-16
1.6134e-16
1.61334e-16
1.61326e-16
1.61315e-16
1.61302e-16
1.61285e-16
1.61264e-16
1.61234e-16
1.61198e-16
1.61147e-16
1.61084e-16
1.60994e-16
1.60866e-16
1.60707e-16
1.60397e-16
1.60035e-16
1.5952e-16
1.59018e-16
1.59077e-16
1.59566e-16
1.60083e-16
1.60448e-16
1.60771e-16
1.60934e-16
1.61069e-16
1.61162e-16
1.6123e-16
1.61283e-16
1.61321e-16
1.61351e-16
1.61374e-16
1.61392e-16
1.61406e-16
1.61417e-16
1.61425e-16
1.61431e-16
1.61436e-16
1.6144e-16
1.61442e-16
1.61444e-16
1.61445e-16
1.61446e-16
1.61447e-16
1.61447e-16
1.61446e-16
1.61445e-16
1.61444e-16
1.61442e-16
1.61439e-16
1.61435e-16
1.61431e-16
1.61424e-16
1.61416e-16
1.61405e-16
1.61391e-16
1.61373e-16
1.61351e-16
1.6132e-16
1.61282e-16
1.61229e-16
1.61161e-16
1.61068e-16
1.60933e-16
1.6077e-16
1.60446e-16
1.60081e-16
1.59564e-16
1.59076e-16
1.59324e-16
1.59799e-16
1.60321e-16
1.6069e-16
1.61026e-16
1.61194e-16
1.61335e-16
1.61433e-16
1.61504e-16
1.6156e-16
1.616e-16
1.61631e-16
1.61655e-16
1.61674e-16
1.61688e-16
1.61699e-16
1.61708e-16
1.61714e-16
1.61719e-16
1.61723e-16
1.61726e-16
1.61728e-16
1.61729e-16
1.6173e-16
1.61731e-16
1.61731e-16
1.6173e-16
1.61729e-16
1.61728e-16
1.61726e-16
1.61723e-16
1.61719e-16
1.61714e-16
1.61707e-16
1.61699e-16
1.61687e-16
1.61673e-16
1.61654e-16
1.6163e-16
1.61599e-16
1.61559e-16
1.61503e-16
1.61431e-16
1.61334e-16
1.61193e-16
1.61024e-16
1.60688e-16
1.60319e-16
1.59798e-16
1.59322e-16
1.59744e-16
1.6021e-16
1.60735e-16
1.61108e-16
1.61456e-16
1.6163e-16
1.61776e-16
1.61877e-16
1.61953e-16
1.6201e-16
1.62052e-16
1.62085e-16
1.6211e-16
1.62129e-16
1.62144e-16
1.62155e-16
1.62164e-16
1.62171e-16
1.62176e-16
1.6218e-16
1.62183e-16
1.62185e-16
1.62186e-16
1.62187e-16
1.62188e-16
1.62188e-16
1.62187e-16
1.62186e-16
1.62185e-16
1.62183e-16
1.6218e-16
1.62176e-16
1.6217e-16
1.62164e-16
1.62154e-16
1.62143e-16
1.62128e-16
1.62109e-16
1.62084e-16
1.62051e-16
1.62009e-16
1.61951e-16
1.61876e-16
1.61775e-16
1.61628e-16
1.61455e-16
1.61106e-16
1.60734e-16
1.60208e-16
1.59743e-16
1.60334e-16
1.6079e-16
1.61321e-16
1.61698e-16
1.62056e-16
1.62235e-16
1.62387e-16
1.62491e-16
1.6257e-16
1.6263e-16
1.62674e-16
1.62707e-16
1.62734e-16
1.62753e-16
1.62769e-16
1.62781e-16
1.6279e-16
1.62797e-16
1.62803e-16
1.62806e-16
1.6281e-16
1.62812e-16
1.62813e-16
1.62814e-16
1.62815e-16
1.62815e-16
1.62814e-16
1.62813e-16
1.62811e-16
1.62809e-16
1.62806e-16
1.62802e-16
1.62796e-16
1.6279e-16
1.6278e-16
1.62768e-16
1.62752e-16
1.62733e-16
1.62706e-16
1.62673e-16
1.62628e-16
1.62568e-16
1.62489e-16
1.62385e-16
1.62233e-16
1.62055e-16
1.61696e-16
1.61319e-16
1.60788e-16
1.60332e-16
1.61082e-16
1.6153e-16
1.62067e-16
1.62448e-16
1.62815e-16
1.62999e-16
1.63156e-16
1.63263e-16
1.63345e-16
1.63406e-16
1.63452e-16
1.63486e-16
1.63514e-16
1.63534e-16
1.6355e-16
1.63562e-16
1.63572e-16
1.63579e-16
1.63585e-16
1.63588e-16
1.63592e-16
1.63594e-16
1.63596e-16
1.63596e-16
1.63597e-16
1.63597e-16
1.63596e-16
1.63595e-16
1.63594e-16
1.63592e-16
1.63588e-16
1.63584e-16
1.63578e-16
1.63572e-16
1.63561e-16
1.63549e-16
1.63533e-16
1.63513e-16
1.63485e-16
1.63451e-16
1.63405e-16
1.63343e-16
1.63261e-16
1.63154e-16
1.62997e-16
1.62813e-16
1.62446e-16
1.62065e-16
1.61528e-16
1.6108e-16
1.6199e-16
1.62429e-16
1.62971e-16
1.63357e-16
1.63732e-16
1.63921e-16
1.64084e-16
1.64194e-16
1.64279e-16
1.64343e-16
1.6439e-16
1.64425e-16
1.64454e-16
1.64474e-16
1.64491e-16
1.64503e-16
1.64514e-16
1.6452e-16
1.64526e-16
1.6453e-16
1.64534e-16
1.64536e-16
1.64537e-16
1.64538e-16
1.64539e-16
1.64539e-16
1.64538e-16
1.64537e-16
1.64535e-16
1.64533e-16
1.6453e-16
1.64526e-16
1.64519e-16
1.64513e-16
1.64502e-16
1.6449e-16
1.64473e-16
1.64453e-16
1.64424e-16
1.64389e-16
1.64341e-16
1.64277e-16
1.64192e-16
1.64083e-16
1.63919e-16
1.6373e-16
1.63355e-16
1.62969e-16
1.62427e-16
1.61988e-16
1.63052e-16
1.63484e-16
1.64031e-16
1.64421e-16
1.64801e-16
1.64995e-16
1.65162e-16
1.65274e-16
1.65361e-16
1.65426e-16
1.65475e-16
1.6551e-16
1.6554e-16
1.6556e-16
1.65578e-16
1.6559e-16
1.65601e-16
1.65607e-16
1.65614e-16
1.65617e-16
1.65621e-16
1.65623e-16
1.65625e-16
1.65626e-16
1.65626e-16
1.65626e-16
1.65626e-16
1.65625e-16
1.65623e-16
1.65621e-16
1.65617e-16
1.65613e-16
1.65607e-16
1.656e-16
1.65589e-16
1.65577e-16
1.65559e-16
1.65539e-16
1.65509e-16
1.65474e-16
1.65425e-16
1.65359e-16
1.65272e-16
1.65161e-16
1.64993e-16
1.64799e-16
1.64419e-16
1.6403e-16
1.63482e-16
1.6305e-16
1.64201e-16
1.64629e-16
1.6518e-16
1.65572e-16
1.65955e-16
1.66153e-16
1.66325e-16
1.66437e-16
1.66526e-16
1.66592e-16
1.66642e-16
1.66678e-16
1.66708e-16
1.66729e-16
1.66747e-16
1.66759e-16
1.6677e-16
1.66776e-16
1.66783e-16
1.66787e-16
1.66791e-16
1.66792e-16
1.66794e-16
1.66795e-16
1.66796e-16
1.66796e-16
1.66795e-16
1.66794e-16
1.66792e-16
1.6679e-16
1.66786e-16
1.66782e-16
1.66776e-16
1.66769e-16
1.66758e-16
1.66746e-16
1.66728e-16
1.66707e-16
1.66677e-16
1.66641e-16
1.66591e-16
1.66525e-16
1.66436e-16
1.66323e-16
1.66151e-16
1.65953e-16
1.6557e-16
1.65178e-16
1.64627e-16
1.642e-16
1.65454e-16
1.65876e-16
1.66431e-16
1.66825e-16
1.67208e-16
1.6741e-16
1.67584e-16
1.67697e-16
1.67788e-16
1.67854e-16
1.67905e-16
1.67941e-16
1.67972e-16
1.67992e-16
1.6801e-16
1.68022e-16
1.68034e-16
1.6804e-16
1.68047e-16
1.68051e-16
1.68055e-16
1.68057e-16
1.68059e-16
1.68059e-16
1.6806e-16
1.6806e-16
1.68059e-16
1.68058e-16
1.68056e-16
1.68054e-16
1.6805e-16
1.68046e-16
1.6804e-16
1.68033e-16
1.68021e-16
1.68009e-16
1.67991e-16
1.6797e-16
1.6794e-16
1.67903e-16
1.67853e-16
1.67786e-16
1.67696e-16
1.67582e-16
1.67408e-16
1.67206e-16
1.66823e-16
1.66429e-16
1.65874e-16
1.65452e-16
1.66792e-16
1.67209e-16
1.67765e-16
1.6816e-16
1.68541e-16
1.68747e-16
1.6892e-16
1.69035e-16
1.69126e-16
1.69192e-16
1.69243e-16
1.6928e-16
1.6931e-16
1.69331e-16
1.69349e-16
1.69361e-16
1.69373e-16
1.69379e-16
1.69386e-16
1.69389e-16
1.69394e-16
1.69395e-16
1.69398e-16
1.69398e-16
1.69399e-16
1.69399e-16
1.69398e-16
1.69397e-16
1.69395e-16
1.69393e-16
1.69389e-16
1.69385e-16
1.69379e-16
1.69372e-16
1.6936e-16
1.69348e-16
1.6933e-16
1.69309e-16
1.69278e-16
1.69242e-16
1.69191e-16
1.69124e-16
1.69033e-16
1.68918e-16
1.68745e-16
1.68539e-16
1.68158e-16
1.67763e-16
1.67207e-16
1.6679e-16
1.68195e-16
1.68606e-16
1.69161e-16
1.69555e-16
1.69931e-16
1.70141e-16
1.70312e-16
1.70427e-16
1.70518e-16
1.70584e-16
1.70635e-16
1.70671e-16
1.70702e-16
1.70723e-16
1.70741e-16
1.70753e-16
1.70764e-16
1.70771e-16
1.70777e-16
1.70781e-16
1.70785e-16
1.70787e-16
1.70789e-16
1.7079e-16
1.7079e-16
1.7079e-16
1.7079e-16
1.70789e-16
1.70787e-16
1.70785e-16
1.7078e-16
1.70777e-16
1.7077e-16
1.70763e-16
1.70752e-16
1.7074e-16
1.70722e-16
1.70701e-16
1.7067e-16
1.70634e-16
1.70583e-16
1.70516e-16
1.70425e-16
1.7031e-16
1.70138e-16
1.69929e-16
1.69553e-16
1.69159e-16
1.68604e-16
1.68193e-16
1.69675e-16
1.70079e-16
1.70629e-16
1.71021e-16
1.7139e-16
1.71602e-16
1.71771e-16
1.71886e-16
1.71977e-16
1.72042e-16
1.72092e-16
1.72129e-16
1.72159e-16
1.7218e-16
1.72198e-16
1.7221e-16
1.72221e-16
1.72227e-16
1.72234e-16
1.72237e-16
1.72242e-16
1.72243e-16
1.72245e-16
1.72246e-16
1.72247e-16
1.72247e-16
1.72246e-16
1.72245e-16
1.72243e-16
1.72242e-16
1.72237e-16
1.72234e-16
1.72227e-16
1.7222e-16
1.72209e-16
1.72197e-16
1.72179e-16
1.72158e-16
1.72128e-16
1.72091e-16
1.72041e-16
1.71975e-16
1.71884e-16
1.71769e-16
1.716e-16
1.71388e-16
1.71019e-16
1.70627e-16
1.70077e-16
1.69673e-16
1.71179e-16
1.71577e-16
1.72118e-16
1.72505e-16
1.72864e-16
1.73076e-16
1.7324e-16
1.73354e-16
1.73442e-16
1.73505e-16
1.73555e-16
1.73592e-16
1.7362e-16
1.7364e-16
1.73658e-16
1.73671e-16
1.73682e-16
1.73688e-16
1.73695e-16
1.73698e-16
1.73702e-16
1.73704e-16
1.73705e-16
1.73706e-16
1.73706e-16
1.73706e-16
1.73706e-16
1.73705e-16
1.73704e-16
1.73703e-16
1.73697e-16
1.73694e-16
1.73687e-16
1.73681e-16
1.7367e-16
1.73657e-16
1.73639e-16
1.73619e-16
1.73591e-16
1.73554e-16
1.73504e-16
1.7344e-16
1.73352e-16
1.73238e-16
1.73074e-16
1.72862e-16
1.72503e-16
1.72116e-16
1.71575e-16
1.71177e-16
1.72673e-16
1.73063e-16
1.73592e-16
1.73969e-16
1.74317e-16
1.74526e-16
1.74685e-16
1.74796e-16
1.7488e-16
1.74941e-16
1.74991e-16
1.75028e-16
1.75051e-16
1.75071e-16
1.75088e-16
1.75102e-16
1.75114e-16
1.7512e-16
1.75127e-16
1.7513e-16
1.75134e-16
1.75135e-16
1.75135e-16
1.75136e-16
1.75137e-16
1.75137e-16
1.75136e-16
1.75135e-16
1.75135e-16
1.75135e-16
1.75129e-16
1.75126e-16
1.75119e-16
1.75113e-16
1.75101e-16
1.75087e-16
1.7507e-16
1.7505e-16
1.75026e-16
1.7499e-16
1.7494e-16
1.74878e-16
1.74794e-16
1.74683e-16
1.74523e-16
1.74315e-16
1.73967e-16
1.73589e-16
1.73061e-16
1.72671e-16
1.74086e-16
1.74466e-16
1.74978e-16
1.75344e-16
1.7568e-16
1.75882e-16
1.76036e-16
1.76142e-16
1.76223e-16
1.76281e-16
1.76333e-16
1.76368e-16
1.76384e-16
1.76403e-16
1.7642e-16
1.76433e-16
1.76451e-16
1.76457e-16
1.76463e-16
1.76466e-16
1.7647e-16
1.76471e-16
1.76471e-16
1.76471e-16
1.76472e-16
1.76472e-16
1.76471e-16
1.76471e-16
1.76471e-16
1.7647e-16
1.76465e-16
1.76462e-16
1.76456e-16
1.7645e-16
1.76432e-16
1.76418e-16
1.76402e-16
1.76383e-16
1.76367e-16
1.76331e-16
1.76279e-16
1.76221e-16
1.7614e-16
1.76034e-16
1.7588e-16
1.75677e-16
1.75342e-16
1.74976e-16
1.74463e-16
1.74084e-16
1.75457e-16
1.75823e-16
1.76316e-16
1.76667e-16
1.76988e-16
1.77184e-16
1.7733e-16
1.77431e-16
1.77507e-16
1.77562e-16
1.77593e-16
1.77622e-16
1.77657e-16
1.77674e-16
1.7769e-16
1.77699e-16
1.777e-16
1.77705e-16
1.77711e-16
1.77714e-16
1.77718e-16
1.7772e-16
1.77723e-16
1.77724e-16
1.77724e-16
1.77724e-16
1.77724e-16
1.77723e-16
1.77719e-16
1.77718e-16
1.77714e-16
1.77711e-16
1.77705e-16
1.77699e-16
1.77698e-16
1.77689e-16
1.77673e-16
1.77656e-16
1.77621e-16
1.77592e-16
1.7756e-16
1.77505e-16
1.77429e-16
1.77328e-16
1.77182e-16
1.76986e-16
1.76665e-16
1.76314e-16
1.75821e-16
1.75455e-16
1.76701e-16
1.77052e-16
1.7752e-16
1.77852e-16
1.78157e-16
1.78341e-16
1.78479e-16
1.78573e-16
1.78644e-16
1.78694e-16
1.78727e-16
1.78755e-16
1.78782e-16
1.78798e-16
1.78813e-16
1.78821e-16
1.78829e-16
1.78834e-16
1.7884e-16
1.78843e-16
1.78846e-16
1.78848e-16
1.7885e-16
1.78851e-16
1.78851e-16
1.78851e-16
1.78851e-16
1.7885e-16
1.78847e-16
1.78845e-16
1.78842e-16
1.78839e-16
1.78833e-16
1.78828e-16
1.7882e-16
1.78812e-16
1.78797e-16
1.78781e-16
1.78753e-16
1.78726e-16
1.78693e-16
1.78642e-16
1.78571e-16
1.78477e-16
1.78339e-16
1.78155e-16
1.7785e-16
1.77518e-16
1.77049e-16
1.76699e-16
1.77811e-16
1.78146e-16
1.78585e-16
1.78895e-16
1.79181e-16
1.7935e-16
1.79478e-16
1.79564e-16
1.79629e-16
1.79675e-16
1.79707e-16
1.79733e-16
1.79756e-16
1.79771e-16
1.79785e-16
1.79793e-16
1.79801e-16
1.79806e-16
1.79812e-16
1.79815e-16
1.79818e-16
1.79819e-16
1.79821e-16
1.79822e-16
1.79822e-16
1.79822e-16
1.79822e-16
1.79821e-16
1.79819e-16
1.79817e-16
1.79814e-16
1.79811e-16
1.79806e-16
1.798e-16
1.79792e-16
1.79784e-16
1.7977e-16
1.79755e-16
1.79732e-16
1.79706e-16
1.79674e-16
1.79627e-16
1.79562e-16
1.79475e-16
1.79348e-16
1.79179e-16
1.78893e-16
1.78583e-16
1.78144e-16
1.77809e-16
1.78775e-16
1.7909e-16
1.79495e-16
1.79779e-16
1.80044e-16
1.80196e-16
1.80311e-16
1.80389e-16
1.80447e-16
1.80489e-16
1.80518e-16
1.80542e-16
1.80562e-16
1.80576e-16
1.80589e-16
1.80597e-16
1.80605e-16
1.8061e-16
1.80615e-16
1.80618e-16
1.80621e-16
1.80622e-16
1.80624e-16
1.80624e-16
1.80625e-16
1.80625e-16
1.80624e-16
1.80624e-16
1.80622e-16
1.8062e-16
1.80617e-16
1.80615e-16
1.80609e-16
1.80604e-16
1.80596e-16
1.80588e-16
1.80575e-16
1.80561e-16
1.80541e-16
1.80517e-16
1.80488e-16
1.80445e-16
1.80387e-16
1.80309e-16
1.80193e-16
1.80041e-16
1.79777e-16
1.79493e-16
1.79088e-16
1.78772e-16
1.79523e-16
1.79819e-16
1.80184e-16
1.8044e-16
1.80678e-16
1.80812e-16
1.80914e-16
1.80983e-16
1.81034e-16
1.81071e-16
1.81097e-16
1.81118e-16
1.81136e-16
1.81149e-16
1.8116e-16
1.81168e-16
1.81175e-16
1.8118e-16
1.81184e-16
1.81187e-16
1.8119e-16
1.81191e-16
1.81193e-16
1.81193e-16
1.81194e-16
1.81194e-16
1.81193e-16
1.81192e-16
1.81191e-16
1.81189e-16
1.81186e-16
1.81184e-16
1.81179e-16
1.81174e-16
1.81167e-16
1.81159e-16
1.81148e-16
1.81135e-16
1.81117e-16
1.81095e-16
1.8107e-16
1.81032e-16
1.80981e-16
1.80912e-16
1.8081e-16
1.80676e-16
1.80438e-16
1.80182e-16
1.79816e-16
1.79521e-16
1.80045e-16
1.80318e-16
1.80639e-16
1.80866e-16
1.81072e-16
1.81187e-16
1.81274e-16
1.81332e-16
1.81375e-16
1.81408e-16
1.8143e-16
1.81449e-16
1.81464e-16
1.81476e-16
1.81486e-16
1.81493e-16
1.81499e-16
1.81504e-16
1.81508e-16
1.8151e-16
1.81513e-16
1.81514e-16
1.81515e-16
1.81516e-16
1.81517e-16
1.81517e-16
1.81516e-16
1.81515e-16
1.81514e-16
1.81512e-16
1.8151e-16
1.81507e-16
1.81503e-16
1.81499e-16
1.81492e-16
1.81485e-16
1.81474e-16
1.81463e-16
1.81448e-16
1.81428e-16
1.81406e-16
1.81373e-16
1.8133e-16
1.81272e-16
1.81185e-16
1.8107e-16
1.80863e-16
1.80637e-16
1.80315e-16
1.80042e-16
1.80314e-16
1.8056e-16
1.80832e-16
1.81027e-16
1.81197e-16
1.81291e-16
1.81361e-16
1.81408e-16
1.81443e-16
1.81469e-16
1.81487e-16
1.81504e-16
1.81516e-16
1.81526e-16
1.81535e-16
1.81541e-16
1.81547e-16
1.81551e-16
1.81554e-16
1.81557e-16
1.81559e-16
1.8156e-16
1.81561e-16
1.81562e-16
1.81562e-16
1.81562e-16
1.81562e-16
1.81561e-16
1.8156e-16
1.81558e-16
1.81556e-16
1.81554e-16
1.8155e-16
1.81546e-16
1.8154e-16
1.81534e-16
1.81525e-16
1.81515e-16
1.81502e-16
1.81486e-16
1.81468e-16
1.81441e-16
1.81406e-16
1.81359e-16
1.81288e-16
1.81195e-16
1.81024e-16
1.8083e-16
1.80558e-16
1.80311e-16
1.80296e-16
1.80514e-16
1.80732e-16
1.80892e-16
1.81024e-16
1.81095e-16
1.81149e-16
1.81184e-16
1.8121e-16
1.8123e-16
1.81244e-16
1.81257e-16
1.81267e-16
1.81276e-16
1.81282e-16
1.81288e-16
1.81293e-16
1.81297e-16
1.813e-16
1.81302e-16
1.81304e-16
1.81305e-16
1.81306e-16
1.81307e-16
1.81307e-16
1.81307e-16
1.81307e-16
1.81306e-16
1.81305e-16
1.81304e-16
1.81302e-16
1.81299e-16
1.81296e-16
1.81292e-16
1.81288e-16
1.81282e-16
1.81275e-16
1.81266e-16
1.81256e-16
1.81242e-16
1.81229e-16
1.81208e-16
1.81182e-16
1.81147e-16
1.81093e-16
1.81022e-16
1.8089e-16
1.8073e-16
1.80512e-16
1.80294e-16
1.79973e-16
1.80156e-16
1.80312e-16
1.80433e-16
1.80523e-16
1.80568e-16
1.80603e-16
1.80625e-16
1.80642e-16
1.80655e-16
1.80664e-16
1.80674e-16
1.80681e-16
1.80689e-16
1.80694e-16
1.80699e-16
1.80702e-16
1.80706e-16
1.80708e-16
1.8071e-16
1.80712e-16
1.80713e-16
1.80714e-16
1.80715e-16
1.80715e-16
1.80715e-16
1.80715e-16
1.80714e-16
1.80713e-16
1.80712e-16
1.8071e-16
1.80708e-16
1.80705e-16
1.80702e-16
1.80698e-16
1.80693e-16
1.80688e-16
1.8068e-16
1.80673e-16
1.80663e-16
1.80654e-16
1.8064e-16
1.80623e-16
1.80601e-16
1.80566e-16
1.80521e-16
1.80431e-16
1.8031e-16
1.80153e-16
1.7997e-16
1.79325e-16
1.79472e-16
1.79567e-16
1.79648e-16
1.79696e-16
1.79714e-16
1.79732e-16
1.7974e-16
1.79748e-16
1.79755e-16
1.79759e-16
1.79766e-16
1.7977e-16
1.79776e-16
1.79779e-16
1.79784e-16
1.79786e-16
1.7979e-16
1.79791e-16
1.79794e-16
1.79795e-16
1.79796e-16
1.79797e-16
1.79797e-16
1.79798e-16
1.79798e-16
1.79797e-16
1.79797e-16
1.79796e-16
1.79794e-16
1.79793e-16
1.79791e-16
1.79789e-16
1.79786e-16
1.79783e-16
1.79778e-16
1.79775e-16
1.79769e-16
1.79765e-16
1.79758e-16
1.79753e-16
1.79746e-16
1.79738e-16
1.7973e-16
1.79712e-16
1.79694e-16
1.79646e-16
1.79564e-16
1.7947e-16
1.79323e-16
1.78338e-16
1.78447e-16
1.78476e-16
1.78518e-16
1.78518e-16
1.78506e-16
1.78503e-16
1.78495e-16
1.78493e-16
1.78493e-16
1.78492e-16
1.78496e-16
1.78497e-16
1.78501e-16
1.78502e-16
1.78506e-16
1.78507e-16
1.78511e-16
1.78511e-16
1.78514e-16
1.78514e-16
1.78516e-16
1.78516e-16
1.78517e-16
1.78517e-16
1.78517e-16
1.78517e-16
1.78516e-16
1.78515e-16
1.78514e-16
1.78513e-16
1.78511e-16
1.7851e-16
1.78507e-16
1.78505e-16
1.78501e-16
1.785e-16
1.78496e-16
1.78495e-16
1.78491e-16
1.78491e-16
1.78491e-16
1.78493e-16
1.78501e-16
1.78503e-16
1.78516e-16
1.78516e-16
1.78474e-16
1.78445e-16
1.78336e-16
1.76969e-16
1.7707e-16
1.77031e-16
1.77032e-16
1.76985e-16
1.76944e-16
1.76924e-16
1.76901e-16
1.7689e-16
1.76883e-16
1.76877e-16
1.76878e-16
1.76877e-16
1.7688e-16
1.76879e-16
1.76883e-16
1.76883e-16
1.76885e-16
1.76886e-16
1.76888e-16
1.76888e-16
1.7689e-16
1.7689e-16
1.7689e-16
1.7689e-16
1.7689e-16
1.7689e-16
1.7689e-16
1.76889e-16
1.76888e-16
1.76887e-16
1.76885e-16
1.76885e-16
1.76882e-16
1.76882e-16
1.76878e-16
1.76879e-16
1.76876e-16
1.76877e-16
1.76876e-16
1.76881e-16
1.76889e-16
1.76899e-16
1.76922e-16
1.76942e-16
1.76983e-16
1.7703e-16
1.77029e-16
1.77067e-16
1.76967e-16
1.75267e-16
1.75331e-16
1.7521e-16
1.75163e-16
1.75063e-16
1.74989e-16
1.74949e-16
1.74909e-16
1.74889e-16
1.74873e-16
1.74863e-16
1.7486e-16
1.74857e-16
1.74859e-16
1.74856e-16
1.74859e-16
1.74858e-16
1.7486e-16
1.7486e-16
1.74862e-16
1.74862e-16
1.74863e-16
1.74863e-16
1.74864e-16
1.74864e-16
1.74864e-16
1.74864e-16
1.74863e-16
1.74863e-16
1.74861e-16
1.74861e-16
1.74859e-16
1.7486e-16
1.74857e-16
1.74858e-16
1.74855e-16
1.74858e-16
1.74856e-16
1.74859e-16
1.74862e-16
1.74872e-16
1.74887e-16
1.74907e-16
1.74947e-16
1.74986e-16
1.75061e-16
1.75161e-16
1.75208e-16
1.75329e-16
1.75265e-16
1.73151e-16
1.73177e-16
1.72982e-16
1.72894e-16
1.7281e-16
1.72706e-16
1.7265e-16
1.72595e-16
1.72566e-16
1.72543e-16
1.72529e-16
1.72523e-16
1.72517e-16
1.72519e-16
1.72515e-16
1.72517e-16
1.72515e-16
1.72517e-16
1.72516e-16
1.72518e-16
1.72517e-16
1.72519e-16
1.72518e-16
1.72519e-16
1.72519e-16
1.72519e-16
1.72519e-16
1.72518e-16
1.72519e-16
1.72517e-16
1.72517e-16
1.72515e-16
1.72516e-16
1.72514e-16
1.72516e-16
1.72514e-16
1.72519e-16
1.72516e-16
1.72522e-16
1.72527e-16
1.72542e-16
1.72564e-16
1.72592e-16
1.72648e-16
1.72704e-16
1.72807e-16
1.72892e-16
1.72979e-16
1.73175e-16
1.73149e-16
1.70732e-16
1.70724e-16
1.70457e-16
1.70331e-16
1.70206e-16
1.70066e-16
1.69992e-16
1.69919e-16
1.69882e-16
1.6985e-16
1.69831e-16
1.69821e-16
1.69812e-16
1.69816e-16
1.6981e-16
1.69811e-16
1.69808e-16
1.6981e-16
1.69808e-16
1.6981e-16
1.69809e-16
1.6981e-16
1.6981e-16
1.69811e-16
1.6981e-16
1.6981e-16
1.6981e-16
1.6981e-16
1.6981e-16
1.69809e-16
1.69809e-16
1.69807e-16
1.69809e-16
1.69807e-16
1.69811e-16
1.69809e-16
1.69816e-16
1.69811e-16
1.6982e-16
1.69829e-16
1.69849e-16
1.6988e-16
1.69917e-16
1.69991e-16
1.70064e-16
1.70204e-16
1.70329e-16
1.70455e-16
1.70722e-16
1.7073e-16
1.67972e-16
1.67882e-16
1.67595e-16
1.67432e-16
1.67272e-16
1.67101e-16
1.67014e-16
1.66926e-16
1.66881e-16
1.66842e-16
1.66818e-16
1.66805e-16
1.66792e-16
1.66801e-16
1.66793e-16
1.66793e-16
1.66789e-16
1.66791e-16
1.66788e-16
1.6679e-16
1.66789e-16
1.6679e-16
1.66789e-16
1.6679e-16
1.6679e-16
1.6679e-16
1.6679e-16
1.66789e-16
1.6679e-16
1.66788e-16
1.6679e-16
1.66788e-16
1.6679e-16
1.66788e-16
1.66793e-16
1.66792e-16
1.668e-16
1.66792e-16
1.66804e-16
1.66817e-16
1.66841e-16
1.66878e-16
1.66924e-16
1.67012e-16
1.671e-16
1.67269e-16
1.6743e-16
1.67593e-16
1.6788e-16
1.6797e-16
1.64889e-16
1.64764e-16
1.64414e-16
1.64217e-16
1.64023e-16
1.63824e-16
1.63723e-16
1.63623e-16
1.63569e-16
1.63524e-16
1.63496e-16
1.63479e-16
1.63461e-16
1.63444e-16
1.63433e-16
1.63434e-16
1.63428e-16
1.6343e-16
1.63426e-16
1.63428e-16
1.63427e-16
1.63428e-16
1.63427e-16
1.63428e-16
1.63428e-16
1.63427e-16
1.63428e-16
1.63427e-16
1.63428e-16
1.63426e-16
1.63428e-16
1.63426e-16
1.63429e-16
1.63427e-16
1.63433e-16
1.63433e-16
1.63443e-16
1.6346e-16
1.63478e-16
1.63494e-16
1.63523e-16
1.63567e-16
1.6362e-16
1.63721e-16
1.63823e-16
1.64021e-16
1.64214e-16
1.64412e-16
1.64761e-16
1.64887e-16
1.61506e-16
1.61344e-16
1.60939e-16
1.60707e-16
1.60485e-16
1.60259e-16
1.60146e-16
1.60033e-16
1.59973e-16
1.59922e-16
1.59889e-16
1.59868e-16
1.59846e-16
1.59832e-16
1.5982e-16
1.5982e-16
1.59813e-16
1.59815e-16
1.59811e-16
1.59813e-16
1.59811e-16
1.59812e-16
1.59811e-16
1.59812e-16
1.59812e-16
1.59812e-16
1.59812e-16
1.59811e-16
1.59812e-16
1.59811e-16
1.59813e-16
1.59811e-16
1.59814e-16
1.59813e-16
1.59819e-16
1.5982e-16
1.59831e-16
1.59845e-16
1.59867e-16
1.59887e-16
1.5992e-16
1.5997e-16
1.6003e-16
1.60144e-16
1.60258e-16
1.60482e-16
1.60705e-16
1.60937e-16
1.61342e-16
1.61503e-16
1.57848e-16
1.57652e-16
1.57196e-16
1.56933e-16
1.56686e-16
1.56435e-16
1.5631e-16
1.56186e-16
1.5612e-16
1.56063e-16
1.56026e-16
1.56002e-16
1.55977e-16
1.55965e-16
1.55953e-16
1.55952e-16
1.55945e-16
1.55946e-16
1.55942e-16
1.55944e-16
1.55941e-16
1.55943e-16
1.55941e-16
1.55942e-16
1.55942e-16
1.55942e-16
1.55942e-16
1.55941e-16
1.55942e-16
1.55941e-16
1.55943e-16
1.55941e-16
1.55945e-16
1.55944e-16
1.55951e-16
1.55952e-16
1.55965e-16
1.55977e-16
1.56e-16
1.56025e-16
1.56061e-16
1.56117e-16
1.56183e-16
1.56308e-16
1.56434e-16
1.56683e-16
1.5693e-16
1.57193e-16
1.5765e-16
1.57845e-16
1.53946e-16
1.53719e-16
1.53216e-16
1.52925e-16
1.52656e-16
1.52384e-16
1.52248e-16
1.52114e-16
1.52043e-16
1.51981e-16
1.51941e-16
1.51913e-16
1.51888e-16
1.51877e-16
1.51863e-16
1.51862e-16
1.51854e-16
1.51855e-16
1.5185e-16
1.51852e-16
1.5185e-16
1.51851e-16
1.51849e-16
1.5185e-16
1.5185e-16
1.5185e-16
1.5185e-16
1.51849e-16
1.51851e-16
1.51849e-16
1.51852e-16
1.5185e-16
1.51855e-16
1.51853e-16
1.51862e-16
1.51862e-16
1.51876e-16
1.51887e-16
1.51912e-16
1.51939e-16
1.51978e-16
1.5204e-16
1.52112e-16
1.52246e-16
1.52382e-16
1.52654e-16
1.52923e-16
1.53213e-16
1.53716e-16
1.53943e-16
1.49833e-16
1.49577e-16
1.49033e-16
1.48718e-16
1.48431e-16
1.4814e-16
1.47995e-16
1.47853e-16
1.47776e-16
1.4771e-16
1.47667e-16
1.47638e-16
1.47611e-16
1.47601e-16
1.47586e-16
1.47585e-16
1.47576e-16
1.47577e-16
1.47572e-16
1.47574e-16
1.47571e-16
1.47572e-16
1.47571e-16
1.47572e-16
1.47571e-16
1.47571e-16
1.47572e-16
1.47571e-16
1.47572e-16
1.47571e-16
1.47574e-16
1.47572e-16
1.47577e-16
1.47576e-16
1.47584e-16
1.47586e-16
1.476e-16
1.4761e-16
1.47636e-16
1.47665e-16
1.47707e-16
1.47773e-16
1.4785e-16
1.47993e-16
1.48138e-16
1.48429e-16
1.48715e-16
1.49031e-16
1.49574e-16
1.4983e-16
1.45544e-16
1.45263e-16
1.44683e-16
1.44323e-16
1.44004e-16
1.43739e-16
1.43586e-16
1.43437e-16
1.43358e-16
1.43288e-16
1.43242e-16
1.43211e-16
1.43184e-16
1.43174e-16
1.43159e-16
1.43157e-16
1.43148e-16
1.43149e-16
1.43143e-16
1.43145e-16
1.43142e-16
1.43143e-16
1.43142e-16
1.43142e-16
1.43142e-16
1.43142e-16
1.43142e-16
1.43141e-16
1.43143e-16
1.43141e-16
1.43145e-16
1.43143e-16
1.43148e-16
1.43147e-16
1.43157e-16
1.43158e-16
1.43174e-16
1.43183e-16
1.4321e-16
1.4324e-16
1.43284e-16
1.43354e-16
1.43434e-16
1.43584e-16
1.43737e-16
1.44002e-16
1.4432e-16
1.44681e-16
1.4526e-16
1.45541e-16
1.41116e-16
1.40814e-16
1.40204e-16
1.39825e-16
1.39494e-16
1.39218e-16
1.3906e-16
1.38906e-16
1.38823e-16
1.3875e-16
1.38703e-16
)
;

boundaryField
{
    fuel
    {
        type            fixedValue;
        value           nonuniform 0();
    }
    wall
    {
        type            zeroGradient;
    }
    outlet
    {
        type            zeroGradient;
    }
    frontAndBack
    {
        type            empty;
    }
    procBoundary2to0
    {
        type            processor;
        value           nonuniform List<scalar> 
53
(
1.6078e-16
1.61353e-16
1.61879e-16
1.62232e-16
1.62486e-16
1.6263e-16
1.62735e-16
1.62808e-16
1.62855e-16
1.62896e-16
1.62922e-16
1.62947e-16
1.62963e-16
1.62978e-16
1.62988e-16
1.62998e-16
1.63003e-16
1.63009e-16
1.62277e-16
1.62277e-16
1.62281e-16
1.62283e-16
1.62285e-16
1.62285e-16
1.62286e-16
1.62287e-16
1.62287e-16
1.62286e-16
1.62285e-16
1.61766e-16
1.61766e-16
1.61764e-16
1.61762e-16
1.61758e-16
1.61754e-16
1.61748e-16
1.61742e-16
1.61731e-16
1.6172e-16
1.61703e-16
1.61685e-16
1.61658e-16
1.61311e-16
1.61311e-16
1.61262e-16
1.61203e-16
1.61117e-16
1.60995e-16
1.6084e-16
1.60544e-16
1.60185e-16
1.5967e-16
1.59153e-16
)
;
    }
    procBoundary2to3
    {
        type            processor;
        value           nonuniform List<scalar> 
51
(
1.38672e-16
1.38645e-16
1.38635e-16
1.38618e-16
1.38617e-16
1.38607e-16
1.38608e-16
1.38602e-16
1.38604e-16
1.386e-16
1.38602e-16
1.386e-16
1.38601e-16
1.386e-16
1.386e-16
1.38601e-16
1.386e-16
1.38602e-16
1.386e-16
1.38603e-16
1.38601e-16
1.38607e-16
1.38606e-16
1.38616e-16
1.38618e-16
1.38634e-16
1.38644e-16
1.38671e-16
1.38702e-16
1.38748e-16
1.38821e-16
1.38904e-16
1.3906e-16
1.39218e-16
1.39493e-16
1.39823e-16
1.40203e-16
1.40812e-16
1.41114e-16
1.36588e-16
1.36268e-16
1.35634e-16
1.35239e-16
1.349e-16
1.34617e-16
1.34454e-16
1.34296e-16
1.34212e-16
1.34136e-16
1.38672e-16
1.34089e-16
)
;
    }
}


// ************************************************************************* //
