/*--------------------------------*- C++ -*----------------------------------*\
| =========                 |                                                 |
| \\      /  F ield         | OpenFOAM: The Open Source CFD Toolbox           |
|  \\    /   O peration     | Version:  dev                                   |
|   \\  /    A nd           | Web:      www.OpenFOAM.org                      |
|    \\/     M anipulation  |                                                 |
\*---------------------------------------------------------------------------*/
FoamFile
{
    version     2.0;
    format      ascii;
    class       volScalarField;
    location    "0.065";
    object      P2-H;
}
// * * * * * * * * * * * * * * * * * * * * * * * * * * * * * * * * * * * * * //

dimensions      [0 0 0 0 0 0 0];

internalField   nonuniform List<scalar> 
250
(
5.63918e-11
4.67068e-13
3.16151e-13
3.02961e-13
3.01637e-13
3.01447e-13
3.01414e-13
3.01251e-13
3.01306e-13
3.06298e-11
3.42077e-13
1.90208e-13
1.77548e-13
1.76109e-13
1.7595e-13
1.75913e-13
1.75816e-13
1.75872e-13
3.54081e-12
1.95235e-13
9.32973e-14
8.45247e-14
8.34852e-14
8.33878e-14
8.3365e-14
8.33175e-14
8.33522e-14
5.04787e-13
1.12672e-13
4.35077e-14
3.80162e-14
3.73735e-14
3.73204e-14
3.73096e-14
3.72867e-14
3.73058e-14
1.05324e-13
6.97262e-14
2.07085e-14
1.7361e-14
1.70138e-14
1.69894e-14
1.69848e-14
1.69735e-14
1.69842e-14
2.96601e-14
4.6728e-14
1.04847e-14
8.14569e-15
7.8244e-15
7.80077e-15
7.79884e-15
7.79242e-15
7.79856e-15
1.07638e-14
3.35575e-14
5.7886e-15
4.20132e-15
4.00831e-15
3.9982e-15
3.99765e-15
3.99419e-15
3.99783e-15
5.62128e-15
2.53798e-14
3.47841e-15
2.37267e-15
2.19237e-15
2.17485e-15
2.17362e-15
2.1705e-15
2.17318e-15
4.72847e-15
1.9882e-14
2.17998e-15
1.43043e-15
1.33698e-15
1.32522e-15
1.32438e-15
1.32216e-15
1.32405e-15
5.23562e-15
1.59263e-14
1.5434e-15
9.03362e-16
8.37e-16
8.28876e-16
8.2821e-16
8.26724e-16
8.28072e-16
5.73797e-15
1.29226e-14
1.12398e-15
6.39985e-16
5.89937e-16
5.83947e-16
5.83392e-16
5.8224e-16
5.83318e-16
5.87698e-16
6.12434e-15
1.05539e-14
8.51457e-16
4.81189e-16
4.32425e-16
4.26729e-16
4.26124e-16
4.25077e-16
4.26048e-16
4.28125e-16
5.95415e-15
8.63932e-15
6.87655e-16
3.70249e-16
3.30564e-16
3.25827e-16
3.25256e-16
3.24388e-16
3.25195e-16
3.26879e-16
5.39945e-15
7.06941e-15
5.59484e-16
2.96624e-16
2.63368e-16
2.59293e-16
2.58742e-16
2.57995e-16
2.58684e-16
2.59837e-16
4.79464e-15
5.78092e-15
4.72047e-16
2.45206e-16
2.16694e-16
2.131e-16
2.12565e-16
2.11904e-16
2.12504e-16
2.13209e-16
4.24284e-15
4.55637e-15
3.98473e-16
2.07583e-16
1.82773e-16
1.79548e-16
1.79025e-16
1.78431e-16
1.78961e-16
1.79349e-16
3.72154e-15
3.54465e-15
3.3794e-16
1.78963e-16
1.57163e-16
1.54236e-16
1.53728e-16
1.53189e-16
1.53662e-16
1.53844e-16
3.20737e-15
2.83266e-15
2.89236e-16
1.56503e-16
1.37234e-16
1.34558e-16
1.34068e-16
1.33578e-16
1.34002e-16
1.3406e-16
2.70789e-15
2.22566e-15
2.49313e-16
1.38455e-16
1.21373e-16
1.18917e-16
1.18446e-16
1.18003e-16
1.18382e-16
1.18369e-16
2.24864e-15
1.75304e-15
2.16359e-16
1.2371e-16
1.08557e-16
1.06295e-16
1.05847e-16
1.05452e-16
1.05787e-16
1.05738e-16
1.84957e-15
1.36856e-15
1.89051e-16
1.11533e-16
9.81134e-17
9.60264e-17
9.5604e-17
9.5259e-17
9.55507e-17
9.54912e-17
1.51737e-15
1.06466e-15
1.6647e-16
1.01422e-16
8.95871e-17
8.76575e-17
8.72637e-17
8.69726e-17
8.72179e-17
8.71666e-17
1.24749e-15
8.26629e-16
1.47957e-16
9.41031e-17
8.34793e-17
8.16858e-17
8.13172e-17
8.10719e-17
8.12794e-17
8.12447e-17
1.0298e-15
6.44811e-16
1.33001e-16
8.81932e-17
7.83668e-17
7.66913e-17
7.63478e-17
7.61379e-17
7.63135e-17
7.62917e-17
8.53485e-16
5.08288e-16
1.21158e-16
8.32308e-17
7.48277e-17
7.32612e-17
7.29437e-17
7.27831e-17
7.29172e-17
7.29278e-17
7.08257e-16
4.06787e-16
1.12788e-16
7.9981e-17
7.24489e-17
7.09778e-17
7.06856e-17
7.05768e-17
7.0667e-17
7.07164e-17
)
;

boundaryField
{
    fuel
    {
        type            fixedValue;
        value           uniform 0;
    }
    wall
    {
        type            zeroGradient;
    }
    outlet
    {
        type            zeroGradient;
    }
    frontAndBack
    {
        type            empty;
    }
    procBoundary2to0
    {
        type            processor;
        value           nonuniform List<scalar> 
12
(
7.2874e-17
5.91186e-16
3.32692e-16
1.0648e-16
7.79169e-17
7.11683e-17
6.97799e-17
6.95119e-17
6.9457e-17
6.95007e-17
7.06698e-17
6.95947e-17
)
;
    }
    procBoundary2to3
    {
        type            processor;
        value           nonuniform List<scalar> 
25
(
3.01325e-13
1.75903e-13
8.33646e-14
3.73084e-14
1.69841e-14
7.79372e-15
3.99294e-15
2.1622e-15
1.30798e-15
8.34301e-16
8.34301e-16
5.82574e-16
4.25369e-16
3.24616e-16
2.58176e-16
2.1205e-16
1.78553e-16
1.53294e-16
1.33672e-16
1.18091e-16
1.05537e-16
9.53437e-17
8.70577e-17
8.11595e-17
7.62259e-17
)
;
    }
}


// ************************************************************************* //
