/*--------------------------------*- C++ -*----------------------------------*\
| =========                 |                                                 |
| \\      /  F ield         | OpenFOAM: The Open Source CFD Toolbox           |
|  \\    /   O peration     | Version:  dev                                   |
|   \\  /    A nd           | Web:      www.OpenFOAM.org                      |
|    \\/     M anipulation  |                                                 |
\*---------------------------------------------------------------------------*/
FoamFile
{
    version     2.0;
    format      ascii;
    class       volScalarField;
    location    "0.065";
    object      PC3H4;
}
// * * * * * * * * * * * * * * * * * * * * * * * * * * * * * * * * * * * * * //

dimensions      [0 0 0 0 0 0 0];

internalField   nonuniform List<scalar> 
25
(
3.18117e-13
4.04824e-13
5.0679e-13
6.28756e-13
7.73123e-13
9.4236e-13
1.1387e-12
1.3656e-12
1.623e-12
1.91342e-12
2.2377e-12
2.59654e-12
2.99002e-12
3.41754e-12
3.87774e-12
4.3685e-12
4.88702e-12
5.42991e-12
5.99336e-12
6.57348e-12
7.16666e-12
7.7702e-12
8.38305e-12
9.00629e-12
9.64186e-12
)
;

boundaryField
{
    wall
    {
        type            zeroGradient;
    }
    fuel
    {
        type            fixedValue;
        value           nonuniform 0();
    }
    outlet
    {
        type            inletOutlet;
        inletValue      nonuniform 0();
        value           nonuniform 0();
    }
    procBoundary2to1
    {
        type            processor;
        value           uniform 2.49241e-13;
    }
    procBoundary2to3
    {
        type            processor;
        value           uniform 1.0299e-11;
    }
}


// ************************************************************************* //
