/*--------------------------------*- C++ -*----------------------------------*\
| =========                 |                                                 |
| \\      /  F ield         | OpenFOAM: The Open Source CFD Toolbox           |
|  \\    /   O peration     | Version:  dev                                   |
|   \\  /    A nd           | Web:      www.OpenFOAM.org                      |
|    \\/     M anipulation  |                                                 |
\*---------------------------------------------------------------------------*/
FoamFile
{
    version     2.0;
    format      ascii;
    class       surfaceScalarField;
    location    "0.065";
    object      phi;
}
// * * * * * * * * * * * * * * * * * * * * * * * * * * * * * * * * * * * * * //

dimensions      [1 0 -1 0 0 0 0];

internalField   nonuniform List<scalar> 
3902
(
-3.81736e-07
2.19756e-06
-3.68471e-07
2.26351e-06
-3.5384e-07
2.22195e-06
-3.38633e-07
2.23759e-06
-3.2314e-07
2.21651e-06
-3.07192e-07
2.21659e-06
-2.913e-07
2.20578e-06
-2.75177e-07
2.20486e-06
-2.59107e-07
2.19909e-06
-2.42936e-07
2.19904e-06
-2.26787e-07
2.19545e-06
-2.10602e-07
2.19612e-06
-1.94418e-07
2.19359e-06
-1.78224e-07
2.19453e-06
-1.62027e-07
2.19275e-06
-1.45828e-07
2.19368e-06
-1.29627e-07
2.19245e-06
2.19321e-06
-3.85996e-07
2.18492e-06
-3.72501e-07
2.25002e-06
-3.57675e-07
2.20713e-06
-3.42268e-07
2.22218e-06
-3.26599e-07
2.20085e-06
-3.10467e-07
2.20046e-06
-2.94401e-07
2.18972e-06
-2.781e-07
2.18856e-06
-2.61856e-07
2.18285e-06
-2.45511e-07
2.18269e-06
-2.29189e-07
2.17913e-06
-2.12832e-07
2.17976e-06
-1.96476e-07
2.17724e-06
-1.8011e-07
2.17817e-06
-1.63741e-07
2.17639e-06
-1.4737e-07
2.17731e-06
-1.30998e-07
2.17608e-06
-1.14625e-07
2.17683e-06
-9.82507e-08
2.17599e-06
-8.18764e-08
2.17653e-06
-6.55005e-08
2.176e-06
-4.91259e-08
2.17635e-06
-3.27503e-08
2.17605e-06
-1.63757e-08
2.17622e-06
-1.56483e-13
2.17612e-06
1.63751e-08
2.17612e-06
3.27496e-08
2.17622e-06
2.17605e-06
-3.90251e-07
2.17209e-06
-3.76524e-07
2.23629e-06
-3.61503e-07
2.19212e-06
-3.45895e-07
2.20658e-06
-3.30051e-07
2.18501e-06
-3.13735e-07
2.18415e-06
-2.97494e-07
2.17348e-06
-2.81016e-07
2.17209e-06
-2.64598e-07
2.16644e-06
-2.48079e-07
2.16618e-06
-2.31585e-07
2.16264e-06
-2.15055e-07
2.16324e-06
-1.98528e-07
2.16071e-06
-1.8199e-07
2.16163e-06
-1.6545e-07
2.15985e-06
-1.48909e-07
2.16077e-06
-1.32365e-07
2.15954e-06
-1.15821e-07
2.16029e-06
-9.92759e-08
2.15945e-06
-8.27306e-08
2.15999e-06
-6.6184e-08
2.15945e-06
-4.96384e-08
2.1598e-06
-3.3092e-08
2.1595e-06
-1.65465e-08
2.15968e-06
-1.3164e-13
2.15958e-06
1.65459e-08
2.15958e-06
3.30914e-08
2.15968e-06
4.96383e-08
2.1595e-06
6.61833e-08
2.1598e-06
8.27304e-08
2.15945e-06
9.92753e-08
2.16e-06
1.15821e-07
2.15945e-06
1.32365e-07
2.1603e-06
1.48908e-07
2.15954e-06
1.6545e-07
2.16077e-06
1.8199e-07
2.15985e-06
1.98527e-07
2.16164e-06
2.15055e-07
2.16072e-06
2.31584e-07
2.16324e-06
2.16265e-06
-3.94501e-07
2.15906e-06
-3.80542e-07
2.22234e-06
-3.65325e-07
2.1769e-06
-3.49515e-07
2.19077e-06
-3.33496e-07
2.16899e-06
-3.16995e-07
2.16765e-06
-3.0058e-07
2.15707e-06
-2.83925e-07
2.15544e-06
-2.67334e-07
2.14985e-06
-2.50641e-07
2.14949e-06
-2.33976e-07
2.14598e-06
-2.17274e-07
2.14654e-06
-2.00575e-07
2.14402e-06
-1.83866e-07
2.14493e-06
-1.67156e-07
2.14314e-06
-1.50443e-07
2.14406e-06
-1.33729e-07
2.14283e-06
-1.17015e-07
2.14358e-06
-1.00299e-07
2.14273e-06
-8.35828e-08
2.14328e-06
-6.68659e-08
2.14274e-06
-5.01496e-08
2.14309e-06
-3.34329e-08
2.14279e-06
-1.67169e-08
2.14296e-06
-1.54687e-13
2.14286e-06
1.67163e-08
2.14287e-06
3.34324e-08
2.14296e-06
5.01495e-08
2.14279e-06
6.68652e-08
2.14309e-06
8.35825e-08
2.14274e-06
1.00298e-07
2.14328e-06
1.17015e-07
2.14273e-06
1.33729e-07
2.14358e-06
1.50443e-07
2.14283e-06
1.67155e-07
2.14406e-06
1.83866e-07
2.14315e-06
2.00575e-07
2.14493e-06
2.17274e-07
2.14402e-06
2.33975e-07
2.14654e-06
2.50641e-07
2.14598e-06
2.67333e-07
2.14948e-06
2.83925e-07
2.14984e-06
3.0058e-07
2.15543e-06
3.16995e-07
2.15706e-06
3.33497e-07
2.16763e-06
3.49516e-07
2.169e-06
3.65326e-07
2.19075e-06
3.80542e-07
2.17689e-06
3.94502e-07
2.22233e-06
2.15904e-06
-3.98747e-07
2.14582e-06
-3.84554e-07
2.20815e-06
-3.69142e-07
2.16149e-06
-3.5313e-07
2.17476e-06
-3.36935e-07
2.1528e-06
-3.20249e-07
2.15097e-06
-3.0366e-07
2.14048e-06
-2.86828e-07
2.13861e-06
-2.70064e-07
2.13309e-06
-2.53198e-07
2.13263e-06
-2.36361e-07
2.12914e-06
-2.19488e-07
2.12967e-06
-2.02618e-07
2.12715e-06
-1.85739e-07
2.12805e-06
-1.68857e-07
2.12626e-06
-1.51974e-07
2.12717e-06
-1.3509e-07
2.12594e-06
-1.18206e-07
2.1267e-06
-1.01319e-07
2.12585e-06
-8.44333e-08
2.12639e-06
-6.75462e-08
2.12585e-06
-5.06598e-08
2.1262e-06
-3.37731e-08
2.1259e-06
-1.68869e-08
2.12608e-06
-1.9623e-13
2.12598e-06
1.68863e-08
2.12598e-06
3.37726e-08
2.12608e-06
5.06595e-08
2.1259e-06
6.75457e-08
2.12621e-06
8.44328e-08
2.12585e-06
1.01319e-07
2.1264e-06
1.18205e-07
2.12585e-06
1.3509e-07
2.1267e-06
1.51974e-07
2.12594e-06
1.68857e-07
2.12717e-06
1.85738e-07
2.12627e-06
2.02618e-07
2.12805e-06
2.19487e-07
2.12716e-06
2.3636e-07
2.12967e-06
2.53198e-07
2.12915e-06
2.70063e-07
2.13262e-06
2.86828e-07
2.13308e-06
3.03661e-07
2.1386e-06
3.2025e-07
2.14048e-06
3.36936e-07
2.15095e-06
3.53131e-07
2.15281e-06
3.69142e-07
2.17474e-06
3.84555e-07
2.16148e-06
3.98748e-07
2.20814e-06
2.14581e-06
-4.02995e-07
2.13238e-06
-3.88567e-07
2.19372e-06
-3.72958e-07
2.14589e-06
-3.56744e-07
2.15855e-06
-3.40374e-07
2.13644e-06
-3.23503e-07
2.1341e-06
-3.06741e-07
2.12372e-06
-2.89732e-07
2.1216e-06
-2.72795e-07
2.11616e-06
-2.55755e-07
2.11559e-06
-2.38747e-07
2.11213e-06
-2.21702e-07
2.11262e-06
-2.04661e-07
2.11011e-06
-1.87611e-07
2.111e-06
-1.70559e-07
2.10921e-06
-1.53505e-07
2.11012e-06
-1.36451e-07
2.10889e-06
-1.19397e-07
2.10964e-06
-1.0234e-07
2.10879e-06
-8.52838e-08
2.10934e-06
-6.82267e-08
2.1088e-06
-5.117e-08
2.10915e-06
-3.41134e-08
2.10884e-06
-1.70569e-08
2.10902e-06
-2.33038e-13
2.10892e-06
1.70564e-08
2.10892e-06
3.41129e-08
2.10902e-06
5.11697e-08
2.10884e-06
6.82263e-08
2.10915e-06
8.52833e-08
2.10879e-06
1.0234e-07
2.10934e-06
1.19396e-07
2.10879e-06
1.36451e-07
2.10965e-06
1.53505e-07
2.10889e-06
1.70559e-07
2.11012e-06
1.8761e-07
2.10922e-06
2.04661e-07
2.111e-06
2.21701e-07
2.11012e-06
2.38746e-07
2.11263e-06
2.55755e-07
2.11214e-06
2.72794e-07
2.11558e-06
2.89732e-07
2.11615e-06
3.06741e-07
2.12159e-06
3.23504e-07
2.12372e-06
3.40375e-07
2.13408e-06
3.56745e-07
2.13644e-06
3.72959e-07
2.15853e-06
3.88568e-07
2.14587e-06
4.02996e-07
2.19371e-06
2.13236e-06
-4.07235e-07
2.11873e-06
-3.92572e-07
2.17906e-06
-3.76766e-07
2.13008e-06
-3.60349e-07
2.14214e-06
-3.43803e-07
2.11989e-06
-3.26747e-07
2.11705e-06
-3.09811e-07
2.10679e-06
-2.92625e-07
2.10442e-06
-2.75516e-07
2.09905e-06
-2.58303e-07
2.09838e-06
-2.41124e-07
2.09496e-06
-2.23908e-07
2.09541e-06
-2.06697e-07
2.0929e-06
-1.89476e-07
2.09378e-06
-1.72255e-07
2.09199e-06
-1.55031e-07
2.0929e-06
-1.37807e-07
2.09167e-06
-1.20583e-07
2.09242e-06
-1.03357e-07
2.09157e-06
-8.61312e-08
2.09211e-06
-6.89046e-08
2.09157e-06
-5.16783e-08
2.09192e-06
-3.44524e-08
2.09162e-06
-1.72263e-08
2.0918e-06
-2.64532e-13
2.0917e-06
1.72258e-08
2.0917e-06
3.44519e-08
2.0918e-06
5.16779e-08
2.09162e-06
6.89043e-08
2.09192e-06
8.61306e-08
2.09157e-06
1.03356e-07
2.09212e-06
1.20583e-07
2.09157e-06
1.37807e-07
2.09242e-06
1.55031e-07
2.09167e-06
1.72254e-07
2.0929e-06
1.89476e-07
2.092e-06
2.06697e-07
2.09378e-06
2.23907e-07
2.09291e-06
2.41123e-07
2.09541e-06
2.58303e-07
2.09496e-06
2.75515e-07
2.09838e-06
2.92625e-07
2.09904e-06
3.09811e-07
2.10441e-06
3.26748e-07
2.10678e-06
3.43804e-07
2.11703e-06
3.6035e-07
2.1199e-06
3.76767e-07
2.14212e-06
3.92573e-07
2.13007e-06
4.07236e-07
2.17905e-06
2.11872e-06
-4.11474e-07
2.10488e-06
-3.96574e-07
2.16416e-06
-3.80571e-07
2.11408e-06
-3.63951e-07
2.12552e-06
-3.47229e-07
2.10318e-06
-3.29987e-07
2.09981e-06
-3.12877e-07
2.08968e-06
-2.95515e-07
2.08706e-06
-2.78233e-07
2.08177e-06
-2.60848e-07
2.081e-06
-2.43498e-07
2.07761e-06
-2.26111e-07
2.07802e-06
-2.0873e-07
2.07552e-06
-1.91339e-07
2.07639e-06
-1.73948e-07
2.0746e-06
-1.56554e-07
2.07551e-06
-1.39161e-07
2.07428e-06
-1.21768e-07
2.07503e-06
-1.04372e-07
2.07417e-06
-8.69775e-08
2.07472e-06
-6.95817e-08
2.07418e-06
-5.21859e-08
2.07453e-06
-3.4791e-08
2.07423e-06
-1.73955e-08
2.0744e-06
-2.9216e-13
2.0743e-06
1.73951e-08
2.07431e-06
3.47905e-08
2.0744e-06
5.21856e-08
2.07423e-06
6.95814e-08
2.07453e-06
8.69769e-08
2.07417e-06
1.04372e-07
2.07472e-06
1.21768e-07
2.07417e-06
1.39161e-07
2.07503e-06
1.56554e-07
2.07428e-06
1.73948e-07
2.07551e-06
1.91339e-07
2.07461e-06
2.0873e-07
2.07639e-06
2.26111e-07
2.07553e-06
2.43497e-07
2.07803e-06
2.60847e-07
2.07761e-06
2.78232e-07
2.08099e-06
2.95514e-07
2.08176e-06
3.12877e-07
2.08705e-06
3.29987e-07
2.08968e-06
3.47229e-07
2.09979e-06
3.63952e-07
2.10318e-06
3.80572e-07
2.1255e-06
3.96575e-07
2.11407e-06
4.11475e-07
2.16415e-06
2.10486e-06
-4.15711e-07
2.09081e-06
-4.00575e-07
2.14903e-06
-3.84374e-07
2.09789e-06
-3.67549e-07
2.1087e-06
-3.50651e-07
2.08628e-06
-3.33224e-07
2.08238e-06
-3.1594e-07
2.0724e-06
-2.98401e-07
2.06952e-06
-2.80947e-07
2.06432e-06
-2.63389e-07
2.06344e-06
-2.45868e-07
2.06009e-06
-2.28311e-07
2.06047e-06
-2.1076e-07
2.05797e-06
-1.932e-07
2.05883e-06
-1.75639e-07
2.05704e-06
-1.58076e-07
2.05794e-06
-1.40514e-07
2.05672e-06
-1.22951e-07
2.05747e-06
-1.05386e-07
2.05661e-06
-8.78226e-08
2.05716e-06
-7.02578e-08
2.05661e-06
-5.26929e-08
2.05696e-06
-3.51291e-08
2.05666e-06
-1.75644e-08
2.05684e-06
-3.14797e-13
2.05674e-06
1.75641e-08
2.05674e-06
3.51286e-08
2.05684e-06
5.26925e-08
2.05666e-06
7.02576e-08
2.05697e-06
8.7822e-08
2.05661e-06
1.05386e-07
2.05716e-06
1.22951e-07
2.05661e-06
1.40514e-07
2.05747e-06
1.58076e-07
2.05672e-06
1.75639e-07
2.05794e-06
1.93199e-07
2.05705e-06
2.1076e-07
2.05883e-06
2.28311e-07
2.05798e-06
2.45867e-07
2.06047e-06
2.63389e-07
2.06009e-06
2.80946e-07
2.06344e-06
2.984e-07
2.06431e-06
3.1594e-07
2.06951e-06
3.33224e-07
2.07239e-06
3.50651e-07
2.08236e-06
3.6755e-07
2.08628e-06
3.84375e-07
2.10868e-06
4.00576e-07
2.09787e-06
4.15712e-07
2.14902e-06
2.0908e-06
-4.19957e-07
2.07654e-06
-4.04581e-07
2.13365e-06
-3.88182e-07
2.08149e-06
-3.71153e-07
2.09167e-06
-3.54077e-07
2.06921e-06
-3.36464e-07
2.06477e-06
-3.19006e-07
2.05495e-06
-3.01291e-07
2.05181e-06
-2.83664e-07
2.04669e-06
-2.65934e-07
2.04572e-06
-2.48242e-07
2.0424e-06
-2.30515e-07
2.04274e-06
-2.12793e-07
2.04025e-06
-1.95063e-07
2.0411e-06
-1.77332e-07
2.03931e-06
-1.596e-07
2.04021e-06
-1.41868e-07
2.03899e-06
-1.24136e-07
2.03973e-06
-1.06402e-07
2.03888e-06
-8.86689e-08
2.03942e-06
-7.09349e-08
2.03888e-06
-5.32005e-08
2.03923e-06
-3.54676e-08
2.03893e-06
-1.77336e-08
2.03911e-06
-3.33096e-13
2.03901e-06
1.77333e-08
2.03901e-06
3.54671e-08
2.03911e-06
5.32001e-08
2.03893e-06
7.09346e-08
2.03923e-06
8.86682e-08
2.03888e-06
1.06402e-07
2.03943e-06
1.24136e-07
2.03888e-06
1.41868e-07
2.03974e-06
1.59599e-07
2.03899e-06
1.77332e-07
2.04021e-06
1.95062e-07
2.03932e-06
2.12793e-07
2.0411e-06
2.30514e-07
2.04026e-06
2.48241e-07
2.04275e-06
2.65933e-07
2.0424e-06
2.83663e-07
2.04571e-06
3.0129e-07
2.04668e-06
3.19006e-07
2.0518e-06
3.36465e-07
2.05494e-06
3.54078e-07
2.06475e-06
3.71154e-07
2.06921e-06
3.88183e-07
2.09165e-06
4.04582e-07
2.08147e-06
4.19958e-07
2.13364e-06
2.07653e-06
-4.24214e-07
2.06206e-06
-4.08599e-07
2.11804e-06
-3.92001e-07
2.06489e-06
-3.74765e-07
2.07444e-06
-3.57511e-07
2.05196e-06
-3.39711e-07
2.04697e-06
-3.22079e-07
2.03731e-06
-3.04186e-07
2.03391e-06
-2.86386e-07
2.02889e-06
-2.68483e-07
2.02782e-06
-2.5062e-07
2.02454e-06
-2.32721e-07
2.02484e-06
-2.1483e-07
2.02236e-06
-1.96929e-07
2.0232e-06
-1.79028e-07
2.02141e-06
-1.61125e-07
2.02231e-06
-1.43225e-07
2.02108e-06
-1.25323e-07
2.02183e-06
-1.07419e-07
2.02097e-06
-8.95164e-08
2.02152e-06
-7.16129e-08
2.02098e-06
-5.37089e-08
2.02133e-06
-3.58067e-08
2.02103e-06
-1.7903e-08
2.0212e-06
-3.46574e-13
2.0211e-06
1.79027e-08
2.02111e-06
3.58062e-08
2.0212e-06
5.37085e-08
2.02103e-06
7.16128e-08
2.02133e-06
8.95157e-08
2.02098e-06
1.07419e-07
2.02152e-06
1.25323e-07
2.02097e-06
1.43224e-07
2.02184e-06
1.61125e-07
2.02108e-06
1.79028e-07
2.02231e-06
1.96928e-07
2.02142e-06
2.14829e-07
2.0232e-06
2.32721e-07
2.02237e-06
2.50619e-07
2.02485e-06
2.68482e-07
2.02454e-06
2.86385e-07
2.02781e-06
3.04185e-07
2.02888e-06
3.22079e-07
2.0339e-06
3.39712e-07
2.03731e-06
3.57512e-07
2.04696e-06
3.74766e-07
2.05195e-06
3.92001e-07
2.07442e-06
4.086e-07
2.06488e-06
4.24215e-07
2.11803e-06
2.06204e-06
-4.28458e-07
2.04736e-06
-4.12602e-07
2.10218e-06
-3.95805e-07
2.0481e-06
-3.78363e-07
2.057e-06
-3.60931e-07
2.03453e-06
-3.42945e-07
2.02899e-06
-3.25138e-07
2.01951e-06
-3.07068e-07
2.01585e-06
-2.89096e-07
2.01092e-06
-2.71021e-07
2.00975e-06
-2.52987e-07
2.00651e-06
-2.34918e-07
2.00677e-06
-2.16857e-07
2.0043e-06
-1.98786e-07
2.00513e-06
-1.80717e-07
2.00334e-06
-1.62645e-07
2.00424e-06
-1.44575e-07
2.00302e-06
-1.26505e-07
2.00376e-06
-1.08432e-07
2.0029e-06
-9.03602e-08
2.00345e-06
-7.2288e-08
2.00291e-06
-5.42151e-08
2.00326e-06
-3.61442e-08
2.00296e-06
-1.80718e-08
2.00313e-06
-3.55354e-13
2.00303e-06
1.80715e-08
2.00304e-06
3.61437e-08
2.00313e-06
5.42146e-08
2.00296e-06
7.22878e-08
2.00326e-06
9.03596e-08
2.0029e-06
1.08431e-07
2.00345e-06
1.26504e-07
2.0029e-06
1.44575e-07
2.00377e-06
1.62644e-07
2.00302e-06
1.80717e-07
2.00423e-06
1.98786e-07
2.00335e-06
2.16856e-07
2.00513e-06
2.34918e-07
2.00431e-06
2.52986e-07
2.00678e-06
2.7102e-07
2.00651e-06
2.89096e-07
2.00974e-06
3.07068e-07
2.01091e-06
3.25138e-07
2.01583e-06
3.42945e-07
2.0195e-06
3.60932e-07
2.02897e-06
3.78364e-07
2.03453e-06
3.95806e-07
2.05698e-06
4.12603e-07
2.04808e-06
4.28459e-07
2.10218e-06
2.04734e-06
-4.32705e-07
2.03244e-06
-4.16608e-07
2.08609e-06
-3.99611e-07
2.0311e-06
-3.81962e-07
2.03935e-06
-3.64352e-07
2.01692e-06
-3.46179e-07
2.01082e-06
-3.28198e-07
2.00153e-06
-3.09951e-07
1.9976e-06
-2.91806e-07
1.99278e-06
-2.73558e-07
1.9915e-06
-2.55355e-07
1.98831e-06
-2.37116e-07
1.98853e-06
-2.18884e-07
1.98607e-06
-2.00644e-07
1.98689e-06
-1.82405e-07
1.9851e-06
-1.64164e-07
1.98599e-06
-1.45925e-07
1.98478e-06
-1.27686e-07
1.98553e-06
-1.09444e-07
1.98466e-06
-9.1204e-08
1.98521e-06
-7.29631e-08
1.98467e-06
-5.47213e-08
1.98502e-06
-3.64817e-08
1.98473e-06
-1.82405e-08
1.9849e-06
-3.59292e-13
1.9848e-06
1.82402e-08
1.9848e-06
3.64813e-08
1.9849e-06
5.47208e-08
1.98472e-06
7.29629e-08
1.98502e-06
9.12034e-08
1.98466e-06
1.09444e-07
1.98521e-06
1.27686e-07
1.98466e-06
1.45925e-07
1.98553e-06
1.64164e-07
1.98478e-06
1.82405e-07
1.98599e-06
2.00644e-07
1.98511e-06
2.18884e-07
1.9869e-06
2.37115e-07
1.98608e-06
2.55354e-07
1.98854e-06
2.73558e-07
1.98831e-06
2.91806e-07
1.9915e-06
3.0995e-07
1.99277e-06
3.28198e-07
1.99759e-06
3.46179e-07
2.00152e-06
3.64353e-07
2.0108e-06
3.81963e-07
2.01692e-06
3.99612e-07
2.03933e-06
4.16609e-07
2.03108e-06
4.32706e-07
2.08608e-06
2.03242e-06
-4.36957e-07
2.0173e-06
-4.20619e-07
2.06975e-06
-4.03421e-07
2.01391e-06
-3.85564e-07
2.0215e-06
-3.67775e-07
1.99913e-06
-3.49414e-07
1.99246e-06
-3.31259e-07
1.98337e-06
-3.12834e-07
1.97917e-06
-2.94518e-07
1.97447e-06
-2.76097e-07
1.97309e-06
-2.57723e-07
1.96993e-06
-2.39314e-07
1.97012e-06
-2.20912e-07
1.96768e-06
-2.02503e-07
1.96849e-06
-1.84095e-07
1.9667e-06
-1.65684e-07
1.96758e-06
-1.47276e-07
1.96637e-06
-1.28868e-07
1.96712e-06
-1.10457e-07
1.96625e-06
-9.20482e-08
1.9668e-06
-7.36384e-08
1.96626e-06
-5.52277e-08
1.96661e-06
-3.68194e-08
1.96632e-06
-1.84093e-08
1.96649e-06
-3.58577e-13
1.9664e-06
1.8409e-08
1.9664e-06
3.68189e-08
1.96649e-06
5.52272e-08
1.96632e-06
7.36382e-08
1.96661e-06
9.20476e-08
1.96625e-06
1.10457e-07
1.9668e-06
1.28868e-07
1.96625e-06
1.47276e-07
1.96712e-06
1.65684e-07
1.96637e-06
1.84094e-07
1.96758e-06
2.02502e-07
1.96671e-06
2.20912e-07
1.96849e-06
2.39313e-07
1.96768e-06
2.57722e-07
1.97012e-06
2.76097e-07
1.96993e-06
2.94517e-07
1.97309e-06
3.12834e-07
1.97445e-06
3.31259e-07
1.97916e-06
3.49415e-07
1.98337e-06
3.67776e-07
1.99244e-06
3.85565e-07
1.99913e-06
4.03422e-07
2.02148e-06
4.2062e-07
2.01389e-06
4.36958e-07
2.06974e-06
2.01729e-06
-4.41216e-07
2.00194e-06
-4.24634e-07
2.05317e-06
-4.07235e-07
1.99651e-06
-3.8917e-07
2.00343e-06
-3.71202e-07
1.98116e-06
-3.52653e-07
1.97391e-06
-3.34322e-07
1.96504e-06
-3.15721e-07
1.96057e-06
-2.97231e-07
1.95598e-06
-2.78638e-07
1.95451e-06
-2.60093e-07
1.95139e-06
-2.41513e-07
1.95152e-06
-2.22941e-07
1.94912e-06
-2.04363e-07
1.94993e-06
-1.85785e-07
1.94814e-06
-1.67205e-07
1.949e-06
-1.48628e-07
1.94778e-06
-1.30051e-07
1.94853e-06
-1.11471e-07
1.94766e-06
-9.28929e-08
1.94822e-06
-7.43141e-08
1.94767e-06
-5.57345e-08
1.94802e-06
-3.71572e-08
1.94775e-06
-1.85782e-08
1.94792e-06
-3.5355e-13
1.94783e-06
1.85779e-08
1.94783e-06
3.71568e-08
1.94792e-06
5.57339e-08
1.94775e-06
7.43139e-08
1.94802e-06
9.28924e-08
1.94766e-06
1.11471e-07
1.94822e-06
1.30051e-07
1.94766e-06
1.48628e-07
1.94854e-06
1.67204e-07
1.94778e-06
1.85785e-07
1.949e-06
2.04362e-07
1.94815e-06
2.22941e-07
1.94993e-06
2.41512e-07
1.94913e-06
2.60092e-07
1.95153e-06
2.78637e-07
1.95139e-06
2.9723e-07
1.9545e-06
3.1572e-07
1.95596e-06
3.34323e-07
1.96056e-06
3.52653e-07
1.96504e-06
3.71202e-07
1.97389e-06
3.89171e-07
1.98116e-06
4.07236e-07
2.00341e-06
4.24635e-07
1.99649e-06
4.41217e-07
2.05316e-06
2.00193e-06
-4.45501e-07
1.98636e-06
-4.28674e-07
2.03635e-06
-4.11073e-07
1.97891e-06
-3.92798e-07
1.98516e-06
-3.74649e-07
1.96302e-06
-3.55911e-07
1.95517e-06
-3.37405e-07
1.94654e-06
-3.18625e-07
1.94179e-06
-2.99961e-07
1.93732e-06
-2.81195e-07
1.93575e-06
-2.62478e-07
1.93265e-06
-2.43727e-07
1.93274e-06
-2.24983e-07
1.93041e-06
-2.06234e-07
1.93122e-06
-1.87486e-07
1.92943e-06
-1.68735e-07
1.93027e-06
-1.49988e-07
1.92901e-06
-1.31241e-07
1.92977e-06
-1.12491e-07
1.92889e-06
-9.3743e-08
1.92945e-06
-7.49942e-08
1.9289e-06
-5.62444e-08
1.92925e-06
-3.74971e-08
1.92901e-06
-1.87482e-08
1.92917e-06
-3.44988e-13
1.92908e-06
1.87479e-08
1.92908e-06
3.74968e-08
1.92918e-06
5.62438e-08
1.92901e-06
7.49939e-08
1.92925e-06
9.37426e-08
1.92888e-06
1.12491e-07
1.92945e-06
1.31241e-07
1.92889e-06
1.49988e-07
1.92977e-06
1.68735e-07
1.92901e-06
1.87485e-07
1.93027e-06
2.06234e-07
1.92944e-06
2.24983e-07
1.93122e-06
2.43726e-07
1.93042e-06
2.62477e-07
1.93274e-06
2.81194e-07
1.93265e-06
2.9996e-07
1.93575e-06
3.18624e-07
1.9373e-06
3.37405e-07
1.94178e-06
3.55912e-07
1.94653e-06
3.7465e-07
1.95515e-06
3.92798e-07
1.96302e-06
4.11074e-07
1.98514e-06
4.28675e-07
1.97889e-06
4.45502e-07
2.03634e-06
1.98634e-06
-4.49802e-07
1.97054e-06
-4.32729e-07
2.01928e-06
-4.14924e-07
1.96111e-06
-3.96438e-07
1.96668e-06
-3.78107e-07
1.94469e-06
-3.59179e-07
1.93625e-06
-3.40496e-07
1.92786e-06
-3.21537e-07
1.92283e-06
-3.02698e-07
1.91849e-06
-2.83758e-07
1.91682e-06
-2.64869e-07
1.91369e-06
-2.45946e-07
1.91375e-06
-2.2703e-07
1.91156e-06
-2.0811e-07
1.91237e-06
-1.89191e-07
1.91059e-06
-1.7027e-07
1.91142e-06
-1.51352e-07
1.91004e-06
-1.32435e-07
1.9108e-06
-1.13514e-07
1.90992e-06
-9.45952e-08
1.91048e-06
-7.56759e-08
1.90993e-06
-5.67556e-08
1.91028e-06
-3.78379e-08
1.91005e-06
-1.89187e-08
1.91022e-06
-3.34079e-13
1.91013e-06
1.89184e-08
1.91013e-06
3.78375e-08
1.91022e-06
5.67551e-08
1.91005e-06
7.56755e-08
1.91028e-06
9.4595e-08
1.90992e-06
1.13514e-07
1.91048e-06
1.32434e-07
1.90992e-06
1.51352e-07
1.9108e-06
1.7027e-07
1.91005e-06
1.89191e-07
1.91142e-06
2.0811e-07
1.91059e-06
2.2703e-07
1.91238e-06
2.45945e-07
1.91156e-06
2.64868e-07
1.91376e-06
2.83758e-07
1.91369e-06
3.02698e-07
1.91682e-06
3.21536e-07
1.91847e-06
3.40496e-07
1.92281e-06
3.5918e-07
1.92785e-06
3.78108e-07
1.93623e-06
3.96438e-07
1.94469e-06
4.14925e-07
1.96666e-06
4.3273e-07
1.96109e-06
4.49803e-07
2.01927e-06
1.97052e-06
-4.54118e-07
1.95448e-06
-4.36797e-07
2.00196e-06
-4.18787e-07
1.9431e-06
-4.00088e-07
1.94798e-06
-3.81575e-07
1.92618e-06
-3.62456e-07
1.91713e-06
-3.43595e-07
1.909e-06
-3.24456e-07
1.90369e-06
-3.05443e-07
1.89948e-06
-2.86329e-07
1.89772e-06
-2.67266e-07
1.89444e-06
-2.48171e-07
1.89456e-06
-2.29082e-07
1.89257e-06
-2.09991e-07
1.8934e-06
-1.90901e-07
1.89161e-06
-1.71809e-07
1.89252e-06
-1.5272e-07
1.89086e-06
-1.33631e-07
1.89162e-06
-1.14539e-07
1.89073e-06
-9.54498e-08
1.8913e-06
-7.63593e-08
1.89075e-06
-5.72681e-08
1.8911e-06
-3.81794e-08
1.89081e-06
-1.90896e-08
1.89098e-06
-3.22324e-13
1.89089e-06
1.90893e-08
1.89089e-06
3.81791e-08
1.89098e-06
5.72675e-08
1.89082e-06
7.63589e-08
1.8911e-06
9.54498e-08
1.89078e-06
1.14539e-07
1.8913e-06
1.33631e-07
1.89073e-06
1.5272e-07
1.89162e-06
1.71809e-07
1.89086e-06
1.909e-07
1.89252e-06
2.09991e-07
1.89162e-06
2.29082e-07
1.8934e-06
2.48169e-07
1.89258e-06
2.67266e-07
1.89456e-06
2.86328e-07
1.89444e-06
3.05442e-07
1.89772e-06
3.24456e-07
1.89946e-06
3.43596e-07
1.90367e-06
3.62457e-07
1.90899e-06
3.81576e-07
1.91711e-06
4.00089e-07
1.92618e-06
4.18788e-07
1.94796e-06
4.36798e-07
1.94308e-06
4.54119e-07
2.00195e-06
1.95447e-06
-4.58423e-07
1.9382e-06
-4.40853e-07
1.98439e-06
-4.22639e-07
1.92489e-06
-4.03728e-07
1.92907e-06
-3.85032e-07
1.90748e-06
-3.65723e-07
1.89782e-06
-3.46685e-07
1.88996e-06
-3.27366e-07
1.88437e-06
-3.08178e-07
1.88029e-06
-2.88893e-07
1.87843e-06
-2.69656e-07
1.87473e-06
-2.50387e-07
1.87518e-06
-2.31126e-07
1.87341e-06
-2.11865e-07
1.87425e-06
-1.92604e-07
1.87246e-06
-1.73344e-07
1.87374e-06
-1.54084e-07
1.87151e-06
-1.34824e-07
1.87226e-06
-1.15562e-07
1.87137e-06
-9.63018e-08
1.87194e-06
-7.70408e-08
1.8714e-06
-5.77795e-08
1.87174e-06
-3.85201e-08
1.87111e-06
-1.926e-08
1.87127e-06
-3.11045e-13
1.87118e-06
1.92597e-08
1.87118e-06
3.85198e-08
1.87127e-06
5.7779e-08
1.87111e-06
7.70405e-08
1.87174e-06
9.63017e-08
1.87147e-06
1.15562e-07
1.87194e-06
1.34824e-07
1.87137e-06
1.54084e-07
1.87226e-06
1.73344e-07
1.87151e-06
1.92603e-07
1.87374e-06
2.11865e-07
1.87246e-06
2.31126e-07
1.87425e-06
2.50386e-07
1.87342e-06
2.69656e-07
1.87518e-06
2.88892e-07
1.87473e-06
3.08177e-07
1.87843e-06
3.27366e-07
1.88027e-06
3.46685e-07
1.88435e-06
3.65723e-07
1.88995e-06
3.85033e-07
1.8978e-06
4.03729e-07
1.90749e-06
4.2264e-07
1.92905e-06
4.40854e-07
1.92487e-06
4.58424e-07
1.98438e-06
1.93819e-06
-4.62764e-07
1.9217e-06
-4.44943e-07
1.96657e-06
-4.26522e-07
1.90647e-06
-4.07398e-07
1.90995e-06
-3.88518e-07
1.88861e-06
-3.69018e-07
1.87832e-06
-3.49801e-07
1.87075e-06
-3.30302e-07
1.86487e-06
-3.10938e-07
1.86093e-06
-2.91475e-07
1.85897e-06
-2.72054e-07
1.85578e-06
-2.52615e-07
1.85586e-06
-2.33188e-07
1.85388e-06
-2.13755e-07
1.85471e-06
-1.94319e-07
1.85291e-06
-1.7489e-07
1.85381e-06
-1.55452e-07
1.8522e-06
-1.36021e-07
1.85296e-06
-1.16588e-07
1.85207e-06
-9.71566e-08
1.85264e-06
-7.77244e-08
1.85209e-06
-5.82943e-08
1.85244e-06
-3.88621e-08
1.85217e-06
-1.94311e-08
1.85233e-06
-3.01129e-13
1.85224e-06
1.94308e-08
1.85224e-06
3.88618e-08
1.85233e-06
5.82938e-08
1.85216e-06
7.77244e-08
1.85244e-06
9.71561e-08
1.85205e-06
1.16587e-07
1.85264e-06
1.36021e-07
1.85207e-06
1.55452e-07
1.85296e-06
1.7489e-07
1.8522e-06
1.94318e-07
1.85381e-06
2.13755e-07
1.85292e-06
2.33187e-07
1.85471e-06
2.52614e-07
1.85389e-06
2.72053e-07
1.85586e-06
2.91475e-07
1.85578e-06
3.10937e-07
1.85897e-06
3.30302e-07
1.86091e-06
3.49802e-07
1.86485e-06
3.69018e-07
1.87074e-06
3.8852e-07
1.8783e-06
4.07398e-07
1.88861e-06
4.26523e-07
1.90993e-06
4.44944e-07
1.90645e-06
4.62765e-07
1.96656e-06
1.92169e-06
-4.67103e-07
1.905e-06
-4.4903e-07
1.9485e-06
-4.30403e-07
1.88785e-06
-4.11064e-07
1.89062e-06
-3.92e-07
1.86955e-06
-3.72307e-07
1.85863e-06
-3.52913e-07
1.85136e-06
-3.33232e-07
1.84519e-06
-3.13692e-07
1.84139e-06
-2.94056e-07
1.83933e-06
-2.7446e-07
1.83638e-06
-2.54847e-07
1.83634e-06
-2.35246e-07
1.83418e-06
-2.15641e-07
1.83499e-06
-1.96033e-07
1.83319e-06
-1.76435e-07
1.83402e-06
-1.56825e-07
1.83266e-06
-1.37223e-07
1.83343e-06
-1.17617e-07
1.83254e-06
-9.80147e-08
1.83311e-06
-7.84107e-08
1.83256e-06
-5.88093e-08
1.83292e-06
-3.92051e-08
1.83269e-06
-1.96027e-08
1.83286e-06
-2.92645e-13
1.83277e-06
1.96024e-08
1.83277e-06
3.92048e-08
1.83286e-06
5.88088e-08
1.83269e-06
7.84104e-08
1.83291e-06
9.80142e-08
1.83252e-06
1.17617e-07
1.83311e-06
1.37222e-07
1.83254e-06
1.56825e-07
1.83343e-06
1.76435e-07
1.83266e-06
1.96033e-07
1.83402e-06
2.15641e-07
1.8332e-06
2.35245e-07
1.83499e-06
2.54846e-07
1.83419e-06
2.7446e-07
1.83634e-06
2.94055e-07
1.83638e-06
3.13691e-07
1.83933e-06
3.33232e-07
1.84137e-06
3.52913e-07
1.84517e-06
3.72307e-07
1.85134e-06
3.92002e-07
1.8586e-06
4.11065e-07
1.86955e-06
4.30404e-07
1.89059e-06
4.49031e-07
1.88783e-06
4.67104e-07
1.94849e-06
1.90499e-06
-4.71462e-07
1.88808e-06
-4.53135e-07
1.93017e-06
-4.343e-07
1.86902e-06
-4.14746e-07
1.87106e-06
-3.95497e-07
1.8503e-06
-3.7561e-07
1.83874e-06
-3.56036e-07
1.83178e-06
-3.36174e-07
1.82532e-06
-3.16457e-07
1.82167e-06
-2.96646e-07
1.81951e-06
-2.76875e-07
1.81668e-06
-2.57088e-07
1.81661e-06
-2.37312e-07
1.81434e-06
-2.17536e-07
1.81514e-06
-1.97756e-07
1.81333e-06
-1.77985e-07
1.81419e-06
-1.58203e-07
1.81293e-06
-1.38428e-07
1.8137e-06
-1.1865e-07
1.8128e-06
-9.88755e-08
1.81338e-06
-7.90992e-08
1.81283e-06
-5.93255e-08
1.81318e-06
-3.95492e-08
1.81295e-06
-1.97749e-08
1.81311e-06
-2.8492e-13
1.81302e-06
1.97746e-08
1.81302e-06
3.95489e-08
1.81311e-06
5.93251e-08
1.81295e-06
7.90988e-08
1.81318e-06
9.88753e-08
1.81279e-06
1.1865e-07
1.81338e-06
1.38428e-07
1.8128e-06
1.58203e-07
1.8137e-06
1.77985e-07
1.81293e-06
1.97755e-07
1.81418e-06
2.17536e-07
1.81334e-06
2.37312e-07
1.81514e-06
2.57087e-07
1.81435e-06
2.76875e-07
1.81661e-06
2.96645e-07
1.81668e-06
3.16456e-07
1.8195e-06
3.36174e-07
1.82165e-06
3.56036e-07
1.8253e-06
3.7561e-07
1.83177e-06
3.95498e-07
1.83872e-06
4.14747e-07
1.8503e-06
4.34301e-07
1.87104e-06
4.53136e-07
1.869e-06
4.71463e-07
1.93017e-06
1.88807e-06
-4.75865e-07
1.87093e-06
-4.57282e-07
1.91159e-06
-4.38237e-07
1.84998e-06
-4.18466e-07
1.8513e-06
-3.9903e-07
1.83087e-06
-3.78948e-07
1.81866e-06
-3.59193e-07
1.81203e-06
-3.39147e-07
1.80528e-06
-3.19252e-07
1.80178e-06
-2.99264e-07
1.7995e-06
-2.79317e-07
1.79675e-06
-2.59354e-07
1.79668e-06
-2.39402e-07
1.79436e-06
-2.19452e-07
1.79514e-06
-1.99497e-07
1.79334e-06
-1.79552e-07
1.79422e-06
-1.59595e-07
1.79299e-06
-1.39647e-07
1.79377e-06
-1.19695e-07
1.79287e-06
-9.97458e-08
1.79345e-06
-7.97952e-08
1.79289e-06
-5.98475e-08
1.79325e-06
-3.98972e-08
1.79299e-06
-1.99489e-08
1.79315e-06
-2.76809e-13
1.79306e-06
1.99486e-08
1.79306e-06
3.98968e-08
1.79316e-06
5.98471e-08
1.79299e-06
7.97948e-08
1.79325e-06
9.97456e-08
1.79287e-06
1.19694e-07
1.79345e-06
1.39646e-07
1.79287e-06
1.59596e-07
1.79377e-06
1.79552e-07
1.79299e-06
1.99496e-07
1.79422e-06
2.19452e-07
1.79334e-06
2.39402e-07
1.79514e-06
2.59353e-07
1.79437e-06
2.79316e-07
1.79668e-06
2.99263e-07
1.79675e-06
3.19251e-07
1.7995e-06
3.39148e-07
1.80176e-06
3.59194e-07
1.80526e-06
3.78948e-07
1.81202e-06
3.99032e-07
1.81863e-06
4.18467e-07
1.83087e-06
4.38239e-07
1.85127e-06
4.57283e-07
1.84996e-06
4.75866e-07
1.91159e-06
1.87092e-06
-4.80271e-07
1.85353e-06
-4.61432e-07
1.89276e-06
-4.42176e-07
1.83073e-06
-4.22187e-07
1.83131e-06
-4.02563e-07
1.81125e-06
-3.82285e-07
1.79838e-06
-3.62349e-07
1.7921e-06
-3.4212e-07
1.78505e-06
-3.22045e-07
1.7817e-06
-3.01879e-07
1.77933e-06
-2.81756e-07
1.77663e-06
-2.61618e-07
1.77656e-06
-2.41491e-07
1.77421e-06
-2.21366e-07
1.775e-06
-2.01236e-07
1.77319e-06
-1.81117e-07
1.7741e-06
-1.60987e-07
1.77286e-06
-1.40864e-07
1.77365e-06
-1.20738e-07
1.77275e-06
-1.00615e-07
1.77333e-06
-8.04907e-08
1.77277e-06
-6.03691e-08
1.77313e-06
-4.02449e-08
1.77285e-06
-2.01228e-08
1.77302e-06
-2.66987e-13
1.77293e-06
2.01225e-08
1.77293e-06
4.02445e-08
1.77302e-06
6.03687e-08
1.77285e-06
8.04903e-08
1.77313e-06
1.00615e-07
1.77276e-06
1.20738e-07
1.77333e-06
1.40864e-07
1.77275e-06
1.60987e-07
1.77365e-06
1.81117e-07
1.77286e-06
2.01236e-07
1.7741e-06
2.21366e-07
1.77319e-06
2.41491e-07
1.775e-06
2.61617e-07
1.77423e-06
2.81756e-07
1.77656e-06
3.01879e-07
1.77663e-06
3.22045e-07
1.77932e-06
3.4212e-07
1.78168e-06
3.62349e-07
1.78502e-06
3.82285e-07
1.79208e-06
4.02564e-07
1.79835e-06
4.22187e-07
1.81125e-06
4.42177e-07
1.83129e-06
4.61433e-07
1.8307e-06
4.80272e-07
1.89275e-06
1.85352e-06
-4.84704e-07
1.83588e-06
-4.65606e-07
1.87366e-06
-4.46139e-07
1.81126e-06
-4.25929e-07
1.8111e-06
-4.06116e-07
1.79143e-06
-3.85641e-07
1.77791e-06
-3.65523e-07
1.77198e-06
-3.45109e-07
1.76463e-06
-3.24856e-07
1.76145e-06
-3.04512e-07
1.75897e-06
-2.84212e-07
1.75632e-06
-2.63897e-07
1.75625e-06
-2.43594e-07
1.7539e-06
-2.23293e-07
1.75469e-06
-2.02988e-07
1.75287e-06
-1.82693e-07
1.75381e-06
-1.62388e-07
1.75255e-06
-1.4209e-07
1.75335e-06
-1.21789e-07
1.75244e-06
-1.01491e-07
1.75303e-06
-8.1191e-08
1.75247e-06
-6.08942e-08
1.75283e-06
-4.0595e-08
1.75254e-06
-2.02978e-08
1.75271e-06
-2.54501e-13
1.75262e-06
2.02976e-08
1.75262e-06
4.05946e-08
1.75271e-06
6.08939e-08
1.75254e-06
8.11905e-08
1.75283e-06
1.01491e-07
1.75246e-06
1.21788e-07
1.75303e-06
1.4209e-07
1.75244e-06
1.62388e-07
1.75335e-06
1.82693e-07
1.75255e-06
2.02988e-07
1.75381e-06
2.23293e-07
1.75288e-06
2.43594e-07
1.75469e-06
2.63896e-07
1.75392e-06
2.84211e-07
1.75625e-06
3.04511e-07
1.75632e-06
3.24855e-07
1.75896e-06
3.45109e-07
1.76143e-06
3.65523e-07
1.76461e-06
3.85642e-07
1.77197e-06
4.06118e-07
1.77788e-06
4.2593e-07
1.79144e-06
4.4614e-07
1.81108e-06
4.65607e-07
1.81124e-06
4.84705e-07
1.87365e-06
1.83587e-06
-4.89191e-07
1.81798e-06
-4.69834e-07
1.85431e-06
-4.50154e-07
1.79159e-06
-4.29723e-07
1.79068e-06
-4.09719e-07
1.77143e-06
-3.89045e-07
1.75723e-06
-3.68742e-07
1.75168e-06
-3.48142e-07
1.74403e-06
-3.27706e-07
1.74101e-06
-3.07181e-07
1.73843e-06
-2.86701e-07
1.73583e-06
-2.66208e-07
1.73575e-06
-2.45726e-07
1.73342e-06
-2.25247e-07
1.7342e-06
-2.04763e-07
1.73239e-06
-1.84291e-07
1.73334e-06
-1.63808e-07
1.73206e-06
-1.43332e-07
1.73287e-06
-1.22854e-07
1.73196e-06
-1.02378e-07
1.73254e-06
-8.19008e-08
1.73198e-06
-6.14265e-08
1.73235e-06
-4.09499e-08
1.73205e-06
-2.04752e-08
1.73223e-06