/*--------------------------------*- C++ -*----------------------------------*\
| =========                 |                                                 |
| \\      /  F ield         | OpenFOAM: The Open Source CFD Toolbox           |
|  \\    /   O peration     | Version:  dev                                   |
|   \\  /    A nd           | Web:      www.OpenFOAM.org                      |
|    \\/     M anipulation  |                                                 |
\*---------------------------------------------------------------------------*/
FoamFile
{
    version     2.0;
    format      ascii;
    class       volScalarField;
    location    "0.065";
    object      T;
}
// * * * * * * * * * * * * * * * * * * * * * * * * * * * * * * * * * * * * * //

dimensions      [0 0 0 1 0 0 0];

internalField   nonuniform List<scalar> 
25
(
1988.17
1970.13
1952.12
1933.81
1915.19
1896.27
1877.04
1857.39
1837.47
1817.19
1796.55
1775.54
1754.16
1732.38
1710.2
1687.6
1664.58
1641.12
1617.22
1592.85
1568
1542.65
1516.77
1490.35
1463.37
)
;

boundaryField
{
    wall
    {
        type            zeroGradient;
    }
    fuel
    {
        type            fixedValue;
        value           nonuniform 0();
    }
    outlet
    {
        type            inletOutlet;
        inletValue      nonuniform 0();
        value           nonuniform 0();
    }
    procBoundary2to1
    {
        type            processor;
        value           uniform 2005.59;
    }
    procBoundary2to3
    {
        type            processor;
        value           uniform 1435.82;
    }
}


// ************************************************************************* //
