/*--------------------------------*- C++ -*----------------------------------*\
| =========                 |                                                 |
| \\      /  F ield         | OpenFOAM: The Open Source CFD Toolbox           |
|  \\    /   O peration     | Version:  dev                                   |
|   \\  /    A nd           | Web:      www.OpenFOAM.org                      |
|    \\/     M anipulation  |                                                 |
\*---------------------------------------------------------------------------*/
FoamFile
{
    version     2.0;
    format      ascii;
    class       volScalarField;
    location    "0.085";
    object      A1;
}
// * * * * * * * * * * * * * * * * * * * * * * * * * * * * * * * * * * * * * //

dimensions      [0 0 0 0 0 0 0];

internalField   nonuniform List<scalar> 
100
(
4.517e-09
1.42592e-08
2.2088e-08
2.58124e-08
2.50315e-08
2.10457e-08
1.59806e-08
1.14564e-08
7.9987e-09
5.57088e-09
3.9483e-09
2.88937e-09
2.20806e-09
1.78273e-09
1.5311e-09
1.40513e-09
1.37759e-09
1.43422e-09
1.56818e-09
1.77635e-09
2.05679e-09
2.40718e-09
2.82365e-09
3.30104e-09
3.83264e-09
4.41065e-09
5.02643e-09
5.67115e-09
6.33624e-09
7.01372e-09
7.69658e-09
8.37863e-09
9.05482e-09
9.72103e-09
1.03741e-08
1.10126e-08
1.16328e-08
1.22343e-08
1.28162e-08
1.33779e-08
1.39236e-08
1.44442e-08
1.49441e-08
1.54262e-08
1.58842e-08
1.6321e-08
1.6738e-08
1.71312e-08
1.7506e-08
1.78553e-08
1.81828e-08
1.84881e-08
1.87707e-08
1.90322e-08
1.92711e-08
1.94849e-08
1.96695e-08
1.9829e-08
1.99641e-08
2.00695e-08
2.01479e-08
2.01988e-08
2.0222e-08
2.02172e-08
2.01838e-08
2.01215e-08
2.00293e-08
1.99082e-08
1.97573e-08
1.95732e-08
1.93613e-08
1.91182e-08
1.88438e-08
1.85376e-08
1.8199e-08
1.78272e-08
1.74212e-08
1.69815e-08
1.65081e-08
1.59879e-08
1.54594e-08
1.48988e-08
1.43093e-08
1.36799e-08
1.30378e-08
1.23691e-08
1.16762e-08
1.09609e-08
1.02229e-08
9.45961e-09
8.65922e-09
7.83234e-09
6.98639e-09
6.10439e-09
5.27037e-09
4.36486e-09
3.45428e-09
2.45089e-09
1.48313e-09
6.9367e-10
)
;

boundaryField
{
    wall
    {
        type            zeroGradient;
    }
    fuel
    {
        type            fixedValue;
        value           uniform 0;
    }
    outlet
    {
        type            inletOutlet;
        inletValue      uniform 0;
        value           uniform 6.9367e-10;
    }
}


// ************************************************************************* //
