/*--------------------------------*- C++ -*----------------------------------*\
| =========                 |                                                 |
| \\      /  F ield         | OpenFOAM: The Open Source CFD Toolbox           |
|  \\    /   O peration     | Version:  dev                                   |
|   \\  /    A nd           | Web:      www.OpenFOAM.org                      |
|    \\/     M anipulation  |                                                 |
\*---------------------------------------------------------------------------*/
FoamFile
{
    version     2.0;
    format      ascii;
    class       volScalarField;
    location    "0.085";
    object      C2H;
}
// * * * * * * * * * * * * * * * * * * * * * * * * * * * * * * * * * * * * * //

dimensions      [0 0 0 0 0 0 0];

internalField   nonuniform List<scalar> 
100
(
5.32396e-06
1.0257e-05
1.15492e-05
1.10421e-05
9.62191e-06
7.84914e-06
6.09362e-06
4.57826e-06
3.36595e-06
2.44619e-06
1.77267e-06
1.28731e-06
9.39909e-07
6.93716e-07
5.18264e-07
3.92354e-07
3.00988e-07
2.3374e-07
1.83438e-07
1.45182e-07
1.15628e-07
9.24818e-08
7.41649e-08
5.9553e-08
4.78352e-08
3.84039e-08
3.07962e-08
2.46646e-08
1.97244e-08
1.57474e-08
1.25494e-08
9.98109e-09
7.92139e-09
6.27212e-09
4.95379e-09
3.90037e-09
3.06331e-09
2.39805e-09
1.86989e-09
1.45309e-09
1.12247e-09
8.65152e-10
6.63953e-10
5.06366e-10
3.84888e-10
2.91126e-10
2.18807e-10
1.63795e-10
1.21599e-10
8.99717e-11
6.61445e-11
4.82452e-11
3.49515e-11
2.50659e-11
1.77883e-11
1.25086e-11
8.77302e-12
6.09254e-12
4.16733e-12
2.84311e-12
1.92018e-12
1.28323e-12
8.47856e-13
5.52008e-13
3.54659e-13
2.24642e-13
1.3961e-13
8.56184e-14
5.16587e-14
3.03749e-14
1.76493e-14
1.0057e-14
5.61678e-15
3.07328e-15
1.64745e-15
8.65967e-16
4.44052e-16
2.24098e-16
1.12044e-16
5.56307e-17
2.98994e-17
1.80341e-17
1.29405e-17
1.10698e-17
1.0783e-17
1.12424e-17
1.20768e-17
1.31092e-17
1.42351e-17
1.53661e-17
1.64273e-17
1.73021e-17
1.79026e-17
1.80997e-17
1.77826e-17
1.67564e-17
1.49171e-17
1.19127e-17
7.99963e-18
4.01233e-18
)
;

boundaryField
{
    wall
    {
        type            zeroGradient;
    }
    fuel
    {
        type            fixedValue;
        value           uniform 0;
    }
    outlet
    {
        type            inletOutlet;
        inletValue      uniform 0;
        value           uniform 4.01233e-18;
    }
}


// ************************************************************************* //
