/*--------------------------------*- C++ -*----------------------------------*\
| =========                 |                                                 |
| \\      /  F ield         | OpenFOAM: The Open Source CFD Toolbox           |
|  \\    /   O peration     | Version:  dev                                   |
|   \\  /    A nd           | Web:      www.OpenFOAM.org                      |
|    \\/     M anipulation  |                                                 |
\*---------------------------------------------------------------------------*/
FoamFile
{
    version     2.0;
    format      ascii;
    class       volScalarField;
    location    "0.085";
    object      CH3;
}
// * * * * * * * * * * * * * * * * * * * * * * * * * * * * * * * * * * * * * //

dimensions      [0 0 0 0 0 0 0];

internalField   nonuniform List<scalar> 
100
(
8.91746e-05
0.000165424
0.000188089
0.000186596
0.000173582
0.000155033
0.000134568
0.000114693
9.68363e-05
8.15853e-05
6.89694e-05
5.86544e-05
5.02512e-05
4.34538e-05
3.79137e-05
3.33628e-05
2.95835e-05
2.64044e-05
2.36929e-05
2.13484e-05
1.92955e-05
1.74779e-05
1.58553e-05
1.43969e-05
1.30795e-05
1.18848e-05
1.07986e-05
9.81083e-06
8.91189e-06
8.09355e-06
7.34852e-06
6.6702e-06
6.05264e-06
5.4904e-06
4.97859e-06
4.5119e-06
4.08794e-06
3.70159e-06
3.34944e-06
3.02926e-06
2.73563e-06
2.47073e-06
2.22984e-06
2.00954e-06
1.81066e-06
1.63022e-06
1.46599e-06
1.3181e-06
1.18323e-06
1.06273e-06
9.5398e-07
8.55955e-07
7.68226e-07
6.89329e-07
6.18897e-07
5.56861e-07
5.0365e-07
4.57358e-07
4.17043e-07
3.83546e-07
3.55354e-07
3.31817e-07
3.12197e-07
2.95753e-07
2.81888e-07
2.69928e-07
2.59179e-07
2.4928e-07
2.39725e-07
2.30031e-07
2.20291e-07
2.10232e-07
1.99828e-07
1.89114e-07
1.78172e-07
1.67032e-07
1.55775e-07
1.44581e-07
1.33546e-07
1.22509e-07
1.12359e-07
1.02647e-07
9.34588e-08
8.46587e-08
7.66181e-08
6.91164e-08
6.21576e-08
5.56952e-08
4.96746e-08
4.40851e-08
3.88033e-08
3.38504e-08
2.92158e-08
2.47837e-08
2.0905e-08
1.69737e-08
1.3237e-08
9.28692e-09
5.58204e-09
2.60311e-09
)
;

boundaryField
{
    wall
    {
        type            zeroGradient;
    }
    fuel
    {
        type            fixedValue;
        value           uniform 0;
    }
    outlet
    {
        type            inletOutlet;
        inletValue      uniform 0;
        value           uniform 2.60311e-09;
    }
}


// ************************************************************************* //
