/*--------------------------------*- C++ -*----------------------------------*\
| =========                 |                                                 |
| \\      /  F ield         | OpenFOAM: The Open Source CFD Toolbox           |
|  \\    /   O peration     | Version:  dev                                   |
|   \\  /    A nd           | Web:      www.OpenFOAM.org                      |
|    \\/     M anipulation  |                                                 |
\*---------------------------------------------------------------------------*/
FoamFile
{
    version     2.0;
    format      ascii;
    class       volScalarField;
    location    "0.095";
    object      A1C2H3*;
}
// * * * * * * * * * * * * * * * * * * * * * * * * * * * * * * * * * * * * * //

dimensions      [0 0 0 0 0 0 0];

internalField   nonuniform List<scalar> 
12
(
5.68567e-13
6.16491e-13
6.56766e-13
6.87403e-13
7.07073e-13
7.14367e-13
7.09253e-13
6.9208e-13
6.63781e-13
6.25796e-13
5.79952e-13
5.28324e-13
)
;

boundaryField
{
    wall
    {
        type            zeroGradient;
    }
    fuel
    {
        type            fixedValue;
        value           nonuniform 0();
    }
    outlet
    {
        type            inletOutlet;
        inletValue      nonuniform 0();
        value           nonuniform 0();
    }
    procBoundary4to3
    {
        type            processor;
        value           uniform 5.15298e-13;
    }
    procBoundary4to5
    {
        type            processor;
        value           uniform 4.73083e-13;
    }
}


// ************************************************************************* //
