/*--------------------------------*- C++ -*----------------------------------*\
| =========                 |                                                 |
| \\      /  F ield         | OpenFOAM: The Open Source CFD Toolbox           |
|  \\    /   O peration     | Version:  dev                                   |
|   \\  /    A nd           | Web:      www.OpenFOAM.org                      |
|    \\/     M anipulation  |                                                 |
\*---------------------------------------------------------------------------*/
FoamFile
{
    version     2.0;
    format      ascii;
    class       volScalarField;
    location    "0.095";
    object      C;
}
// * * * * * * * * * * * * * * * * * * * * * * * * * * * * * * * * * * * * * //

dimensions      [0 0 0 0 0 0 0];

internalField   nonuniform List<scalar> 
1997
(
1.73504e-09
1.7383e-09
1.73235e-09
1.72862e-09
1.722e-09
1.71816e-09
1.71374e-09
1.71072e-09
1.70812e-09
1.70646e-09
1.70498e-09
1.70411e-09
1.70325e-09
1.70281e-09
1.7023e-09
1.70209e-09
1.70179e-09
1.70171e-09
1.64597e-09
1.64866e-09
1.64227e-09
1.63826e-09
1.63148e-09
1.62752e-09
1.62312e-09
1.6201e-09
1.61754e-09
1.61589e-09
1.61444e-09
1.61359e-09
1.61274e-09
1.61231e-09
1.6118e-09
1.6116e-09
1.61131e-09
1.61122e-09
1.61105e-09
1.61102e-09
1.61092e-09
1.61091e-09
1.61086e-09
1.61086e-09
1.61084e-09
1.61084e-09
1.61086e-09
1.61086e-09
1.55804e-09
1.56017e-09
1.55338e-09
1.54914e-09
1.5422e-09
1.53816e-09
1.53379e-09
1.53078e-09
1.52826e-09
1.52664e-09
1.52522e-09
1.52438e-09
1.52355e-09
1.52313e-09
1.52264e-09
1.52244e-09
1.52215e-09
1.52207e-09
1.5219e-09
1.52187e-09
1.52177e-09
1.52176e-09
1.52171e-09
1.52171e-09
1.52169e-09
1.52169e-09
1.52171e-09
1.52171e-09
1.52176e-09
1.52177e-09
1.52187e-09
1.5219e-09
1.52207e-09
1.52215e-09
1.52244e-09
1.52264e-09
1.52313e-09
1.52356e-09
1.52439e-09
1.52523e-09
1.4714e-09
1.473e-09
1.46586e-09
1.46142e-09
1.45434e-09
1.45025e-09
1.44594e-09
1.44294e-09
1.44047e-09
1.43888e-09
1.43749e-09
1.43667e-09
1.43586e-09
1.43545e-09
1.43497e-09
1.43478e-09
1.43449e-09
1.43442e-09
1.43425e-09
1.43422e-09
1.43412e-09
1.43412e-09
1.43407e-09
1.43407e-09
1.43405e-09
1.43405e-09
1.43406e-09
1.43407e-09
1.43412e-09
1.43412e-09
1.43422e-09
1.43425e-09
1.43442e-09
1.4345e-09
1.43478e-09
1.43497e-09
1.43546e-09
1.43587e-09
1.43668e-09
1.4375e-09
1.43888e-09
1.44047e-09
1.44294e-09
1.44593e-09
1.45026e-09
1.45433e-09
1.46141e-09
1.46585e-09
1.47299e-09
1.47137e-09
1.38625e-09
1.38734e-09
1.37989e-09
1.37528e-09
1.36809e-09
1.36399e-09
1.35974e-09
1.35676e-09
1.35435e-09
1.35279e-09
1.35144e-09
1.35064e-09
1.34986e-09
1.34945e-09
1.34899e-09
1.3488e-09
1.34852e-09
1.34845e-09
1.34828e-09
1.34826e-09
1.34816e-09
1.34816e-09
1.34811e-09
1.34811e-09
1.34809e-09
1.34809e-09
1.34811e-09
1.34811e-09
1.34816e-09
1.34816e-09
1.34826e-09
1.34829e-09
1.34845e-09
1.34853e-09
1.3488e-09
1.34899e-09
1.34946e-09
1.34986e-09
1.35065e-09
1.35145e-09
1.35279e-09
1.35435e-09
1.35676e-09
1.35973e-09
1.364e-09
1.36809e-09
1.37527e-09
1.37988e-09
1.38732e-09
1.38622e-09
1.30141e-09
1.30218e-09
1.29445e-09
1.28964e-09
1.28215e-09
1.27802e-09
1.27375e-09
1.27074e-09
1.26836e-09
1.26681e-09
1.26549e-09
1.2647e-09
1.26392e-09
1.26353e-09
1.26307e-09
1.26289e-09
1.26261e-09
1.26254e-09
1.26238e-09
1.26235e-09
1.26226e-09
1.26225e-09
1.2622e-09
1.2622e-09
1.26219e-09
1.26219e-09
1.2622e-09
1.2622e-09
1.26225e-09
1.26226e-09
1.26235e-09
1.26238e-09
1.26254e-09
1.26262e-09
1.26289e-09
1.26307e-09
1.26353e-09
1.26393e-09
1.2647e-09
1.26549e-09
1.26681e-09
1.26836e-09
1.27074e-09
1.27374e-09
1.27803e-09
1.28215e-09
1.28963e-09
1.29445e-09
1.30217e-09
1.30138e-09
1.21967e-09
1.21999e-09
1.21205e-09
1.20712e-09
1.19961e-09
1.1955e-09
1.19132e-09
1.18834e-09
1.18603e-09
1.18452e-09
1.18325e-09
1.18248e-09
1.18173e-09
1.18135e-09
1.18091e-09
1.18073e-09
1.18047e-09
1.18039e-09
1.18024e-09
1.18021e-09
1.18012e-09
1.18012e-09
1.18007e-09
1.18007e-09
1.18005e-09
1.18005e-09
1.18007e-09
1.18007e-09
1.18012e-09
1.18012e-09
1.18021e-09
1.18024e-09
1.1804e-09
1.18047e-09
1.18073e-09
1.18091e-09
1.18136e-09
1.18174e-09
1.18249e-09
1.18325e-09
1.18453e-09
1.18603e-09
1.18834e-09
1.19131e-09
1.19551e-09
1.19961e-09
1.20712e-09
1.21204e-09
1.21998e-09
1.21965e-09
1.13993e-09
1.13983e-09
1.13173e-09
1.12671e-09
1.11923e-09
1.11515e-09
1.11102e-09
1.10796e-09
1.10565e-09
1.10414e-09
1.10287e-09
1.10211e-09
1.10137e-09
1.101e-09
1.10055e-09
1.10038e-09
1.10012e-09
1.10005e-09
1.09989e-09
1.09987e-09
1.09978e-09
1.09977e-09
1.09972e-09
1.09972e-09
1.09971e-09
1.09971e-09
1.09972e-09
1.09972e-09
1.09977e-09
1.09978e-09
1.09987e-09
1.09989e-09
1.10005e-09
1.10012e-09
1.10038e-09
1.10056e-09
1.101e-09
1.10138e-09
1.10212e-09
1.10288e-09
1.10414e-09
1.10565e-09
1.10796e-09
1.111e-09
1.11517e-09
1.11923e-09
1.12671e-09
1.13172e-09
1.13982e-09
1.13991e-09
1.06237e-09
1.06188e-09
1.05366e-09
1.04859e-09
1.04118e-09
1.03715e-09
1.03314e-09
1.03011e-09
1.02788e-09
1.02643e-09
1.02521e-09
1.02448e-09
1.02377e-09
1.0234e-09
1.02298e-09
1.02281e-09
1.02256e-09
1.02249e-09
1.02234e-09
1.02232e-09
1.02223e-09
1.02223e-09
1.02218e-09
1.02218e-09
1.02217e-09
1.02217e-09
1.02218e-09
1.02218e-09
1.02223e-09
1.02223e-09
1.02232e-09
1.02234e-09
1.02249e-09
1.02256e-09
1.02282e-09
1.02298e-09
1.02341e-09
1.02377e-09
1.02448e-09
1.02521e-09
1.02643e-09
1.02789e-09
1.03011e-09
1.03311e-09
1.03717e-09
1.04119e-09
1.04858e-09
1.05365e-09
1.06186e-09
1.06235e-09
9.86004e-10
9.85334e-10
9.77018e-10
9.71873e-10
9.64441e-10
9.60431e-10
9.56478e-10
9.53425e-10
9.51248e-10
9.4982e-10
9.4864e-10
9.47931e-10
9.47238e-10
9.46887e-10
9.46473e-10
9.46313e-10
9.46066e-10
9.46001e-10
9.45854e-10
9.45833e-10
9.45748e-10
9.45744e-10
9.45699e-10
9.457e-10
9.45685e-10
9.45685e-10
9.45699e-10
9.45698e-10
9.45744e-10
9.45748e-10
9.45834e-10
9.45855e-10
9.46003e-10
9.46068e-10
9.46316e-10
9.46477e-10
9.46892e-10
9.47243e-10
9.47936e-10
9.48645e-10
9.49824e-10
9.5125e-10
9.5342e-10
9.56448e-10
9.60452e-10
9.64445e-10
9.71867e-10
9.77009e-10
9.85323e-10
9.85984e-10
9.10972e-10
9.09914e-10
9.01633e-10
8.96466e-10
8.8925e-10
8.85312e-10
8.81526e-10
8.78504e-10
8.76432e-10
8.75062e-10
8.73945e-10
8.73267e-10
8.7261e-10
8.72275e-10
8.71882e-10
8.71729e-10
8.71494e-10
8.71432e-10
8.71293e-10
8.71272e-10
8.71191e-10
8.71187e-10
8.71144e-10
8.71145e-10
8.71131e-10
8.71131e-10
8.71145e-10
8.71144e-10
8.71187e-10
8.71191e-10
8.71273e-10
8.71294e-10
8.71433e-10
8.71496e-10
8.71732e-10
8.71886e-10
8.72279e-10
8.72615e-10
8.73272e-10
8.73949e-10
8.75066e-10
8.76434e-10
8.78499e-10
8.81494e-10
8.85333e-10
8.89254e-10
8.96461e-10
9.01625e-10
9.09904e-10
9.10953e-10
8.40777e-10
8.39436e-10
8.31186e-10
8.26031e-10
8.19053e-10
8.15189e-10
8.11572e-10
8.08573e-10
8.06604e-10
8.05294e-10
8.04235e-10
8.0359e-10
8.02967e-10
8.02648e-10
8.02275e-10
8.02129e-10
8.01906e-10
8.01847e-10
8.01714e-10
8.01695e-10
8.01618e-10
8.01614e-10
8.01574e-10
8.01574e-10
8.01561e-10
8.01561e-10
8.01574e-10
8.01573e-10
8.01614e-10
8.01618e-10
8.01696e-10
8.01715e-10
8.01848e-10
8.01908e-10
8.02132e-10
8.02278e-10
8.02652e-10
8.02971e-10
8.03595e-10
8.04239e-10
8.05297e-10
8.06606e-10
8.08567e-10
8.1154e-10
8.15209e-10
8.19057e-10
8.26026e-10
8.31178e-10
8.39427e-10
8.4076e-10
7.73377e-10
7.71789e-10
7.63614e-10
7.58496e-10
7.51798e-10
7.48019e-10
7.44587e-10
7.41604e-10
7.39744e-10
7.38495e-10
7.37497e-10
7.36886e-10
7.36297e-10
7.35996e-10
7.35643e-10
7.35505e-10
7.35293e-10
7.35238e-10
7.35112e-10
7.35094e-10
7.35021e-10
7.35018e-10
7.34979e-10
7.3498e-10
7.34967e-10
7.34967e-10
7.3498e-10
7.34979e-10
7.35018e-10
7.35021e-10
7.35094e-10
7.35113e-10
7.35239e-10
7.35295e-10
7.35508e-10
7.35646e-10
7.36e-10
7.36301e-10
7.36891e-10
7.375e-10
7.38499e-10
7.39746e-10
7.41598e-10
7.44556e-10
7.48039e-10
7.51802e-10
7.58491e-10
7.63607e-10
7.71781e-10
7.73361e-10
7.08897e-10
7.07101e-10
6.99045e-10
6.93989e-10
6.87606e-10
6.83922e-10
6.80677e-10
6.77727e-10
6.75969e-10
6.74784e-10
6.73847e-10
6.73272e-10
6.72717e-10
6.72435e-10
6.72101e-10
6.71972e-10
6.71772e-10
6.7172e-10
6.71601e-10
6.71584e-10
6.71515e-10
6.71513e-10
6.71476e-10
6.71477e-10
6.71465e-10
6.71465e-10
6.71477e-10
6.71476e-10
6.71513e-10
6.71515e-10
6.71585e-10
6.71602e-10
6.71722e-10
6.71774e-10
6.71975e-10
6.72104e-10
6.72438e-10
6.72721e-10
6.73276e-10
6.73851e-10
6.74787e-10
6.7597e-10
6.77721e-10
6.80649e-10
6.83942e-10
6.87609e-10
6.93984e-10
6.99038e-10
7.07093e-10
7.08882e-10
6.46211e-10
6.442e-10
6.36202e-10
6.31143e-10
6.25034e-10
6.2141e-10
6.18327e-10
6.15387e-10
6.1371e-10
6.12579e-10
6.11698e-10
6.11153e-10
6.1063e-10
6.10362e-10
6.10046e-10
6.09924e-10
6.09735e-10
6.09686e-10
6.09573e-10
6.09557e-10
6.09492e-10
6.09489e-10
6.09455e-10
6.09455e-10
6.09444e-10
6.09444e-10
6.09455e-10
6.09454e-10
6.09489e-10
6.09492e-10
6.09558e-10
6.09574e-10
6.09687e-10
6.09736e-10
6.09926e-10
6.10049e-10
6.10365e-10
6.10633e-10
6.11157e-10
6.11701e-10
6.12582e-10
6.13712e-10
6.15382e-10
6.18303e-10
6.21428e-10
6.25036e-10
6.31138e-10
6.36195e-10
6.44193e-10
6.46198e-10
5.86105e-10
5.83907e-10
5.76165e-10
5.71208e-10
5.65484e-10
5.61993e-10
5.59128e-10
5.56205e-10
5.54639e-10
5.53578e-10
5.52765e-10
5.52258e-10
5.51773e-10
5.51523e-10
5.51231e-10
5.51117e-10
5.50941e-10
5.50895e-10
5.5079e-10
5.50775e-10
5.50714e-10
5.50712e-10
5.5068e-10
5.50681e-10
5.5067e-10
5.5067e-10
5.50681e-10
5.5068e-10
5.50712e-10
5.50714e-10
5.50776e-10
5.50791e-10
5.50896e-10
5.50942e-10
5.51119e-10
5.51233e-10
5.51526e-10
5.51776e-10
5.52261e-10
5.52768e-10
5.53581e-10
5.5464e-10
5.562e-10
5.59109e-10
5.6201e-10
5.65486e-10
5.71204e-10
5.76158e-10
5.839e-10
5.86093e-10
5.29262e-10
5.26912e-10
5.19465e-10
5.14644e-10
5.09297e-10
5.05963e-10
5.03329e-10
5.01989e-10
5.00532e-10
4.9954e-10
4.98791e-10
4.9832e-10
4.97872e-10
4.9764e-10
4.97369e-10
4.97264e-10
4.971e-10
4.97057e-10
4.9696e-10
4.96946e-10
4.9689e-10
4.96888e-10
4.96858e-10
4.96859e-10
4.96849e-10
4.96849e-10
4.96859e-10
4.96858e-10
4.96888e-10
4.9689e-10
4.96947e-10
4.96961e-10
4.97058e-10
4.97101e-10
4.97265e-10
4.97371e-10
4.97643e-10
4.97875e-10
4.98323e-10
4.98794e-10
4.99542e-10
5.00534e-10
5.01984e-10
5.03316e-10
5.05979e-10
5.09299e-10
5.1464e-10
5.19459e-10
5.26906e-10
5.29251e-10
4.77288e-10
4.74861e-10
4.67682e-10
4.63027e-10
4.58024e-10
4.54853e-10
4.5243e-10
4.51109e-10
4.49705e-10
4.48753e-10
4.48047e-10
4.47602e-10
4.47175e-10
4.46958e-10
4.46699e-10
4.46601e-10
4.46444e-10
4.46406e-10
4.46312e-10
4.463e-10
4.46246e-10
4.46245e-10
4.46216e-10
4.46217e-10
4.46208e-10
4.46208e-10
4.46217e-10
4.46216e-10
4.46245e-10
4.46246e-10
4.46301e-10
4.46312e-10
4.46406e-10
4.46445e-10
4.46602e-10
4.46701e-10
4.4696e-10
4.47178e-10
4.47605e-10
4.4805e-10
4.48754e-10
4.49706e-10
4.51104e-10
4.5242e-10
4.54868e-10
4.58025e-10
4.63022e-10
4.67676e-10
4.74856e-10
4.77278e-10
4.28613e-10
4.26138e-10
4.1922e-10
4.1478e-10
4.10115e-10
4.07122e-10
4.04899e-10
4.03626e-10
4.02327e-10
4.01445e-10
4.00801e-10
4.00392e-10
4e-10
3.998e-10
3.99562e-10
3.99473e-10
3.99328e-10
3.99293e-10
3.99206e-10
3.99196e-10
3.99146e-10
3.99145e-10
3.99118e-10
3.9912e-10
3.99111e-10
3.99111e-10
3.99119e-10
3.99118e-10
3.99145e-10
3.99146e-10
3.99196e-10
3.99207e-10
3.99294e-10
3.99329e-10
3.99474e-10
3.99564e-10
3.99803e-10
4.00003e-10
4.00394e-10
4.00803e-10
4.01447e-10
4.02328e-10
4.03622e-10
4.04893e-10
4.07135e-10
4.10116e-10
4.14776e-10
4.19214e-10
4.26134e-10
4.28605e-10
3.82112e-10
3.79628e-10
3.72869e-10
3.68748e-10
3.64396e-10
3.61571e-10
3.59529e-10
3.58307e-10
3.57106e-10
3.56289e-10
3.557e-10
3.55324e-10
3.54965e-10
3.54782e-10
3.54563e-10
3.54481e-10
3.54348e-10
3.54316e-10
3.54236e-10
3.54227e-10
3.54181e-10
3.5418e-10
3.54155e-10
3.54157e-10
3.54149e-10
3.54148e-10
3.54156e-10
3.54155e-10
3.5418e-10
3.5418e-10
3.54227e-10
3.54237e-10
3.54317e-10
3.54349e-10
3.54482e-10
3.54565e-10
3.54784e-10
3.54968e-10
3.55327e-10
3.55702e-10
3.5629e-10
3.57106e-10
3.58304e-10
3.59525e-10
3.61583e-10
3.64397e-10
3.68745e-10
3.72864e-10
3.79622e-10
3.82105e-10
3.3878e-10
3.3627e-10
3.30639e-10
3.27164e-10
3.2313e-10
3.20506e-10
3.18646e-10
3.17489e-10
3.16397e-10
3.15646e-10
3.15114e-10
3.14773e-10
3.14447e-10
3.14281e-10
3.14082e-10
3.14008e-10
3.13887e-10
3.13858e-10
3.13786e-10
3.13777e-10
3.13735e-10
3.13735e-10
3.13712e-10
3.13714e-10
3.13706e-10
3.13706e-10
3.13713e-10
3.13712e-10
3.13735e-10
3.13735e-10
3.13778e-10
3.13786e-10
3.13859e-10
3.13888e-10
3.1401e-10
3.14084e-10
3.14283e-10
3.1445e-10
3.14775e-10
3.15115e-10
3.15647e-10
3.16398e-10
3.17487e-10
3.18643e-10
3.20517e-10
3.23131e-10
3.27161e-10
3.30634e-10
3.36265e-10
3.38773e-10
2.99903e-10
2.97404e-10
2.91982e-10
2.88877e-10
2.85144e-10
2.82732e-10
2.81043e-10
2.7996e-10
2.78972e-10
2.78289e-10
2.77808e-10
2.77491e-10
2.77188e-10
2.77034e-10
2.76848e-10
2.7678e-10
2.76666e-10
2.7664e-10
2.76572e-10
2.76565e-10
2.76525e-10
2.76525e-10
2.76504e-10
2.76505e-10
2.76498e-10
2.76498e-10
2.76505e-10
2.76503e-10
2.76525e-10
2.76525e-10
2.76565e-10
2.76572e-10
2.76641e-10
2.76667e-10
2.76781e-10
2.76849e-10
2.77035e-10
2.7719e-10
2.77492e-10
2.77809e-10
2.7829e-10
2.78973e-10
2.79958e-10
2.81042e-10
2.82741e-10
2.85144e-10
2.88873e-10
2.91978e-10
2.97401e-10
2.99897e-10
2.63614e-10
2.60984e-10
2.55834e-10
2.52994e-10
2.49536e-10
2.47328e-10
2.45798e-10
2.44795e-10
2.43905e-10
2.43287e-10
2.42853e-10
2.42567e-10
2.42295e-10
2.42156e-10
2.41989e-10
2.41927e-10
2.41825e-10
2.41801e-10
2.4174e-10
2.41733e-10
2.41698e-10
2.41698e-10
2.41679e-10
2.4168e-10
2.41673e-10
2.41673e-10
2.4168e-10
2.41678e-10
2.41697e-10
2.41697e-10
2.41733e-10
2.4174e-10
2.41802e-10
2.41826e-10
2.41928e-10
2.4199e-10
2.42158e-10
2.42297e-10
2.42569e-10
2.42854e-10
2.43288e-10
2.43906e-10
2.44794e-10
2.45797e-10
2.47335e-10
2.49535e-10
2.5299e-10
2.5583e-10
2.60982e-10
2.63609e-10
2.30127e-10
2.28435e-10
2.23625e-10
2.21026e-10
2.17873e-10
2.15859e-10
2.14485e-10
2.13566e-10
2.12773e-10
2.12223e-10
2.11833e-10
2.11578e-10
2.11336e-10
2.11213e-10
2.11063e-10
2.11009e-10
2.10917e-10
2.10897e-10
2.10841e-10
2.10836e-10
2.10803e-10
2.10804e-10
2.10787e-10
2.10788e-10
2.10782e-10
2.10782e-10
2.10788e-10
2.10786e-10
2.10803e-10
2.10803e-10
2.10836e-10
2.10841e-10
2.10897e-10
2.10918e-10
2.1101e-10
2.11064e-10
2.11214e-10
2.11338e-10
2.1158e-10
2.11834e-10
2.12224e-10
2.12773e-10
2.13564e-10
2.14484e-10
2.15865e-10
2.17872e-10
2.21022e-10
2.23622e-10
2.28432e-10
2.30123e-10
2.00556e-10
1.98914e-10
1.94443e-10
1.9207e-10
1.89228e-10
1.87396e-10
1.86176e-10
1.85338e-10
1.84618e-10
1.84113e-10
1.83751e-10
1.83518e-10
1.83297e-10
1.83183e-10
1.83046e-10
1.82997e-10
1.82913e-10
1.82894e-10
1.82843e-10
1.82838e-10
1.82808e-10
1.82808e-10
1.82793e-10
1.82794e-10
1.82788e-10
1.82788e-10
1.82794e-10
1.82792e-10
1.82808e-10
1.82808e-10
1.82838e-10
1.82843e-10
1.82894e-10
1.82913e-10
1.82998e-10
1.83047e-10
1.83185e-10
1.83298e-10
1.83519e-10
1.83753e-10
1.84113e-10
1.84619e-10
1.85337e-10
1.86176e-10
1.87401e-10
1.89227e-10
1.92066e-10
1.9444e-10
1.98912e-10
2.00551e-10
1.73415e-10
1.71785e-10
1.67598e-10
1.65418e-10
1.6287e-10
1.61191e-10
1.60117e-10
1.59351e-10
1.58715e-10
1.58266e-10
1.57945e-10
1.57738e-10
1.57543e-10
1.57442e-10
1.57321e-10
1.57277e-10
1.57203e-10
1.57186e-10
1.5714e-10
1.57136e-10
1.5711e-10
1.5711e-10
1.57096e-10
1.57097e-10
1.57092e-10
1.57092e-10
1.57097e-10
1.57096e-10
1.5711e-10
1.5711e-10
1.57136e-10
1.57141e-10
1.57186e-10
1.57203e-10
1.57278e-10
1.57322e-10
1.57444e-10
1.57544e-10
1.57739e-10
1.57946e-10
1.58267e-10
1.58715e-10
1.5935e-10
1.60116e-10
1.61194e-10
1.62869e-10
1.65414e-10
1.67595e-10
1.71783e-10
1.73411e-10
1.48822e-10
1.4726e-10
1.44043e-10
1.4208e-10
1.39832e-10
1.38317e-10
1.37384e-10
1.36693e-10
1.3614e-10
1.35745e-10
1.35462e-10
1.35281e-10
1.3511e-10
1.35023e-10
1.34916e-10
1.34878e-10
1.34813e-10
1.34798e-10
1.34758e-10
1.34754e-10
1.34731e-10
1.34732e-10
1.34719e-10
1.3472e-10
1.34716e-10
1.34716e-10
1.3472e-10
1.34719e-10
1.34731e-10
1.34731e-10
1.34754e-10
1.34758e-10
1.34798e-10
1.34813e-10
1.34879e-10
1.34917e-10
1.35024e-10
1.35112e-10
1.35282e-10
1.35463e-10
1.35745e-10
1.3614e-10
1.36692e-10
1.37383e-10
1.3832e-10
1.39831e-10
1.42077e-10
1.44041e-10
1.47258e-10
1.48819e-10
1.27491e-10
1.26003e-10
1.22971e-10
1.2114e-10
1.19088e-10
1.17707e-10
1.16885e-10
1.16252e-10
1.15764e-10
1.15413e-10
1.15162e-10
1.15002e-10
1.14852e-10
1.14774e-10
1.1468e-10
1.14647e-10
1.14588e-10
1.14576e-10
1.1454e-10
1.14537e-10
1.14516e-10
1.14517e-10
1.14506e-10
1.14507e-10
1.14503e-10
1.14503e-10
1.14507e-10
1.14506e-10
1.14517e-10
1.14516e-10
1.14537e-10
1.1454e-10
1.14576e-10
1.14589e-10
1.14647e-10
1.14681e-10
1.14775e-10
1.14853e-10
1.15003e-10
1.15163e-10
1.15413e-10
1.15765e-10
1.16252e-10
1.16884e-10
1.17709e-10
1.19087e-10
1.21137e-10
1.22968e-10
1.26001e-10
1.27488e-10
1.08172e-10
1.07193e-10
1.04441e-10
1.02818e-10
1.0101e-10
9.97966e-11
9.9088e-11
9.85286e-11
9.81091e-11
9.78024e-11
9.75854e-11
9.74476e-11
9.73187e-11
9.72516e-11
9.71703e-11
9.71415e-11
9.70909e-11
9.70799e-11
9.70492e-11
9.70465e-11
9.70286e-11
9.7029e-11
9.70194e-11
9.70202e-11
9.7017e-11
9.7017e-11
9.70201e-11
9.70192e-11
9.70288e-11
9.70284e-11
9.70465e-11
9.70493e-11
9.70801e-11
9.70911e-11
9.71418e-11
9.71709e-11
9.72524e-11
9.73196e-11
9.74483e-11
9.75862e-11
9.78024e-11
9.81102e-11
9.85275e-11
9.90867e-11
9.97978e-11
1.01009e-10
1.02815e-10
1.0444e-10
1.07192e-10
1.08169e-10
9.1553e-11
9.06552e-11
8.81661e-11
8.67499e-11
8.51304e-11
8.40371e-11
8.34082e-11
8.29025e-11
8.25368e-11
8.22626e-11
8.20733e-11
8.19514e-11
8.18387e-11
8.178e-11
8.17085e-11
8.16834e-11
8.16388e-11
8.16293e-11
8.16022e-11
8.15999e-11
8.15841e-11
8.15845e-11
8.15761e-11
8.15768e-11
8.1574e-11
8.15739e-11
8.15767e-11
8.15759e-11
8.15843e-11
8.15839e-11
8.15999e-11
8.16023e-11
8.16295e-11
8.1639e-11
8.16837e-11
8.1709e-11
8.17807e-11
8.18395e-11
8.19521e-11
8.2074e-11
8.22626e-11
8.25371e-11
8.2902e-11
8.3407e-11
8.4038e-11
8.51296e-11
8.67478e-11
8.81645e-11
9.06538e-11
9.15508e-11
7.67499e-11
7.59144e-11
7.39715e-11
7.27557e-11
7.13236e-11
7.0379e-11
6.98455e-11
6.94026e-11
6.90933e-11
6.88564e-11
6.86963e-11
6.85918e-11
6.84962e-11
6.84464e-11
6.83853e-11
6.83641e-11
6.83258e-11
6.83179e-11
6.82946e-11
6.82928e-11
6.82791e-11
6.82795e-11
6.82723e-11
6.82729e-11
6.82705e-11
6.82705e-11
6.82729e-11
6.82721e-11
6.82794e-11
6.8279e-11
6.82927e-11
6.82946e-11
6.8318e-11
6.83259e-11
6.83643e-11
6.83857e-11
6.8447e-11
6.84969e-11
6.85924e-11
6.86969e-11
6.88564e-11
6.90934e-11
6.94024e-11
6.98444e-11
7.03796e-11
7.13229e-11
7.2754e-11
7.39703e-11
7.59132e-11
7.6748e-11
6.41448e-11
6.33938e-11
6.16312e-11
6.05516e-11
5.92501e-11
5.84191e-11
5.79615e-11
5.75677e-11
5.73044e-11
5.70977e-11
5.69608e-11
5.68702e-11
5.67887e-11
5.67458e-11
5.66932e-11
5.66751e-11
5.66421e-11
5.66353e-11
5.66152e-11
5.66136e-11
5.66018e-11
5.66022e-11
5.6596e-11
5.65965e-11
5.65945e-11
5.65944e-11
5.65965e-11
5.65958e-11
5.66021e-11
5.66017e-11
5.66136e-11
5.66152e-11
5.66354e-11
5.66422e-11
5.66753e-11
5.66936e-11
5.67463e-11
5.67892e-11
5.68707e-11
5.69613e-11
5.70977e-11
5.73044e-11
5.75676e-11
5.79605e-11
5.84194e-11
5.92496e-11
6.05503e-11
6.16301e-11
6.33927e-11
6.41432e-11
5.30353e-11
5.23559e-11
5.07951e-11
4.98848e-11
4.89991e-11
4.82918e-11
4.79066e-11
4.75674e-11
4.73477e-11
4.71724e-11
4.70573e-11
4.6981e-11
4.69128e-11
4.68768e-11
4.68326e-11
4.68175e-11
4.67896e-11
4.6784e-11
4.67669e-11
4.67657e-11
4.67557e-11
4.67561e-11
4.67508e-11
4.67513e-11
4.67495e-11
4.67495e-11
4.67513e-11
4.67507e-11
4.6756e-11
4.67556e-11
4.67657e-11
4.6767e-11
4.67841e-11
4.67897e-11
4.68176e-11
4.68329e-11
4.68773e-11
4.69133e-11
4.69814e-11
4.70577e-11
4.71724e-11
4.73477e-11
4.75673e-11
4.79058e-11
4.82919e-11
4.89987e-11
4.98837e-11
5.07943e-11
5.2355e-11
5.30339e-11
4.37423e-11
4.31477e-11
4.17753e-11
4.101e-11
4.02615e-11
3.96637e-11
3.93419e-11
3.90521e-11
3.88706e-11
3.87232e-11
3.8627e-11
3.85634e-11
3.85068e-11
3.84769e-11
3.84399e-11
3.84275e-11
3.84041e-11
3.83995e-11
3.83852e-11
3.83842e-11
3.83758e-11
3.83762e-11
3.83718e-11
3.83722e-11
3.83707e-11
3.83707e-11
3.83722e-11
3.83716e-11
3.83761e-11
3.83758e-11
3.83842e-11
3.83852e-11
3.83996e-11
3.84041e-11
3.84276e-11
3.84402e-11
3.84772e-11
3.85072e-11
3.85638e-11
3.86274e-11
3.87233e-11
3.88705e-11
3.90521e-11
3.93413e-11
3.96636e-11
4.02613e-11
4.10092e-11
4.17747e-11
4.3147e-11
4.37411e-11
3.57314e-11
3.52113e-11
3.4132e-11
3.34937e-11
3.28674e-11
3.23656e-11
3.20985e-11
3.18535e-11
3.17049e-11
3.15822e-11
3.15024e-11
3.14499e-11
3.14033e-11
3.13785e-11
3.1348e-11
3.13378e-11
3.13184e-11
3.13147e-11
3.13027e-11
3.1302e-11
3.1295e-11
3.12954e-11
3.12917e-11
3.12921e-11
3.12908e-11
3.12908e-11
3.1292e-11
3.12916e-11
3.12953e-11
3.1295e-11
3.1302e-11
3.13028e-11
3.13147e-11
3.13184e-11
3.13379e-11
3.13482e-11
3.13788e-11
3.14036e-11
3.14502e-11
3.15027e-11
3.15822e-11
3.17049e-11
3.18534e-11
3.2098e-11
3.23655e-11
3.28673e-11
3.3493e-11
3.41315e-11
3.52106e-11
3.57304e-11
2.90759e-11
2.86279e-11
2.77077e-11
2.71735e-11
2.66573e-11
2.62366e-11
2.60172e-11
2.58037e-11
2.56771e-11
2.5571e-11
2.55026e-11
2.54578e-11
2.54179e-11
2.53969e-11
2.53708e-11
2.53622e-11
2.53455e-11
2.53424e-11
2.53321e-11
2.53316e-11
2.53255e-11
2.53259e-11
2.53227e-11
2.5323e-11
2.53219e-11
2.53219e-11
2.5323e-11
2.53226e-11
2.53258e-11
2.53255e-11
2.53315e-11
2.53321e-11
2.53424e-11
2.53455e-11
2.53623e-11
2.53709e-11
2.53971e-11
2.54182e-11
2.5458e-11
2.55029e-11
2.55711e-11
2.5677e-11
2.58036e-11
2.60169e-11
2.62365e-11
2.66572e-11
2.71729e-11
2.77073e-11
2.86274e-11
2.9075e-11
2.3505e-11
2.31201e-11
2.23468e-11
2.19001e-11
2.14793e-11
2.11274e-11
2.09487e-11
2.07719e-11
2.06687e-11
2.05814e-11
2.05252e-11
2.04886e-11
2.04559e-11
2.04388e-11
2.04174e-11
2.04104e-11
2.03967e-11
2.03942e-11
2.03858e-11
2.03853e-11
2.03804e-11
2.03807e-11
2.0378e-11
2.03783e-11
2.03774e-11
2.03774e-11
2.03783e-11
2.03779e-11
2.03806e-11
2.03803e-11
2.03853e-11
2.03858e-11
2.03942e-11
2.03967e-11
2.04105e-11
2.04175e-11
2.0439e-11
2.04561e-11
2.04887e-11
2.05255e-11
2.05815e-11
2.06686e-11
2.07719e-11
2.09484e-11
2.11274e-11
2.14792e-11
2.18997e-11
2.23465e-11
2.31197e-11
2.35042e-11
1.88762e-11
1.85483e-11
1.79047e-11
1.75336e-11
1.71923e-11
1.69018e-11
1.67562e-11
1.66119e-11
1.65282e-11
1.64569e-11
1.64113e-11
1.63815e-11
1.63549e-11
1.63411e-11
1.63236e-11
1.63181e-11
1.63069e-11
1.63049e-11
1.6298e-11
1.62977e-11
1.62937e-11
1.62939e-11
1.62918e-11
1.6292e-11
1.62913e-11
1.62913e-11
1.6292e-11
1.62917e-11
1.62939e-11
1.62936e-11
1.62977e-11
1.6298e-11
1.6305e-11
1.63069e-11
1.63182e-11
1.63238e-11
1.63413e-11
1.63551e-11
1.63816e-11
1.64115e-11
1.6457e-11
1.65281e-11
1.66118e-11
1.67561e-11
1.69017e-11
1.71922e-11
1.75332e-11
1.79044e-11
1.8548e-11
1.88756e-11
1.50591e-11
1.47833e-11
1.42505e-11
1.39449e-11
1.36701e-11
1.3433e-11
1.33149e-11
1.3198e-11
1.31309e-11
1.30729e-11
1.30363e-11
1.30123e-11
1.29907e-11
1.29798e-11
1.29657e-11
1.29613e-11
1.29522e-11
1.29507e-11
1.2945e-11
1.29448e-11
1.29415e-11
1.29418e-11
1.294e-11
1.29402e-11
1.29396e-11
1.29396e-11
1.29402e-11
1.294e-11
1.29417e-11
1.29415e-11
1.29448e-11
1.29451e-11
1.29507e-11
1.29522e-11
1.29613e-11
1.29658e-11
1.29799e-11
1.29909e-11
1.30123e-11
1.30364e-11
1.3073e-11
1.31308e-11
1.3198e-11
1.33148e-11
1.3433e-11
1.367e-11
1.39446e-11
1.42503e-11
1.4783e-11
1.50586e-11
1.19294e-11
1.16909e-11
1.12672e-11
1.1018e-11
1.07987e-11
1.06064e-11
1.05115e-11
1.04177e-11
1.03639e-11
1.03176e-11
1.02883e-11
1.0269e-11
1.02518e-11
1.02432e-11
1.02318e-11
1.02283e-11
1.0221e-11
1.02199e-11
1.02154e-11
1.02152e-11
1.02126e-11
1.02128e-11
1.02113e-11
1.02115e-11
1.0211e-11
1.0211e-11
1.02115e-11
1.02113e-11
1.02127e-11
1.02125e-11
1.02152e-11
1.02154e-11
1.02199e-11
1.02211e-11
1.02284e-11
1.02319e-11
1.02433e-11
1.02519e-11
1.02691e-11
1.02884e-11
1.03177e-11
1.03639e-11
1.04177e-11
1.05114e-11
1.06064e-11
1.07986e-11
1.10178e-11
1.12671e-11
1.16907e-11
1.1929e-11
9.39235e-12
9.19521e-12
8.85017e-12
8.64893e-12
8.47458e-12
8.32134e-12
8.24482e-12
8.17016e-12
8.12777e-12
8.09097e-12
8.06753e-12
8.05225e-12
8.03862e-12
8.03184e-12
8.02279e-12
8.0201e-12
8.01427e-12
8.01338e-12
8.00977e-12
8.00968e-12
8.00755e-12
8.00773e-12
8.00659e-12
8.00674e-12
8.00636e-12
8.00635e-12
8.00673e-12
8.00656e-12
8.00771e-12
8.00753e-12
8.00968e-12
8.00977e-12
8.01339e-12
8.01428e-12
8.02012e-12
8.02285e-12
8.03192e-12
8.03871e-12
8.0523e-12
8.06763e-12
8.09107e-12
8.12775e-12
8.17016e-12
8.24477e-12
8.32132e-12
8.4745e-12
8.64879e-12
8.85007e-12
9.19506e-12
9.39202e-12
7.3476e-12
7.18633e-12
6.90678e-12
6.74589e-12
6.60847e-12
6.48729e-12
6.426e-12
6.36713e-12
6.33398e-12
6.30499e-12
6.28642e-12
)
;

boundaryField
{
    fuel
    {
        type            fixedValue;
        value           nonuniform 0();
    }
    wall
    {
        type            zeroGradient;
    }
    outlet
    {
        type            zeroGradient;
    }
    frontAndBack
    {
        type            empty;
    }
    procBoundary2to0
    {
        type            processor;
        value           nonuniform List<scalar> 
53
(
1.82507e-09
1.82894e-09
1.82347e-09
1.82005e-09
1.81361e-09
1.80991e-09
1.80548e-09
1.80247e-09
1.79984e-09
1.79817e-09
1.79666e-09
1.79579e-09
1.7949e-09
1.79446e-09
1.79394e-09
1.79373e-09
1.79343e-09
1.79334e-09
1.70153e-09
1.70153e-09
1.7015e-09
1.7014e-09
1.70139e-09
1.70133e-09
1.70133e-09
1.70131e-09
1.70131e-09
1.70133e-09
1.70133e-09
1.61091e-09
1.61091e-09
1.61092e-09
1.61102e-09
1.61105e-09
1.61123e-09
1.61131e-09
1.61161e-09
1.61181e-09
1.61231e-09
1.61274e-09
1.61359e-09
1.61445e-09
1.52665e-09
1.52665e-09
1.52826e-09
1.53078e-09
1.53379e-09
1.53816e-09
1.54219e-09
1.54913e-09
1.55337e-09
1.56015e-09
1.55801e-09
)
;
    }
    procBoundary2to3
    {
        type            processor;
        value           nonuniform List<scalar> 
51
(
6.27433e-12
6.26364e-12
6.25837e-12
6.25122e-12
6.24914e-12
6.24453e-12
6.24386e-12
6.24099e-12
6.24094e-12
6.23925e-12
6.2394e-12
6.2385e-12
6.23862e-12
6.23832e-12
6.23831e-12
6.23861e-12
6.23847e-12
6.23938e-12
6.23923e-12
6.24094e-12
6.24099e-12
6.24387e-12
6.24453e-12
6.24916e-12
6.25126e-12
6.25843e-12
6.26371e-12
6.27436e-12
6.28647e-12
6.30507e-12
6.33396e-12
6.36712e-12
6.42594e-12
6.48724e-12
6.60839e-12
6.74577e-12
6.90669e-12
7.1862e-12
7.34732e-12
5.71216e-12
5.58162e-12
5.35606e-12
5.22878e-12
5.1214e-12
5.02634e-12
4.97748e-12
4.93156e-12
4.90587e-12
4.88321e-12
6.27433e-12
4.86858e-12
)
;
    }
}


// ************************************************************************* //
