/*--------------------------------*- C++ -*----------------------------------*\
| =========                 |                                                 |
| \\      /  F ield         | OpenFOAM: The Open Source CFD Toolbox           |
|  \\    /   O peration     | Version:  dev                                   |
|   \\  /    A nd           | Web:      www.OpenFOAM.org                      |
|    \\/     M anipulation  |                                                 |
\*---------------------------------------------------------------------------*/
FoamFile
{
    version     2.0;
    format      ascii;
    class       volScalarField;
    location    "0.095";
    object      C5H2;
}
// * * * * * * * * * * * * * * * * * * * * * * * * * * * * * * * * * * * * * //

dimensions      [0 0 0 0 0 0 0];

internalField   nonuniform List<scalar> 
250
(
1.01117e-08
2.27904e-05
2.56537e-05
2.5993e-05
2.60561e-05
2.60678e-05
2.60361e-05
2.60615e-05
2.6059e-05
1.51863e-08
2.11435e-05
2.12719e-05
2.1262e-05
2.12447e-05
2.1253e-05
2.12363e-05
2.12506e-05
2.12462e-05
1.15037e-08
1.27186e-05
1.20116e-05
1.19006e-05
1.18719e-05
1.18735e-05
1.18638e-05
1.18715e-05
1.18724e-05
7.95435e-09
7.53188e-06
6.67875e-06
6.55542e-06
6.53035e-06
6.52868e-06
6.52157e-06
6.52868e-06
6.52904e-06
5.73625e-09
4.76712e-06
3.97771e-06
3.85073e-06
3.8334e-06
3.82802e-06
3.82218e-06
3.83135e-06
3.82895e-06
4.45836e-09
3.26317e-06
2.50702e-06
2.45854e-06
2.45345e-06
2.44421e-06
2.43641e-06
2.45159e-06
2.44166e-06
3.73199e-09
2.39281e-06
1.75519e-06
1.69807e-06
1.69707e-06
1.69455e-06
1.70015e-06
1.69217e-06
1.70192e-06
3.3306e-09
1.8494e-06
1.33033e-06
1.27275e-06
1.24091e-06
1.24699e-06
1.24204e-06
1.2376e-06
1.2413e-06
3.34385e-09
1.48305e-06
1.04351e-06
1.01998e-06
1.00064e-06
1.00367e-06
1.00044e-06
9.97546e-07
9.98961e-07
4.36716e-09
1.21951e-06
8.80329e-07
8.44464e-07
8.30182e-07
8.31371e-07
8.29794e-07
8.27362e-07
8.28051e-07
6.60127e-09
1.02017e-06
7.60999e-07
7.23576e-07
7.12307e-07
7.1192e-07
7.10598e-07
7.08868e-07
7.09388e-07
7.08574e-07
1.03682e-08
8.64346e-07
6.68426e-07
6.36193e-07
6.25852e-07
6.24725e-07
6.22675e-07
6.21891e-07
6.2249e-07
6.22035e-07
1.55238e-08
7.40303e-07
5.96679e-07
5.68511e-07
5.58418e-07
5.5696e-07
5.53237e-07
5.54023e-07
5.54761e-07
5.54395e-07
2.17901e-08
6.40881e-07
5.3801e-07
5.13174e-07
5.03166e-07
5.01615e-07
5.0293e-07
4.98373e-07
4.99268e-07
4.98915e-07
2.93942e-08
5.61649e-07
4.88458e-07
4.66131e-07
4.56226e-07
4.54635e-07
4.56781e-07
4.50799e-07
4.52136e-07
4.51753e-07
3.87304e-08
4.92631e-07
4.46069e-07
4.25039e-07
4.15327e-07
4.137e-07
4.15271e-07
4.14213e-07
4.11194e-07
4.10722e-07
4.99424e-08
4.40967e-07
4.12606e-07
3.88431e-07
3.79062e-07
3.77405e-07
3.78539e-07
3.77957e-07
3.74951e-07
3.74623e-07
6.24496e-08
3.92564e-07
3.78607e-07
3.55276e-07
3.46504e-07
3.44825e-07
3.45615e-07
3.44998e-07
3.45913e-07
3.42641e-07
7.55286e-08
3.52063e-07
3.47278e-07
3.24802e-07
3.16994e-07
3.15302e-07
3.15811e-07
3.14972e-07
3.16026e-07
3.13324e-07
8.77498e-08
3.17931e-07
3.18713e-07
3.00029e-07
2.90033e-07
2.88329e-07
2.88607e-07
2.87373e-07
2.88475e-07
2.85913e-07
9.84154e-08
2.88544e-07
2.92442e-07
2.75268e-07
2.65174e-07
2.6348e-07
2.63578e-07
2.61753e-07
2.63246e-07
2.63235e-07
1.07057e-07
2.65815e-07
2.68117e-07
2.514e-07
2.4202e-07
2.40362e-07
2.4034e-07
2.40614e-07
2.41011e-07
2.42329e-07
1.13374e-07
2.42738e-07
2.45457e-07
2.31601e-07
2.22837e-07
2.21218e-07
2.21113e-07
2.21144e-07
2.21879e-07
2.22688e-07
1.17408e-07
2.23905e-07
2.24123e-07
2.11714e-07
2.0314e-07
2.01567e-07
2.01388e-07
2.01185e-07
2.01958e-07
2.02635e-07
1.19285e-07
2.06608e-07
2.03807e-07
1.94229e-07
1.86224e-07
1.84714e-07
1.84481e-07
1.84122e-07
1.84868e-07
1.85514e-07
1.19228e-07
1.90655e-07
1.86577e-07
1.77599e-07
1.70307e-07
1.68869e-07
1.68596e-07
1.68115e-07
1.68833e-07
1.69405e-07
)
;

boundaryField
{
    fuel
    {
        type            fixedValue;
        value           uniform 0;
    }
    wall
    {
        type            zeroGradient;
    }
    outlet
    {
        type            zeroGradient;
    }
    frontAndBack
    {
        type            empty;
    }
    procBoundary2to0
    {
        type            processor;
        value           nonuniform List<scalar> 
12
(
1.84113e-07
1.17472e-07
1.75385e-07
1.70223e-07
1.6196e-07
1.5524e-07
1.5388e-07
1.53584e-07
1.53014e-07
1.53709e-07
1.68224e-07
1.54176e-07
)
;
    }
    procBoundary2to3
    {
        type            processor;
        value           nonuniform List<scalar> 
25
(
2.60616e-05
2.12508e-05
1.18714e-05
6.52798e-06
3.82869e-06
2.44193e-06
1.70127e-06
1.24064e-06
9.98514e-07
8.27375e-07
8.27375e-07
7.08976e-07
6.22205e-07
5.54531e-07
4.9908e-07
4.5197e-07
4.1092e-07
3.7452e-07
3.41828e-07
3.12151e-07
2.84939e-07
2.59706e-07
2.38831e-07
2.19033e-07
2.00991e-07
)
;
    }
}


// ************************************************************************* //
