/*--------------------------------*- C++ -*----------------------------------*\
| =========                 |                                                 |
| \\      /  F ield         | OpenFOAM: The Open Source CFD Toolbox           |
|  \\    /   O peration     | Version:  dev                                   |
|   \\  /    A nd           | Web:      www.OpenFOAM.org                      |
|    \\/     M anipulation  |                                                 |
\*---------------------------------------------------------------------------*/
FoamFile
{
    version     2.0;
    format      ascii;
    class       volScalarField;
    location    "0.095";
    object      C6H;
}
// * * * * * * * * * * * * * * * * * * * * * * * * * * * * * * * * * * * * * //

dimensions      [0 0 0 0 0 0 0];

internalField   nonuniform List<scalar> 
250
(
3.12749e-12
1.05139e-08
1.54918e-08
1.59027e-08
1.59229e-08
1.59257e-08
1.59303e-08
1.59267e-08
1.59271e-08
2.70907e-12
8.90561e-09
1.11516e-08
1.1265e-08
1.12653e-08
1.12594e-08
1.12642e-08
1.12594e-08
1.12604e-08
1.91934e-12
5.09226e-09
6.3269e-09
6.36034e-09
6.35405e-09
6.34574e-09
6.35015e-09
6.34526e-09
6.34632e-09
1.21033e-12
2.78712e-09
3.65109e-09
3.66878e-09
3.66068e-09
3.65312e-09
3.65645e-09
3.652e-09
3.65319e-09
7.68e-13
1.60007e-09
2.28924e-09
2.30633e-09
2.29932e-09
2.29353e-09
2.29583e-09
2.29186e-09
2.29342e-09
5.20571e-13
9.96956e-10
1.55846e-09
1.58357e-09
1.56683e-09
1.55831e-09
1.55976e-09
1.55412e-09
1.55775e-09
3.87557e-13
6.82293e-10
1.16366e-09
1.19014e-09
1.17405e-09
1.16647e-09
1.16737e-09
1.16104e-09
1.16561e-09
3.11054e-13
4.85528e-10
9.29056e-10
9.5547e-10
9.38615e-10
9.31446e-10
9.31977e-10
9.23963e-10
9.29806e-10
3.79778e-13
3.89953e-10
7.67707e-10
7.95266e-10
7.84448e-10
7.78311e-10
7.78921e-10
7.68406e-10
7.7526e-10
5.38792e-13
3.26514e-10
6.49614e-10
6.74286e-10
6.63368e-10
6.57349e-10
6.5793e-10
6.56764e-10
6.57167e-10
7.32059e-13
2.83925e-10
5.72584e-10
5.94585e-10
5.83235e-10
5.77242e-10
5.77854e-10
5.73884e-10
5.76204e-10
5.75771e-10
1.00587e-12
2.56165e-10
5.07656e-10
5.24691e-10
5.11445e-10
5.0537e-10
5.06089e-10
4.99351e-10
5.02193e-10
5.03367e-10
1.57298e-12
2.41075e-10
4.52192e-10
4.65081e-10
4.51859e-10
4.45681e-10
4.46618e-10
4.4521e-10
4.3969e-10
4.42401e-10
2.81911e-12
2.31325e-10
4.05292e-10
4.14054e-10
4.01013e-10
3.94703e-10
3.95868e-10
3.94146e-10
3.92215e-10
3.89053e-10
5.20889e-12
2.24789e-10
3.64616e-10
3.69507e-10
3.56807e-10
3.50373e-10
3.51747e-10
3.49569e-10
3.5147e-10
3.47283e-10
9.23706e-12
2.19919e-10
3.2865e-10
3.301e-10
3.1789e-10
3.11379e-10
3.12928e-10
3.10365e-10
3.1303e-10
3.10573e-10
1.54275e-11
2.1552e-10
2.9636e-10
2.94923e-10
2.83335e-10
2.76824e-10
2.78501e-10
2.75652e-10
2.78113e-10
2.75676e-10
2.42117e-11
2.09569e-10
2.66944e-10
2.63314e-10
2.52457e-10
2.46041e-10
2.47794e-10
2.44772e-10
2.47065e-10
2.44813e-10
3.5701e-11
2.03716e-10
2.39516e-10
2.34762e-10
2.2472e-10
2.18494e-10
2.20272e-10
2.17184e-10
2.19353e-10
2.17272e-10
4.94004e-11
1.96713e-10
2.16011e-10
2.08849e-10
1.99681e-10
1.93733e-10
1.95489e-10
1.92424e-10
1.94487e-10
1.9254e-10
6.4142e-11
1.87639e-10
1.95072e-10
1.85202e-10
1.76955e-10
1.71357e-10
1.73051e-10
1.70082e-10
1.72036e-10
1.70209e-10
7.82984e-11
1.7766e-10
1.74178e-10
1.63431e-10
1.56172e-10
1.5098e-10
1.52579e-10
1.49767e-10
1.51595e-10
1.49895e-10
9.01683e-11
1.66369e-10
1.54476e-10
1.45794e-10
1.39202e-10
1.34405e-10
1.35904e-10
1.33232e-10
1.34968e-10
1.33366e-10
9.84227e-11
1.5407e-10
1.38005e-10
1.29705e-10
1.232e-10
1.18477e-10
1.20004e-10
1.17276e-10
1.19043e-10
1.17409e-10
1.02367e-10
1.39962e-10
1.21382e-10
1.13841e-10
1.08939e-10
1.04614e-10
1.06043e-10
1.03465e-10
1.05145e-10
1.03597e-10
1.02095e-10
1.26332e-10
1.06931e-10
1.00137e-10
9.57941e-11
9.18742e-11
9.32101e-11
9.07833e-11
9.23807e-11
9.09128e-11
)
;

boundaryField
{
    fuel
    {
        type            fixedValue;
        value           uniform 0;
    }
    wall
    {
        type            zeroGradient;
    }
    outlet
    {
        type            zeroGradient;
    }
    frontAndBack
    {
        type            empty;
    }
    procBoundary2to0
    {
        type            processor;
        value           nonuniform List<scalar> 
12
(
1.04112e-10
9.78706e-11
1.11385e-10
9.34325e-11
8.74864e-11
8.36538e-11
8.01265e-11
8.13677e-11
7.90957e-11
8.06099e-11
9.14024e-11
7.92198e-11
)
;
    }
    procBoundary2to3
    {
        type            processor;
        value           nonuniform List<scalar> 
25
(
1.59279e-08
1.12612e-08
6.34713e-09
3.65375e-09
2.29365e-09
1.55721e-09
1.16499e-09
9.29705e-10
7.76011e-10
6.55692e-10
6.55692e-10
5.70847e-10
5.02664e-10
4.46324e-10
3.96718e-10
3.51111e-10
3.11414e-10
2.76515e-10
2.45582e-10
2.17979e-10
1.93203e-10
1.70834e-10
1.5048e-10
1.33916e-10
1.17956e-10
)
;
    }
}


// ************************************************************************* //
