/*--------------------------------*- C++ -*----------------------------------*\
| =========                 |                                                 |
| \\      /  F ield         | OpenFOAM: The Open Source CFD Toolbox           |
|  \\    /   O peration     | Version:  dev                                   |
|   \\  /    A nd           | Web:      www.OpenFOAM.org                      |
|    \\/     M anipulation  |                                                 |
\*---------------------------------------------------------------------------*/
FoamFile
{
    version     2.0;
    format      ascii;
    class       volScalarField;
    location    "0.095";
    object      CH2;
}
// * * * * * * * * * * * * * * * * * * * * * * * * * * * * * * * * * * * * * //

dimensions      [0 0 0 0 0 0 0];

internalField   nonuniform List<scalar> 
250
(
1.50857e-08
3.41954e-05
3.52845e-05
3.54346e-05
3.54534e-05
3.54577e-05
3.5449e-05
3.54665e-05
3.54663e-05
1.53547e-08
2.12314e-05
2.16226e-05
2.17075e-05
2.17138e-05
2.17196e-05
2.17194e-05
2.17192e-05
2.17212e-05
9.91707e-09
1.08892e-05
1.09813e-05
1.10773e-05
1.10835e-05
1.10894e-05
1.10881e-05
1.10875e-05
1.10902e-05
6.13545e-09
5.76422e-06
5.61758e-06
5.70027e-06
5.70833e-06
5.71269e-06
5.71123e-06
5.71187e-06
5.71299e-06
4.19234e-09
3.4546e-06
3.19402e-06
3.25398e-06
3.26545e-06
3.26685e-06
3.26542e-06
3.26844e-06
3.26709e-06
3.27903e-09
2.36375e-06
2.03037e-06
2.13224e-06
2.1506e-06
2.14889e-06
2.14534e-06
2.15349e-06
2.14659e-06
2.95833e-09
1.78178e-06
1.4972e-06
1.58226e-06
1.60218e-06
1.60447e-06
1.60992e-06
1.60284e-06
1.60966e-06
3.78793e-09
1.42249e-06
1.22048e-06
1.30125e-06
1.30164e-06
1.30896e-06
1.30695e-06
1.30326e-06
1.30573e-06
1.42204e-08
1.17086e-06
1.04553e-06
1.14614e-06
1.15502e-06
1.16024e-06
1.15902e-06
1.15681e-06
1.15772e-06
7.94005e-08
9.79321e-07
9.49484e-07
1.04481e-06
1.05757e-06
1.06158e-06
1.0612e-06
1.05957e-06
1.05998e-06
2.65443e-07
8.26815e-07
8.80281e-07
9.77366e-07
9.92644e-07
9.95771e-07
9.95468e-07
9.94355e-07
9.9466e-07
9.93854e-07
5.52467e-07
7.03489e-07
8.26187e-07
9.2851e-07
9.44949e-07
9.47727e-07
9.4697e-07
9.46398e-07
9.46751e-07
9.46035e-07
7.39014e-07
6.04175e-07
7.83136e-07
8.89168e-07
9.06156e-07
9.08823e-07
9.07052e-07
9.07332e-07
9.07777e-07
9.07027e-07
7.56609e-07
5.25576e-07
7.46608e-07
8.54759e-07
8.71934e-07
8.74597e-07
8.75857e-07
8.72763e-07
8.73332e-07
8.72507e-07
6.79219e-07
4.65142e-07
7.14417e-07
8.22886e-07
8.39964e-07
8.42611e-07
8.44434e-07
8.40162e-07
8.41089e-07
8.40156e-07
5.75924e-07
4.15608e-07
6.85462e-07
7.92211e-07
8.08943e-07
8.11525e-07
8.12976e-07
8.12102e-07
8.09801e-07
8.08741e-07
4.77244e-07
3.81481e-07
6.61313e-07
7.61883e-07
7.78073e-07
7.80536e-07
7.81691e-07
7.80921e-07
7.78548e-07
7.77632e-07
3.91479e-07
3.52867e-07
6.35414e-07
7.31239e-07
7.46801e-07
7.49091e-07
7.49991e-07
7.48937e-07
7.50161e-07
7.46341e-07
3.18219e-07
3.31832e-07
6.09884e-07
6.9967e-07
7.1469e-07
7.16754e-07
7.17418e-07
7.15908e-07
7.17211e-07
7.13738e-07
2.59233e-07
3.16499e-07
5.84603e-07
6.70688e-07
6.81357e-07
6.83137e-07
6.83581e-07
6.81402e-07
6.82816e-07
6.79133e-07
2.12856e-07
3.05093e-07
5.58962e-07
6.38073e-07
6.46391e-07
6.47858e-07
6.48106e-07
6.44946e-07
6.47075e-07
6.46502e-07
1.77669e-07
2.9723e-07
5.3243e-07
6.02601e-07
6.09346e-07
6.10483e-07
6.10582e-07
6.10569e-07
6.11029e-07
6.1232e-07
1.51956e-07
2.8955e-07
5.04538e-07
5.6919e-07
5.74353e-07
5.75164e-07
5.75136e-07
5.74582e-07
5.75697e-07
5.75966e-07
1.34094e-07
2.82763e-07
4.74695e-07
5.31378e-07
5.33852e-07
5.34281e-07
5.34114e-07
5.3305e-07
5.34356e-07
5.3428e-07
1.22383e-07
2.75247e-07
4.4236e-07
4.93926e-07
4.94678e-07
4.9478e-07
4.94496e-07
4.93067e-07
4.94448e-07
4.94277e-07
1.15159e-07
2.66365e-07
4.11095e-07
4.5421e-07
4.53623e-07
4.53413e-07
4.53031e-07
4.51298e-07
4.5275e-07
4.52435e-07
)
;

boundaryField
{
    fuel
    {
        type            fixedValue;
        value           uniform 0;
    }
    wall
    {
        type            zeroGradient;
    }
    outlet
    {
        type            zeroGradient;
    }
    frontAndBack
    {
        type            empty;
    }
    procBoundary2to0
    {
        type            processor;
        value           nonuniform List<scalar> 
12
(
4.92288e-07
1.10986e-07
2.55195e-07
3.77619e-07
4.12978e-07
4.1088e-07
4.10384e-07
4.09931e-07
4.07961e-07
4.09483e-07
4.50517e-07
4.0899e-07
)
;
    }
    procBoundary2to3
    {
        type            processor;
        value           nonuniform List<scalar> 
25
(
3.54684e-05
2.1719e-05
1.10868e-05
5.71089e-06
3.26619e-06
2.14633e-06
1.60891e-06
1.30503e-06
1.15715e-06
1.05928e-06
1.05928e-06
9.94015e-07
9.46109e-07
9.07083e-07
8.72565e-07
8.40219e-07
8.0873e-07
7.7729e-07
7.45329e-07
7.12376e-07
6.7799e-07
6.41672e-07
6.07331e-07
5.70354e-07
5.32257e-07
)
;
    }
}


// ************************************************************************* //
