/*--------------------------------*- C++ -*----------------------------------*\
| =========                 |                                                 |
| \\      /  F ield         | OpenFOAM: The Open Source CFD Toolbox           |
|  \\    /   O peration     | Version:  dev                                   |
|   \\  /    A nd           | Web:      www.OpenFOAM.org                      |
|    \\/     M anipulation  |                                                 |
\*---------------------------------------------------------------------------*/
FoamFile
{
    version     2.0;
    format      ascii;
    class       volScalarField;
    location    "0.095";
    object      CH2O;
}
// * * * * * * * * * * * * * * * * * * * * * * * * * * * * * * * * * * * * * //

dimensions      [0 0 0 0 0 0 0];

internalField   nonuniform List<scalar> 
1997
(
2.16948e-06
2.1716e-06
2.16964e-06
2.16841e-06
2.16577e-06
2.16425e-06
2.1624e-06
2.16114e-06
2.16003e-06
2.15934e-06
2.15871e-06
2.15835e-06
2.15798e-06
2.1578e-06
2.15759e-06
2.15751e-06
2.15738e-06
2.15735e-06
2.12846e-06
2.13034e-06
2.12806e-06
2.12665e-06
2.12384e-06
2.12221e-06
2.12031e-06
2.11901e-06
2.11789e-06
2.11718e-06
2.11654e-06
2.11617e-06
2.1158e-06
2.11562e-06
2.1154e-06
2.11532e-06
2.11519e-06
2.11516e-06
2.11508e-06
2.11507e-06
2.11503e-06
2.11502e-06
2.115e-06
2.115e-06
2.11499e-06
2.11499e-06
2.115e-06
2.115e-06
2.08688e-06
2.0885e-06
2.08592e-06
2.08432e-06
2.08134e-06
2.07961e-06
2.07766e-06
2.07631e-06
2.07517e-06
2.07445e-06
2.0738e-06
2.07343e-06
2.07305e-06
2.07287e-06
2.07265e-06
2.07257e-06
2.07243e-06
2.0724e-06
2.07232e-06
2.07231e-06
2.07227e-06
2.07227e-06
2.07224e-06
2.07225e-06
2.07224e-06
2.07224e-06
2.07225e-06
2.07224e-06
2.07227e-06
2.07227e-06
2.07232e-06
2.07233e-06
2.0724e-06
2.07244e-06
2.07257e-06
2.07265e-06
2.07287e-06
2.07306e-06
2.07343e-06
2.0738e-06
2.04473e-06
2.04609e-06
2.0432e-06
2.04143e-06
2.03826e-06
2.03644e-06
2.03444e-06
2.03305e-06
2.03189e-06
2.03115e-06
2.0305e-06
2.03012e-06
2.02974e-06
2.02956e-06
2.02933e-06
2.02925e-06
2.02911e-06
2.02908e-06
2.029e-06
2.02899e-06
2.02895e-06
2.02895e-06
2.02892e-06
2.02892e-06
2.02892e-06
2.02892e-06
2.02892e-06
2.02892e-06
2.02895e-06
2.02895e-06
2.02899e-06
2.029e-06
2.02908e-06
2.02912e-06
2.02925e-06
2.02933e-06
2.02956e-06
2.02975e-06
2.03012e-06
2.0305e-06
2.03115e-06
2.03189e-06
2.03305e-06
2.03443e-06
2.03644e-06
2.03826e-06
2.04142e-06
2.0432e-06
2.04608e-06
2.04471e-06
2.00199e-06
2.0031e-06
1.9999e-06
1.99795e-06
1.99461e-06
1.9927e-06
1.99065e-06
1.98921e-06
1.98804e-06
1.98729e-06
1.98663e-06
1.98625e-06
1.98587e-06
1.98568e-06
1.98545e-06
1.98536e-06
1.98523e-06
1.9852e-06
1.98512e-06
1.98511e-06
1.98506e-06
1.98506e-06
1.98504e-06
1.98504e-06
1.98503e-06
1.98503e-06
1.98504e-06
1.98504e-06
1.98506e-06
1.98506e-06
1.98511e-06
1.98512e-06
1.9852e-06
1.98523e-06
1.98537e-06
1.98545e-06
1.98568e-06
1.98587e-06
1.98625e-06
1.98663e-06
1.98729e-06
1.98804e-06
1.98921e-06
1.99064e-06
1.9927e-06
1.99461e-06
1.99795e-06
1.9999e-06
2.00309e-06
2.00198e-06
1.95799e-06
1.95891e-06
1.95541e-06
1.95324e-06
1.9496e-06
1.94758e-06
1.94544e-06
1.94392e-06
1.94272e-06
1.94194e-06
1.94127e-06
1.94087e-06
1.94048e-06
1.94029e-06
1.94005e-06
1.93997e-06
1.93983e-06
1.93979e-06
1.93971e-06
1.9397e-06
1.93966e-06
1.93965e-06
1.93963e-06
1.93963e-06
1.93962e-06
1.93962e-06
1.93963e-06
1.93963e-06
1.93965e-06
1.93966e-06
1.9397e-06
1.93971e-06
1.9398e-06
1.93983e-06
1.93997e-06
1.94006e-06
1.94029e-06
1.94048e-06
1.94087e-06
1.94127e-06
1.94194e-06
1.94272e-06
1.94392e-06
1.94543e-06
1.94758e-06
1.9496e-06
1.95324e-06
1.9554e-06
1.95891e-06
1.95797e-06
1.91405e-06
1.91472e-06
1.91091e-06
1.90857e-06
1.90475e-06
1.90265e-06
1.90046e-06
1.8989e-06
1.89768e-06
1.89689e-06
1.89621e-06
1.89581e-06
1.89542e-06
1.89522e-06
1.89499e-06
1.8949e-06
1.89476e-06
1.89473e-06
1.89465e-06
1.89464e-06
1.89459e-06
1.89459e-06
1.89456e-06
1.89456e-06
1.89455e-06
1.89455e-06
1.89456e-06
1.89456e-06
1.89459e-06
1.89459e-06
1.89464e-06
1.89465e-06
1.89473e-06
1.89476e-06
1.8949e-06
1.89499e-06
1.89523e-06
1.89542e-06
1.89582e-06
1.89621e-06
1.89689e-06
1.89768e-06
1.8989e-06
1.90045e-06
1.90265e-06
1.90475e-06
1.90857e-06
1.91091e-06
1.91471e-06
1.91404e-06
1.86954e-06
1.86995e-06
1.86584e-06
1.86333e-06
1.85934e-06
1.85716e-06
1.85489e-06
1.85321e-06
1.85194e-06
1.85111e-06
1.85041e-06
1.84999e-06
1.84958e-06
1.84938e-06
1.84914e-06
1.84905e-06
1.8489e-06
1.84887e-06
1.84878e-06
1.84877e-06
1.84872e-06
1.84872e-06
1.84869e-06
1.8487e-06
1.84869e-06
1.84869e-06
1.8487e-06
1.84869e-06
1.84872e-06
1.84872e-06
1.84877e-06
1.84878e-06
1.84887e-06
1.8489e-06
1.84905e-06
1.84914e-06
1.84938e-06
1.84959e-06
1.85e-06
1.85041e-06
1.85111e-06
1.85194e-06
1.85321e-06
1.85488e-06
1.85716e-06
1.85935e-06
1.86332e-06
1.86584e-06
1.86994e-06
1.86953e-06
1.82448e-06
1.82462e-06
1.82022e-06
1.81752e-06
1.8134e-06
1.81112e-06
1.80882e-06
1.80708e-06
1.80579e-06
1.80495e-06
1.80425e-06
1.80383e-06
1.80342e-06
1.80322e-06
1.80297e-06
1.80288e-06
1.80274e-06
1.8027e-06
1.80261e-06
1.8026e-06
1.80255e-06
1.80255e-06
1.80253e-06
1.80253e-06
1.80252e-06
1.80252e-06
1.80253e-06
1.80253e-06
1.80255e-06
1.80255e-06
1.8026e-06
1.80261e-06
1.8027e-06
1.80274e-06
1.80288e-06
1.80298e-06
1.80322e-06
1.80343e-06
1.80384e-06
1.80425e-06
1.80496e-06
1.80579e-06
1.80708e-06
1.80881e-06
1.81113e-06
1.8134e-06
1.81752e-06
1.82022e-06
1.82462e-06
1.82446e-06
1.77817e-06
1.77817e-06
1.77345e-06
1.77055e-06
1.76619e-06
1.7638e-06
1.76142e-06
1.75957e-06
1.75825e-06
1.75739e-06
1.75667e-06
1.75624e-06
1.75582e-06
1.75562e-06
1.75537e-06
1.75527e-06
1.75512e-06
1.75509e-06
1.755e-06
1.75499e-06
1.75494e-06
1.75494e-06
1.75491e-06
1.75491e-06
1.7549e-06
1.7549e-06
1.75491e-06
1.75491e-06
1.75494e-06
1.75494e-06
1.75499e-06
1.755e-06
1.75509e-06
1.75512e-06
1.75527e-06
1.75537e-06
1.75562e-06
1.75583e-06
1.75625e-06
1.75667e-06
1.75739e-06
1.75825e-06
1.75957e-06
1.7614e-06
1.76381e-06
1.76619e-06
1.77055e-06
1.77345e-06
1.77816e-06
1.77816e-06
1.73056e-06
1.73025e-06
1.72527e-06
1.72218e-06
1.71771e-06
1.71524e-06
1.71284e-06
1.71091e-06
1.70958e-06
1.70871e-06
1.70799e-06
1.70757e-06
1.70715e-06
1.70694e-06
1.70669e-06
1.70659e-06
1.70644e-06
1.70641e-06
1.70632e-06
1.70631e-06
1.70626e-06
1.70625e-06
1.70623e-06
1.70623e-06
1.70622e-06
1.70622e-06
1.70623e-06
1.70623e-06
1.70625e-06
1.70626e-06
1.70631e-06
1.70632e-06
1.70641e-06
1.70644e-06
1.70659e-06
1.70669e-06
1.70694e-06
1.70715e-06
1.70757e-06
1.708e-06
1.70871e-06
1.70958e-06
1.7109e-06
1.71282e-06
1.71525e-06
1.71771e-06
1.72218e-06
1.72527e-06
1.73024e-06
1.73054e-06
1.6838e-06
1.68324e-06
1.67798e-06
1.67471e-06
1.67014e-06
1.66758e-06
1.66516e-06
1.66314e-06
1.66181e-06
1.66093e-06
1.66022e-06
1.65979e-06
1.65937e-06
1.65916e-06
1.65891e-06
1.65881e-06
1.65866e-06
1.65863e-06
1.65854e-06
1.65853e-06
1.65848e-06
1.65847e-06
1.65845e-06
1.65845e-06
1.65844e-06
1.65844e-06
1.65845e-06
1.65845e-06
1.65847e-06
1.65848e-06
1.65853e-06
1.65854e-06
1.65863e-06
1.65866e-06
1.65882e-06
1.65891e-06
1.65916e-06
1.65937e-06
1.65979e-06
1.66022e-06
1.66093e-06
1.66181e-06
1.66314e-06
1.66514e-06
1.66759e-06
1.67015e-06
1.6747e-06
1.67798e-06
1.68323e-06
1.68379e-06
1.63657e-06
1.63576e-06
1.63023e-06
1.62677e-06
1.62214e-06
1.61948e-06
1.61706e-06
1.61493e-06
1.6136e-06
1.61272e-06
1.612e-06
1.61157e-06
1.61115e-06
1.61094e-06
1.61069e-06
1.6106e-06
1.61045e-06
1.61041e-06
1.61032e-06
1.61031e-06
1.61026e-06
1.61026e-06
1.61023e-06
1.61023e-06
1.61022e-06
1.61022e-06
1.61023e-06
1.61023e-06
1.61026e-06
1.61026e-06
1.61031e-06
1.61032e-06
1.61041e-06
1.61045e-06
1.6106e-06
1.61069e-06
1.61095e-06
1.61116e-06
1.61158e-06
1.61201e-06
1.61272e-06
1.6136e-06
1.61492e-06
1.61703e-06
1.61949e-06
1.62214e-06
1.62677e-06
1.63023e-06
1.63575e-06
1.63656e-06
1.58892e-06
1.58786e-06
1.58207e-06
1.57843e-06
1.57374e-06
1.57099e-06
1.56856e-06
1.56633e-06
1.565e-06
1.56411e-06
1.5634e-06
1.56297e-06
1.56255e-06
1.56234e-06
1.56209e-06
1.562e-06
1.56185e-06
1.56181e-06
1.56172e-06
1.56171e-06
1.56166e-06
1.56166e-06
1.56163e-06
1.56163e-06
1.56162e-06
1.56162e-06
1.56163e-06
1.56163e-06
1.56166e-06
1.56166e-06
1.56171e-06
1.56172e-06
1.56181e-06
1.56185e-06
1.562e-06
1.56209e-06
1.56234e-06
1.56255e-06
1.56297e-06
1.5634e-06
1.56411e-06
1.565e-06
1.56632e-06
1.56854e-06
1.571e-06
1.57374e-06
1.57842e-06
1.58206e-06
1.58786e-06
1.58891e-06
1.53992e-06
1.53858e-06
1.53243e-06
1.52854e-06
1.52376e-06
1.52087e-06
1.51842e-06
1.51605e-06
1.5147e-06
1.5138e-06
1.51309e-06
1.51265e-06
1.51223e-06
1.51202e-06
1.51177e-06
1.51167e-06
1.51152e-06
1.51148e-06
1.51139e-06
1.51138e-06
1.51133e-06
1.51133e-06
1.5113e-06
1.5113e-06
1.51129e-06
1.51129e-06
1.5113e-06
1.5113e-06
1.51133e-06
1.51133e-06
1.51138e-06
1.51139e-06
1.51148e-06
1.51152e-06
1.51167e-06
1.51177e-06
1.51202e-06
1.51223e-06
1.51265e-06
1.51309e-06
1.5138e-06
1.5147e-06
1.51605e-06
1.5184e-06
1.52089e-06
1.52376e-06
1.52854e-06
1.53243e-06
1.53858e-06
1.53991e-06
1.49005e-06
1.48842e-06
1.48206e-06
1.47797e-06
1.47318e-06
1.47021e-06
1.46778e-06
1.46528e-06
1.46393e-06
1.46302e-06
1.46232e-06
1.46189e-06
1.46147e-06
1.46126e-06
1.46101e-06
1.46092e-06
1.46077e-06
1.46073e-06
1.46064e-06
1.46063e-06
1.46058e-06
1.46058e-06
1.46055e-06
1.46055e-06
1.46054e-06
1.46054e-06
1.46055e-06
1.46055e-06
1.46058e-06
1.46058e-06
1.46063e-06
1.46064e-06
1.46073e-06
1.46077e-06
1.46092e-06
1.46102e-06
1.46127e-06
1.46148e-06
1.46189e-06
1.46233e-06
1.46302e-06
1.46393e-06
1.46527e-06
1.46776e-06
1.47023e-06
1.47318e-06
1.47797e-06
1.48205e-06
1.48842e-06
1.49004e-06
1.43982e-06
1.43791e-06
1.43134e-06
1.42707e-06
1.42227e-06
1.41923e-06
1.41684e-06
1.41564e-06
1.4143e-06
1.41339e-06
1.41271e-06
1.41228e-06
1.41186e-06
1.41165e-06
1.41141e-06
1.41131e-06
1.41116e-06
1.41113e-06
1.41104e-06
1.41103e-06
1.41097e-06
1.41097e-06
1.41095e-06
1.41095e-06
1.41094e-06
1.41094e-06
1.41095e-06
1.41095e-06
1.41097e-06
1.41097e-06
1.41103e-06
1.41104e-06
1.41113e-06
1.41116e-06
1.41131e-06
1.41141e-06
1.41166e-06
1.41187e-06
1.41228e-06
1.41271e-06
1.41339e-06
1.41431e-06
1.41564e-06
1.41682e-06
1.41925e-06
1.42227e-06
1.42707e-06
1.43133e-06
1.4379e-06
1.43981e-06
1.39077e-06
1.38861e-06
1.38181e-06
1.37738e-06
1.37256e-06
1.36947e-06
1.3671e-06
1.36581e-06
1.36443e-06
1.36349e-06
1.36279e-06
1.36235e-06
1.36193e-06
1.36172e-06
1.36147e-06
1.36137e-06
1.36122e-06
1.36118e-06
1.36109e-06
1.36108e-06
1.36103e-06
1.36103e-06
1.361e-06
1.361e-06
1.36099e-06
1.36099e-06
1.361e-06
1.361e-06
1.36103e-06
1.36103e-06
1.36108e-06
1.36109e-06
1.36119e-06
1.36122e-06
1.36138e-06
1.36147e-06
1.36173e-06
1.36194e-06
1.36236e-06
1.36279e-06
1.36349e-06
1.36443e-06
1.3658e-06
1.36709e-06
1.36948e-06
1.37256e-06
1.37738e-06
1.3818e-06
1.38861e-06
1.39076e-06
1.34157e-06
1.33918e-06
1.33211e-06
1.32758e-06
1.32274e-06
1.31959e-06
1.31725e-06
1.3159e-06
1.31453e-06
1.31359e-06
1.31291e-06
1.31248e-06
1.31206e-06
1.31186e-06
1.3116e-06
1.31151e-06
1.31136e-06
1.31132e-06
1.31123e-06
1.31122e-06
1.31117e-06
1.31117e-06
1.31114e-06
1.31114e-06
1.31113e-06
1.31113e-06
1.31114e-06
1.31114e-06
1.31117e-06
1.31117e-06
1.31122e-06
1.31123e-06
1.31132e-06
1.31136e-06
1.31151e-06
1.31161e-06
1.31186e-06
1.31207e-06
1.31248e-06
1.31291e-06
1.3136e-06
1.31453e-06
1.3159e-06
1.31724e-06
1.3196e-06
1.32274e-06
1.32757e-06
1.3321e-06
1.33917e-06
1.34157e-06
1.29108e-06
1.28845e-06
1.28098e-06
1.27644e-06
1.27156e-06
1.26834e-06
1.26602e-06
1.26462e-06
1.26324e-06
1.26231e-06
1.26163e-06
1.2612e-06
1.26079e-06
1.26058e-06
1.26033e-06
1.26024e-06
1.26009e-06
1.26005e-06
1.25996e-06
1.25995e-06
1.2599e-06
1.2599e-06
1.25987e-06
1.25987e-06
1.25986e-06
1.25986e-06
1.25987e-06
1.25987e-06
1.2599e-06
1.2599e-06
1.25995e-06
1.25996e-06
1.26005e-06
1.26009e-06
1.26024e-06
1.26033e-06
1.26058e-06
1.26079e-06
1.2612e-06
1.26163e-06
1.26231e-06
1.26324e-06
1.26461e-06
1.26601e-06
1.26836e-06
1.27156e-06
1.27644e-06
1.28097e-06
1.28845e-06
1.29107e-06
1.24033e-06
1.23743e-06
1.2307e-06
1.22656e-06
1.22166e-06
1.21842e-06
1.21613e-06
1.21469e-06
1.21334e-06
1.21241e-06
1.21175e-06
1.21133e-06
1.21092e-06
1.21072e-06
1.21047e-06
1.21038e-06
1.21023e-06
1.2102e-06
1.21011e-06
1.2101e-06
1.21005e-06
1.21005e-06
1.21002e-06
1.21002e-06
1.21001e-06
1.21001e-06
1.21002e-06
1.21002e-06
1.21005e-06
1.21005e-06
1.2101e-06
1.21011e-06
1.2102e-06
1.21023e-06
1.21038e-06
1.21047e-06
1.21072e-06
1.21093e-06
1.21133e-06
1.21175e-06
1.21241e-06
1.21334e-06
1.21469e-06
1.21613e-06
1.21844e-06
1.22166e-06
1.22656e-06
1.23069e-06
1.23742e-06
1.24033e-06
1.19106e-06
1.18791e-06
1.18085e-06
1.17682e-06
1.17189e-06
1.16866e-06
1.1664e-06
1.16493e-06
1.1636e-06
1.16268e-06
1.16203e-06
1.16161e-06
1.1612e-06
1.16099e-06
1.16074e-06
1.16065e-06
1.1605e-06
1.16047e-06
1.16037e-06
1.16037e-06
1.16031e-06
1.16031e-06
1.16028e-06
1.16029e-06
1.16028e-06
1.16028e-06
1.16029e-06
1.16028e-06
1.16031e-06
1.16031e-06
1.16037e-06
1.16037e-06
1.16047e-06
1.1605e-06
1.16065e-06
1.16074e-06
1.16099e-06
1.1612e-06
1.16161e-06
1.16203e-06
1.16268e-06
1.1636e-06
1.16493e-06
1.16639e-06
1.16867e-06
1.17189e-06
1.17681e-06
1.18084e-06
1.1879e-06
1.19106e-06
1.14114e-06
1.13751e-06
1.13018e-06
1.12614e-06
1.12115e-06
1.11792e-06
1.11568e-06
1.1142e-06
1.11289e-06
1.11198e-06
1.11134e-06
1.11092e-06
1.11052e-06
1.11032e-06
1.11007e-06
1.10998e-06
1.10983e-06
1.1098e-06
1.10971e-06
1.1097e-06
1.10965e-06
1.10965e-06
1.10962e-06
1.10962e-06
1.10961e-06
1.10961e-06
1.10962e-06
1.10962e-06
1.10965e-06
1.10965e-06
1.1097e-06
1.10971e-06
1.1098e-06
1.10983e-06
1.10998e-06
1.11007e-06
1.11032e-06
1.11052e-06
1.11092e-06
1.11134e-06
1.11198e-06
1.11289e-06
1.1142e-06
1.11568e-06
1.11793e-06
1.12115e-06
1.12614e-06
1.13018e-06
1.1375e-06
1.14113e-06
1.09093e-06
1.08841e-06
1.08093e-06
1.07688e-06
1.0719e-06
1.06867e-06
1.06647e-06
1.06499e-06
1.06371e-06
1.06283e-06
1.0622e-06
1.06179e-06
1.0614e-06
1.0612e-06
1.06096e-06
1.06087e-06
1.06072e-06
1.06069e-06
1.0606e-06
1.0606e-06
1.06054e-06
1.06054e-06
1.06052e-06
1.06052e-06
1.06051e-06
1.06051e-06
1.06052e-06
1.06052e-06
1.06054e-06
1.06054e-06
1.0606e-06
1.0606e-06
1.06069e-06
1.06073e-06
1.06087e-06
1.06096e-06
1.0612e-06
1.0614e-06
1.06179e-06
1.0622e-06
1.06283e-06
1.06371e-06
1.06498e-06
1.06647e-06
1.06868e-06
1.0719e-06
1.07687e-06
1.08093e-06
1.08841e-06
1.09092e-06
1.04244e-06
1.03971e-06
1.03209e-06
1.02802e-06
1.02309e-06
1.01987e-06
1.01773e-06
1.01624e-06
1.01497e-06
1.01407e-06
1.01343e-06
1.01301e-06
1.01262e-06
1.01242e-06
1.01218e-06
1.0121e-06
1.01195e-06
1.01191e-06
1.01182e-06
1.01182e-06
1.01176e-06
1.01176e-06
1.01174e-06
1.01174e-06
1.01173e-06
1.01173e-06
1.01174e-06
1.01174e-06
1.01176e-06
1.01176e-06
1.01182e-06
1.01182e-06
1.01191e-06
1.01195e-06
1.0121e-06
1.01218e-06
1.01243e-06
1.01263e-06
1.01302e-06
1.01343e-06
1.01407e-06
1.01497e-06
1.01623e-06
1.01773e-06
1.01988e-06
1.02309e-06
1.02801e-06
1.03208e-06
1.03971e-06
1.04243e-06
9.93581e-07
9.90582e-07
9.82717e-07
9.7858e-07
9.73707e-07
9.70439e-07
9.68357e-07
9.66851e-07
9.65611e-07
9.64732e-07
9.64101e-07
9.63697e-07
9.63316e-07
9.63121e-07
9.62884e-07
9.628e-07
9.62654e-07
9.62622e-07
9.62533e-07
9.62526e-07
9.62474e-07
9.62475e-07
9.62448e-07
9.6245e-07
9.62441e-07
9.62441e-07
9.6245e-07
9.62448e-07
9.62475e-07
9.62474e-07
9.62526e-07
9.62534e-07
9.62622e-07
9.62654e-07
9.62801e-07
9.62885e-07
9.63123e-07
9.63318e-07
9.63699e-07
9.64103e-07
9.64732e-07
9.65612e-07
9.66849e-07
9.68355e-07
9.70445e-07
9.73705e-07
9.78573e-07
9.82712e-07
9.90577e-07
9.93574e-07
9.44789e-07
9.41598e-07
9.34926e-07
9.30803e-07
9.26042e-07
9.22783e-07
9.20778e-07
9.19275e-07
9.18083e-07
9.17225e-07
9.16611e-07
9.1622e-07
9.15852e-07
9.15664e-07
9.15433e-07
9.15353e-07
9.1521e-07
9.1518e-07
9.15094e-07
9.15087e-07
9.15036e-07
9.15038e-07
9.15011e-07
9.15013e-07
9.15005e-07
9.15004e-07
9.15013e-07
9.1501e-07
9.15037e-07
9.15036e-07
9.15087e-07
9.15094e-07
9.1518e-07
9.15211e-07
9.15353e-07
9.15435e-07
9.15666e-07
9.15855e-07
9.16222e-07
9.16613e-07
9.17226e-07
9.18083e-07
9.19274e-07
9.20776e-07
9.22787e-07
9.2604e-07
9.30796e-07
9.3492e-07
9.41594e-07
9.44782e-07
8.97961e-07
8.94601e-07
8.87587e-07
8.83313e-07
8.78473e-07
8.7517e-07
8.73203e-07
8.71672e-07
8.70501e-07
8.69651e-07
8.69044e-07
8.6866e-07
8.68299e-07
8.68113e-07
8.67886e-07
8.67807e-07
8.67666e-07
8.67636e-07
8.67551e-07
8.67544e-07
8.67495e-07
8.67496e-07
8.6747e-07
8.67472e-07
8.67463e-07
8.67463e-07
8.67472e-07
8.67469e-07
8.67495e-07
8.67494e-07
8.67544e-07
8.67551e-07
8.67637e-07
8.67667e-07
8.67808e-07
8.67888e-07
8.68115e-07
8.68301e-07
8.68661e-07
8.69046e-07
8.69651e-07
8.70502e-07
8.7167e-07
8.732e-07
8.75173e-07
8.78471e-07
8.83306e-07
8.87582e-07
8.94597e-07
8.97954e-07
8.50858e-07
8.48412e-07
8.41319e-07
8.371e-07
8.32346e-07
8.2911e-07
8.27218e-07
8.25708e-07
8.24586e-07
8.23758e-07
8.23174e-07
8.22803e-07
8.22457e-07
8.22278e-07
8.2206e-07
8.21983e-07
8.21847e-07
8.21819e-07
8.21736e-07
8.2173e-07
8.21682e-07
8.21683e-07
8.21658e-07
8.2166e-07
8.21652e-07
8.21651e-07
8.2166e-07
8.21657e-07
8.21683e-07
8.21681e-07
8.2173e-07
8.21736e-07
8.21819e-07
8.21848e-07
8.21984e-07
8.22061e-07
8.2228e-07
8.22459e-07
8.22805e-07
8.23176e-07
8.23758e-07
8.24588e-07
8.25704e-07
8.27215e-07
8.29112e-07
8.32344e-07
8.37093e-07
8.41314e-07
8.48408e-07
8.50851e-07
8.05669e-07
8.03133e-07
7.9597e-07
7.91856e-07
7.87086e-07
7.8382e-07
7.81938e-07
7.80407e-07
7.7931e-07
7.7848e-07
7.77909e-07
7.77541e-07
7.77202e-07
7.77026e-07
7.7681e-07
7.76736e-07
7.76601e-07
7.76574e-07
7.76492e-07
7.76486e-07
7.76438e-07
7.7644e-07
7.76414e-07
7.76417e-07
7.76408e-07
7.76408e-07
7.76417e-07
7.76414e-07
7.76439e-07
7.76438e-07
7.76486e-07
7.76492e-07
7.76574e-07
7.76602e-07
7.76737e-07
7.76812e-07
7.77028e-07
7.77204e-07
7.77543e-07
7.77911e-07
7.7848e-07
7.79311e-07
7.80405e-07
7.81934e-07
7.83822e-07
7.87083e-07
7.9185e-07
7.95966e-07
8.03129e-07
8.05663e-07
7.60601e-07
7.57931e-07
7.51654e-07
7.47685e-07
7.42948e-07
7.39777e-07
7.37984e-07
7.36476e-07
7.35434e-07
7.34627e-07
7.34084e-07
7.3373e-07
7.33406e-07
7.33238e-07
7.33031e-07
7.3296e-07
7.32831e-07
7.32805e-07
7.32726e-07
7.3272e-07
7.32674e-07
7.32676e-07
7.32651e-07
7.32654e-07
7.32646e-07
7.32645e-07
7.32653e-07
7.32651e-07
7.32675e-07
7.32673e-07
7.3272e-07
7.32726e-07
7.32805e-07
7.32831e-07
7.32961e-07
7.33032e-07
7.3324e-07
7.33408e-07
7.33732e-07
7.34086e-07
7.34627e-07
7.35434e-07
7.36475e-07
7.3798e-07
7.39779e-07
7.42945e-07
7.4768e-07
7.5165e-07
7.57927e-07
7.60594e-07
7.17448e-07
7.14739e-07
7.0829e-07
7.0431e-07
6.99467e-07
6.96313e-07
6.94572e-07
6.93056e-07
6.92052e-07
6.91256e-07
6.9073e-07
6.90382e-07
6.9007e-07
6.89906e-07
6.89704e-07
6.89636e-07
6.89509e-07
6.89484e-07
6.89406e-07
6.89401e-07
6.89356e-07
6.89358e-07
6.89334e-07
6.89336e-07
6.89328e-07
6.89328e-07
6.89336e-07
6.89333e-07
6.89357e-07
6.89355e-07
6.89401e-07
6.89406e-07
6.89484e-07
6.89509e-07
6.89636e-07
6.89706e-07
6.89908e-07
6.90072e-07
6.90384e-07
6.90732e-07
6.91256e-07
6.92052e-07
6.93055e-07
6.94568e-07
6.96314e-07
6.99464e-07
7.04304e-07
7.08286e-07
7.14735e-07
7.17442e-07
6.74494e-07
6.7171e-07
6.65221e-07
6.61408e-07
6.57698e-07
6.54657e-07
6.52996e-07
6.51515e-07
6.50566e-07
6.49801e-07
6.49299e-07
6.48967e-07
6.4867e-07
6.48515e-07
6.48322e-07
6.48258e-07
6.48136e-07
6.48112e-07
6.48038e-07
6.48034e-07
6.4799e-07
6.47992e-07
6.47969e-07
6.47972e-07
6.47964e-07
6.47964e-07
6.47971e-07
6.47969e-07
6.47992e-07
6.4799e-07
6.48033e-07
6.48038e-07
6.48113e-07
6.48136e-07
6.48258e-07
6.48324e-07
6.48517e-07
6.48672e-07
6.48968e-07
6.49301e-07
6.498e-07
6.50565e-07
6.51515e-07
6.52992e-07
6.54657e-07
6.57696e-07
6.61403e-07
6.65217e-07
6.71706e-07
6.74488e-07
6.33738e-07
6.30969e-07
6.24492e-07
6.20842e-07
6.17254e-07
6.14327e-07
6.12747e-07
6.11308e-07
6.10413e-07
6.09681e-07
6.09203e-07
6.08888e-07
6.08607e-07
6.0846e-07
6.08277e-07
6.08216e-07
6.081e-07
6.08078e-07
6.08007e-07
6.08003e-07
6.07961e-07
6.07963e-07
6.07941e-07
6.07944e-07
6.07936e-07
6.07936e-07
6.07943e-07
6.07941e-07
6.07963e-07
6.07961e-07
6.08003e-07
6.08007e-07
6.08078e-07
6.081e-07
6.08217e-07
6.08278e-07
6.08462e-07
6.08609e-07
6.08889e-07
6.09205e-07
6.09681e-07
6.10413e-07
6.11307e-07
6.12744e-07
6.14327e-07
6.17253e-07
6.20838e-07
6.24489e-07
6.30965e-07
6.33732e-07
5.93717e-07
5.90944e-07
5.85133e-07
5.81648e-07
5.78211e-07
5.754e-07
5.73899e-07
5.72507e-07
5.71669e-07
5.7097e-07
5.70516e-07
5.70219e-07
5.69954e-07
5.69814e-07
5.69641e-07
5.69584e-07
5.69474e-07
5.69454e-07
5.69386e-07
5.69382e-07
5.69342e-07
5.69345e-07
5.69324e-07
5.69326e-07
5.69319e-07
5.69319e-07
5.69326e-07
5.69323e-07
5.69344e-07
5.69342e-07
5.69382e-07
5.69386e-07
5.69454e-07
5.69474e-07
5.69585e-07
5.69642e-07
5.69816e-07
5.69956e-07
5.7022e-07
5.70518e-07
5.70971e-07
5.71669e-07
5.72507e-07
5.73896e-07
5.75399e-07
5.7821e-07
5.81645e-07
5.8513e-07
5.90941e-07
5.93711e-07
5.55683e-07
5.52943e-07
5.4725e-07
5.43896e-07
5.40642e-07
5.37934e-07
5.36518e-07
5.35124e-07
5.34302e-07
5.33608e-07
5.3316e-07
5.32867e-07
5.32606e-07
5.3247e-07
5.32299e-07
5.32243e-07
5.32134e-07
5.32115e-07
5.32047e-07
5.32044e-07
5.32005e-07
5.32007e-07
5.31986e-07
5.31989e-07
5.31982e-07
5.31982e-07
5.31989e-07
5.31986e-07
5.32007e-07
5.32004e-07
5.32044e-07
5.32048e-07
5.32115e-07
5.32134e-07
5.32244e-07
5.323e-07
5.32471e-07
5.32608e-07
5.32868e-07
5.33161e-07
5.33608e-07
5.34301e-07
5.35124e-07
5.36515e-07
5.37933e-07
5.40641e-07
5.43892e-07
5.47248e-07
5.52939e-07
5.55678e-07
5.19122e-07
5.16409e-07
5.10896e-07
5.07659e-07
5.04599e-07
5.01986e-07
5.00654e-07
4.99326e-07
4.98553e-07
4.97894e-07
4.9747e-07
4.97194e-07
4.96948e-07
4.9682e-07
4.96658e-07
4.96606e-07
4.96503e-07
4.96485e-07
4.96421e-07
4.96418e-07
4.96381e-07
4.96383e-07
4.96363e-07
4.96366e-07
4.96359e-07
4.96359e-07
4.96366e-07
4.96363e-07
4.96383e-07
4.9638e-07
4.96418e-07
4.96421e-07
4.96485e-07
4.96503e-07
4.96607e-07
4.96659e-07
4.96821e-07
4.96949e-07
4.97195e-07
4.97472e-07
4.97895e-07
4.98552e-07
4.99326e-07
5.00652e-07
5.01985e-07
5.04598e-07
5.07656e-07
5.10894e-07
5.16406e-07
5.19117e-07
4.84089e-07
4.81415e-07
4.76106e-07
4.72991e-07
4.70116e-07
4.67618e-07
4.66359e-07
4.65105e-07
4.64379e-07
4.63755e-07
4.63357e-07
4.63096e-07
4.62863e-07
4.62744e-07
4.62592e-07
4.62544e-07
4.62446e-07
4.6243e-07
4.62369e-07
4.62367e-07
4.62331e-07
4.62334e-07
4.62315e-07
4.62318e-07
4.62311e-07
4.62311e-07
4.62317e-07
4.62315e-07
4.62334e-07
4.62331e-07
4.62367e-07
4.62369e-07
4.6243e-07
4.62446e-07
4.62544e-07
4.62593e-07
4.62746e-07
4.62865e-07
4.63097e-07
4.63358e-07
4.63756e-07
4.64378e-07
4.65104e-07
4.66358e-07
4.67617e-07
4.70115e-07
4.72987e-07
4.76104e-07
4.81413e-07
4.84085e-07
4.50631e-07
4.48017e-07
4.42913e-07
4.39929e-07
4.37235e-07
4.34866e-07
4.33677e-07
4.32495e-07
4.31816e-07
4.31227e-07
4.30854e-07
4.3061e-07
4.30391e-07
4.30281e-07
4.30137e-07
4.30093e-07
4.30001e-07
4.29986e-07
4.29929e-07
4.29927e-07
4.29894e-07
4.29896e-07
4.29878e-07
4.29881e-07
4.29875e-07
4.29875e-07
4.2988e-07
4.29878e-07
4.29896e-07
4.29893e-07
4.29927e-07
4.29929e-07
4.29986e-07
4.30001e-07
4.30094e-07
4.30138e-07
4.30282e-07
4.30393e-07
4.30611e-07
4.30856e-07
4.31228e-07
4.31815e-07
4.32495e-07
4.33675e-07
4.34865e-07
4.37234e-07
4.39927e-07
4.42911e-07
4.48015e-07
4.50627e-07
4.18724e-07
4.16087e-07
4.11348e-07
4.08508e-07
4.05995e-07
4.03752e-07
4.02634e-07
4.01526e-07
4.00892e-07
4.00342e-07
3.99992e-07
3.99763e-07
3.99559e-07
3.99457e-07
3.99322e-07
3.99282e-07
3.99195e-07
3.99182e-07
3.99128e-07
3.99127e-07
3.99095e-07
3.99098e-07
3.99081e-07
3.99083e-07
3.99077e-07
3.99077e-07
3.99083e-07
3.9908e-07
3.99097e-07
3.99094e-07
3.99126e-07
3.99128e-07
3.99182e-07
3.99195e-07
3.99282e-07
3.99323e-07
3.99458e-07
3.9956e-07
3.99764e-07
3.99993e-07
4.00343e-07
4.00891e-07
4.01526e-07
4.02633e-07
4.03751e-07
4.05994e-07
4.08506e-07
4.11346e-07
4.16085e-07
4.1872e-07
3.88515e-07
3.85965e-07
3.81436e-07
3.78748e-07
3.76404e-07
3.74308e-07
3.7325e-07
3.72215e-07
3.71628e-07
3.71115e-07
3.70788e-07
3.70575e-07
3.70385e-07
3.70291e-07
3.70165e-07
3.70128e-07
3.70046e-07
3.70034e-07
3.69984e-07
3.69983e-07
3.69953e-07
3.69956e-07
3.6994e-07
3.69943e-07
3.69937e-07
3.69937e-07
3.69942e-07
3.6994e-07
3.69956e-07
3.69953e-07
3.69983e-07
3.69984e-07
3.70035e-07
3.70046e-07
3.70128e-07
3.70165e-07
3.70292e-07
3.70386e-07
3.70575e-07
3.70789e-07
3.71117e-07
3.71628e-07
3.72215e-07
3.73249e-07
3.74307e-07
3.76402e-07
3.78746e-07
3.81435e-07
3.85963e-07
3.8851e-07
3.59963e-07
3.57513e-07
3.53191e-07
3.50662e-07
3.48486e-07
3.46534e-07
3.45535e-07
3.44574e-07
3.44034e-07
3.43558e-07
3.43252e-07
)
;

boundaryField
{
    fuel
    {
        type            fixedValue;
        value           nonuniform 0();
    }
    wall
    {
        type            zeroGradient;
    }
    outlet
    {
        type            zeroGradient;
    }
    frontAndBack
    {
        type            empty;
    }
    procBoundary2to0
    {
        type            processor;
        value           nonuniform List<scalar> 
53
(
2.20993e-06
2.21231e-06
2.21065e-06
2.20961e-06
2.20713e-06
2.20573e-06
2.20393e-06
2.20272e-06
2.20163e-06
2.20095e-06
2.20033e-06
2.19997e-06
2.19961e-06
2.19944e-06
2.19922e-06
2.19914e-06
2.19902e-06
2.19899e-06
2.15727e-06
2.15727e-06
2.15726e-06
2.15722e-06
2.15722e-06
2.1572e-06
2.1572e-06
2.15719e-06
2.15719e-06
2.1572e-06
2.1572e-06
2.11502e-06
2.11502e-06
2.11503e-06
2.11507e-06
2.11508e-06
2.11516e-06
2.11519e-06
2.11532e-06
2.1154e-06
2.11562e-06
2.1158e-06
2.11617e-06
2.11654e-06
2.07445e-06
2.07445e-06
2.07517e-06
2.07631e-06
2.07766e-06
2.07961e-06
2.08134e-06
2.08432e-06
2.08592e-06
2.0885e-06
2.08687e-06
)
;
    }
    procBoundary2to3
    {
        type            processor;
        value           nonuniform List<scalar> 
51
(
3.43053e-07
3.42877e-07
3.42792e-07
3.42674e-07
3.4264e-07
3.42565e-07
3.42554e-07
3.42507e-07
3.42507e-07
3.42479e-07
3.42481e-07
3.42466e-07
3.42469e-07
3.42464e-07
3.42464e-07
3.42468e-07
3.42466e-07
3.42481e-07
3.42478e-07
3.42506e-07
3.42507e-07
3.42554e-07
3.42565e-07
3.42641e-07
3.42675e-07
3.42793e-07
3.42879e-07
3.43053e-07
3.43252e-07
3.43559e-07
3.44033e-07
3.44574e-07
3.45534e-07
3.46533e-07
3.48484e-07
3.5066e-07
3.53189e-07
3.57511e-07
3.59958e-07
3.33078e-07
3.3074e-07
3.26617e-07
3.24254e-07
3.22243e-07
3.20433e-07
3.19492e-07
3.18605e-07
3.1811e-07
3.1767e-07
3.43053e-07
3.17384e-07
)
;
    }
}


// ************************************************************************* //
