/*--------------------------------*- C++ -*----------------------------------*\
| =========                 |                                                 |
| \\      /  F ield         | OpenFOAM: The Open Source CFD Toolbox           |
|  \\    /   O peration     | Version:  dev                                   |
|   \\  /    A nd           | Web:      www.OpenFOAM.org                      |
|    \\/     M anipulation  |                                                 |
\*---------------------------------------------------------------------------*/
FoamFile
{
    version     2.0;
    format      ascii;
    class       volScalarField;
    location    "0.095";
    object      CH3;
}
// * * * * * * * * * * * * * * * * * * * * * * * * * * * * * * * * * * * * * //

dimensions      [0 0 0 0 0 0 0];

internalField   nonuniform List<scalar> 
25
(
1.17721e-08
1.23841e-08
1.31379e-08
1.4041e-08
1.50502e-08
1.61718e-08
1.73934e-08
1.87015e-08
2.00812e-08
2.1516e-08
2.2988e-08
2.44776e-08
2.59638e-08
2.74241e-08
2.88347e-08
3.01707e-08
3.1406e-08
3.25142e-08
3.34678e-08
3.42398e-08
3.48028e-08
3.51303e-08
3.51971e-08
3.49798e-08
3.44579e-08
)
;

boundaryField
{
    wall
    {
        type            zeroGradient;
    }
    fuel
    {
        type            fixedValue;
        value           nonuniform 0();
    }
    outlet
    {
        type            inletOutlet;
        inletValue      nonuniform 0();
        value           nonuniform 0();
    }
    procBoundary2to1
    {
        type            processor;
        value           uniform 1.13134e-08;
    }
    procBoundary2to3
    {
        type            processor;
        value           uniform 3.36207e-08;
    }
}


// ************************************************************************* //
