/*--------------------------------*- C++ -*----------------------------------*\
| =========                 |                                                 |
| \\      /  F ield         | OpenFOAM: The Open Source CFD Toolbox           |
|  \\    /   O peration     | Version:  dev                                   |
|   \\  /    A nd           | Web:      www.OpenFOAM.org                      |
|    \\/     M anipulation  |                                                 |
\*---------------------------------------------------------------------------*/
FoamFile
{
    version     2.0;
    format      ascii;
    class       volScalarField;
    location    "0.095";
    object      CO2;
}
// * * * * * * * * * * * * * * * * * * * * * * * * * * * * * * * * * * * * * //

dimensions      [0 0 0 0 0 0 0];

internalField   nonuniform List<scalar> 
250
(
0.00253358
0.0388996
0.0389366
0.0389148
0.0389104
0.0389096
0.0389082
0.0389098
0.0389097
0.00688366
0.0467056
0.0464595
0.046376
0.046363
0.0463598
0.046358
0.0463604
0.0463597
0.0112813
0.0492243
0.0487215
0.0485725
0.0485483
0.0485426
0.0485395
0.0485432
0.0485428
0.0155418
0.0502429
0.0495121
0.0492965
0.0492598
0.0492514
0.0492463
0.0492521
0.0492518
0.0195746
0.050722
0.0497876
0.0495067
0.0494572
0.0494454
0.0494384
0.0494466
0.0494458
0.0233304
0.0509669
0.0498469
0.0495004
0.0494392
0.0494236
0.0494152
0.0494252
0.049423
0.0267966
0.0510923
0.0497999
0.0493864
0.0493128
0.049297
0.049291
0.0492943
0.0492967
0.03
0.0511473
0.0496974
0.0492183
0.0491108
0.0490984
0.0490876
0.049089
0.0490905
0.0330077
0.0511545
0.0495395
0.0490201
0.0489033
0.0488876
0.048878
0.0488777
0.0488788
0.0358645
0.0511259
0.04938
0.04878
0.0486486
0.0486304
0.0486217
0.0486193
0.0486207
0.0384817
0.0510674
0.0491948
0.0485264
0.0483814
0.0483595
0.0483492
0.0483466
0.0483486
0.0483485
0.0407494
0.0509828
0.048989
0.0482725
0.0481135
0.0480885
0.0480739
0.0480735
0.0480764
0.0480763
0.0425966
0.0508747
0.0487789
0.0480225
0.0478507
0.047823
0.0478006
0.0478056
0.0478095
0.0478095
0.0440741
0.050746
0.0485665
0.0477794
0.0475966
0.0475669
0.0475693
0.0475469
0.0475517
0.0475519
0.04527
0.0506008
0.0483556
0.0475454
0.0473537
0.0473223
0.0473307
0.0472989
0.0473057
0.047306
0.0462512
0.0504255
0.0481506
0.047322
0.047124
0.0470911
0.0470976
0.0470931
0.0470744
0.0470743
0.0470578
0.0502491
0.0479715
0.0471105
0.0469091
0.0468749
0.0468797
0.0468781
0.0468591
0.0468598
0.0477124
0.0500311
0.047774
0.0469117
0.0467106
0.0466754
0.0466786
0.0466772
0.0466825
0.0466652
0.0482387
0.0497981
0.0475805
0.0467265
0.04653
0.0464941
0.0464958
0.0464937
0.0465002
0.046487
0.0486345
0.0495553
0.0473967
0.046578
0.0463689
0.0463327
0.0463332
0.0463293
0.0463364
0.0463252
0.0489186
0.0493051
0.0472249
0.0464359
0.0462291
0.0461929
0.0461923
0.0461859
0.046195
0.0461998
0.0491057
0.0490829
0.0470681
0.0463099
0.0461122
0.0460766
0.0460753
0.04608
0.0460836
0.0460966
0.0492092
0.0488322
0.0469293
0.0462191
0.0460315
0.0459967
0.0459949
0.0459991
0.0460043
0.0460164
0.049244
0.0486155
0.0468114
0.0461474
0.0459709
0.0459375
0.0459353
0.0459393
0.0459442
0.0459572
0.0492237
0.048413
0.0467175
0.0461063
0.0459429
0.0459111
0.0459087
0.0459128
0.045917
0.045931
0.0491619
0.0482309
0.0466585
0.0460931
0.045944
0.045914
0.0459116
0.045916
0.0459194
0.0459338
)
;

boundaryField
{
    fuel
    {
        type            fixedValue;
        value           uniform 0;
    }
    wall
    {
        type            zeroGradient;
    }
    outlet
    {
        type            zeroGradient;
    }
    frontAndBack
    {
        type            empty;
    }
    procBoundary2to0
    {
        type            processor;
        value           nonuniform List<scalar> 
12
(
0.0459177
0.0490709
0.0480698
0.0466273
0.0461091
0.045975
0.0459472
0.0459448
0.0459498
0.0459523
0.0459233
0.0459668
)
;
    }
    procBoundary2to3
    {
        type            processor;
        value           nonuniform List<scalar> 
25
(
0.0389101
0.0463609
0.0485437
0.0492524
0.0494463
0.0494234
0.0492965
0.0490901
0.0488785
0.0486203
0.0486203
0.0483502
0.0480781
0.0478115
0.0475539
0.0473081
0.047076
0.0468594
0.0466596
0.0464782
0.0463167
0.0461765
0.0460735
0.0459934
0.0459415
)
;
    }
}


// ************************************************************************* //
