/*--------------------------------*- C++ -*----------------------------------*\
| =========                 |                                                 |
| \\      /  F ield         | OpenFOAM: The Open Source CFD Toolbox           |
|  \\    /   O peration     | Version:  dev                                   |
|   \\  /    A nd           | Web:      www.OpenFOAM.org                      |
|    \\/     M anipulation  |                                                 |
\*---------------------------------------------------------------------------*/
FoamFile
{
    version     2.0;
    format      ascii;
    class       volScalarField;
    location    "0.095";
    object      H2C4O;
}
// * * * * * * * * * * * * * * * * * * * * * * * * * * * * * * * * * * * * * //

dimensions      [0 0 0 0 0 0 0];

internalField   nonuniform List<scalar> 
250
(
3.57657e-06
1.38535e-05
1.34366e-05
1.33526e-05
1.33439e-05
1.33423e-05
1.33375e-05
1.33412e-05
1.334e-05
7.01951e-06
1.05607e-05
9.84526e-06
9.71482e-06
9.6921e-06
9.6905e-06
9.68584e-06
9.68982e-06
9.68892e-06
8.13276e-06
8.26288e-06
7.47624e-06
7.3172e-06
7.28949e-06
7.28538e-06
7.27996e-06
7.28529e-06
7.28551e-06
8.15233e-06
7.00385e-06
6.19358e-06
6.00843e-06
5.97669e-06
5.96982e-06
5.96291e-06
5.97102e-06
5.97088e-06
7.82837e-06
6.2312e-06
5.42207e-06
5.21047e-06
5.17624e-06
5.16546e-06
5.1573e-06
5.16893e-06
5.16711e-06
7.51781e-06
5.68274e-06
4.85294e-06
4.65253e-06
4.61975e-06
4.60488e-06
4.59493e-06
4.61069e-06
4.60429e-06
7.38545e-06
5.24943e-06
4.44119e-06
4.21339e-06
4.17891e-06
4.16848e-06
4.16719e-06
4.1659e-06
4.17254e-06
7.47744e-06
4.88355e-06
4.10618e-06
3.85671e-06
3.78477e-06
3.78327e-06
3.77336e-06
3.77168e-06
3.77469e-06
7.56106e-06
4.56181e-06
3.77821e-06
3.55403e-06
3.48853e-06
3.48396e-06
3.47645e-06
3.47403e-06
3.47561e-06
6.20294e-06
4.2717e-06
3.52415e-06
3.26183e-06
3.19606e-06
3.18985e-06
3.18448e-06
3.18066e-06
3.18208e-06
3.38668e-06
4.00633e-06
3.28152e-06
3.00012e-06
2.93429e-06
2.92578e-06
2.91992e-06
2.9165e-06
2.91816e-06
2.91761e-06
1.58645e-06
3.76406e-06
3.05019e-06
2.76987e-06
2.70249e-06
2.69261e-06
2.68393e-06
2.68258e-06
2.68476e-06
2.6842e-06
9.66083e-07
3.54303e-06
2.84168e-06
2.56541e-06
2.49664e-06
2.48598e-06
2.4719e-06
2.47494e-06
2.47765e-06
2.47708e-06
8.47736e-07
3.34103e-06
2.65197e-06
2.38254e-06
2.31307e-06
2.30215e-06
2.30553e-06
2.28984e-06
2.29304e-06
2.29243e-06
9.01204e-07
3.15737e-06
2.47938e-06
2.21795e-06
2.14862e-06
2.13758e-06
2.14443e-06
2.12325e-06
2.12786e-06
2.1271e-06
1.01489e-06
2.97348e-06
2.3237e-06
2.06903e-06
2.0007e-06
1.98955e-06
1.99469e-06
1.99123e-06
1.97991e-06
1.97877e-06
1.1485e-06
2.81516e-06
2.19577e-06
1.93354e-06
1.86717e-06
1.85597e-06
1.85972e-06
1.85797e-06
1.84675e-06
1.84607e-06
1.28214e-06
2.6442e-06
2.06177e-06
1.80944e-06
1.74629e-06
1.73509e-06
1.73768e-06
1.7358e-06
1.73917e-06
1.72764e-06
1.40541e-06
2.48109e-06
1.93559e-06
1.69497e-06
1.63658e-06
1.62545e-06
1.62706e-06
1.62439e-06
1.62833e-06
1.61905e-06
1.50662e-06
2.32633e-06
1.81885e-06
1.60205e-06
1.53682e-06
1.5258e-06
1.52657e-06
1.52251e-06
1.52669e-06
1.51814e-06
1.58244e-06
2.17872e-06
1.71067e-06
1.50988e-06
1.44582e-06
1.43499e-06
1.4351e-06
1.42898e-06
1.43462e-06
1.43555e-06
1.63161e-06
2.05499e-06
1.61047e-06
1.42224e-06
1.36247e-06
1.35195e-06
1.35161e-06
1.35302e-06
1.35476e-06
1.36066e-06
1.65473e-06
1.92102e-06
1.51777e-06
1.35084e-06
1.29489e-06
1.28467e-06
1.28401e-06
1.2846e-06
1.28755e-06
1.29188e-06
1.65511e-06
1.80777e-06
1.43182e-06
1.28099e-06
1.22758e-06
1.21773e-06
1.21677e-06
1.21659e-06
1.21967e-06
1.22374e-06
1.63642e-06
1.70205e-06
1.35184e-06
1.22143e-06
1.17175e-06
1.1623e-06
1.16112e-06
1.16042e-06
1.16338e-06
1.16748e-06
1.6025e-06
1.60465e-06
1.28588e-06
1.16689e-06
1.12134e-06
1.11232e-06
1.11097e-06
1.10986e-06
1.1127e-06
1.11662e-06
)
;

boundaryField
{
    fuel
    {
        type            fixedValue;
        value           uniform 0;
    }
    wall
    {
        type            zeroGradient;
    }
    outlet
    {
        type            zeroGradient;
    }
    frontAndBack
    {
        type            empty;
    }
    procBoundary2to0
    {
        type            processor;
        value           nonuniform List<scalar> 
12
(
1.16141e-06
1.5569e-06
1.51332e-06
1.22542e-06
1.11775e-06
1.07578e-06
1.06721e-06
1.06574e-06
1.06432e-06
1.06706e-06
1.11161e-06
1.07063e-06
)
;
    }
    procBoundary2to3
    {
        type            processor;
        value           nonuniform List<scalar> 
25
(
1.33418e-05
9.69031e-06
7.28562e-06
5.97093e-06
5.1674e-06
4.60468e-06
4.17191e-06
3.77396e-06
3.47509e-06
3.18145e-06
3.18145e-06
2.91806e-06
2.68478e-06
2.47776e-06
2.29326e-06
2.12809e-06
1.97962e-06
1.84567e-06
1.72444e-06
1.61433e-06
1.51395e-06
1.42199e-06
1.34718e-06
1.27791e-06
1.21665e-06
)
;
    }
}


// ************************************************************************* //
