/*--------------------------------*- C++ -*----------------------------------*\
| =========                 |                                                 |
| \\      /  F ield         | OpenFOAM: The Open Source CFD Toolbox           |
|  \\    /   O peration     | Version:  dev                                   |
|   \\  /    A nd           | Web:      www.OpenFOAM.org                      |
|    \\/     M anipulation  |                                                 |
\*---------------------------------------------------------------------------*/
FoamFile
{
    version     2.0;
    format      ascii;
    class       volScalarField;
    location    "0.095";
    object      P2-H;
}
// * * * * * * * * * * * * * * * * * * * * * * * * * * * * * * * * * * * * * //

dimensions      [0 0 0 0 0 0 0];

internalField   nonuniform List<scalar> 
1997
(
1.60071e-16
1.60632e-16
1.61174e-16
1.61532e-16
1.61782e-16
1.6195e-16
1.62046e-16
1.6212e-16
1.62165e-16
1.62202e-16
1.62226e-16
1.62248e-16
1.62262e-16
1.62276e-16
1.62284e-16
1.62293e-16
1.62298e-16
1.62303e-16
1.59535e-16
1.60079e-16
1.60617e-16
1.60978e-16
1.61242e-16
1.61413e-16
1.61516e-16
1.61595e-16
1.61643e-16
1.61683e-16
1.61709e-16
1.61732e-16
1.61747e-16
1.61761e-16
1.6177e-16
1.61779e-16
1.61785e-16
1.6179e-16
1.61793e-16
1.61797e-16
1.61798e-16
1.618e-16
1.61801e-16
1.61801e-16
1.61802e-16
1.61802e-16
1.61802e-16
1.61801e-16
1.59205e-16
1.59734e-16
1.6027e-16
1.60635e-16
1.60913e-16
1.61087e-16
1.61198e-16
1.61281e-16
1.61333e-16
1.61375e-16
1.61403e-16
1.61427e-16
1.61444e-16
1.61458e-16
1.61468e-16
1.61477e-16
1.61483e-16
1.61489e-16
1.61492e-16
1.61495e-16
1.61497e-16
1.61499e-16
1.615e-16
1.615e-16
1.61501e-16
1.61501e-16
1.615e-16
1.615e-16
1.61499e-16
1.61497e-16
1.61495e-16
1.61492e-16
1.61489e-16
1.61483e-16
1.61477e-16
1.61468e-16
1.61458e-16
1.61443e-16
1.61427e-16
1.61403e-16
1.59075e-16
1.5959e-16
1.60127e-16
1.60496e-16
1.6079e-16
1.60966e-16
1.61084e-16
1.61172e-16
1.61228e-16
1.61272e-16
1.61302e-16
1.61327e-16
1.61345e-16
1.6136e-16
1.61371e-16
1.6138e-16
1.61386e-16
1.61392e-16
1.61395e-16
1.61399e-16
1.61401e-16
1.61402e-16
1.61403e-16
1.61404e-16
1.61404e-16
1.61404e-16
1.61404e-16
1.61403e-16
1.61402e-16
1.614e-16
1.61399e-16
1.61395e-16
1.61392e-16
1.61386e-16
1.6138e-16
1.6137e-16
1.6136e-16
1.61345e-16
1.61327e-16
1.61302e-16
1.61272e-16
1.61228e-16
1.61172e-16
1.61084e-16
1.60966e-16
1.60789e-16
1.60496e-16
1.60127e-16
1.59591e-16
1.59076e-16
1.59139e-16
1.59642e-16
1.60181e-16
1.60554e-16
1.60864e-16
1.61043e-16
1.61167e-16
1.6126e-16
1.61321e-16
1.61366e-16
1.61398e-16
1.61424e-16
1.61443e-16
1.61459e-16
1.6147e-16
1.6148e-16
1.61486e-16
1.61492e-16
1.61496e-16
1.61499e-16
1.61501e-16
1.61503e-16
1.61504e-16
1.61505e-16
1.61505e-16
1.61505e-16
1.61505e-16
1.61504e-16
1.61503e-16
1.61501e-16
1.61499e-16
1.61496e-16
1.61492e-16
1.61486e-16
1.61479e-16
1.6147e-16
1.61458e-16
1.61443e-16
1.61424e-16
1.61398e-16
1.61366e-16
1.6132e-16
1.6126e-16
1.61168e-16
1.61042e-16
1.60864e-16
1.60554e-16
1.60182e-16
1.59642e-16
1.5914e-16
1.59394e-16
1.59885e-16
1.60429e-16
1.60806e-16
1.61132e-16
1.61314e-16
1.61446e-16
1.61544e-16
1.61608e-16
1.61656e-16
1.6169e-16
1.61717e-16
1.61737e-16
1.61753e-16
1.61765e-16
1.61774e-16
1.61782e-16
1.61787e-16
1.61792e-16
1.61795e-16
1.61797e-16
1.61799e-16
1.618e-16
1.61801e-16
1.61801e-16
1.61801e-16
1.61801e-16
1.618e-16
1.61799e-16
1.61797e-16
1.61795e-16
1.61792e-16
1.61787e-16
1.61782e-16
1.61774e-16
1.61765e-16
1.61752e-16
1.61737e-16
1.61716e-16
1.6169e-16
1.61656e-16
1.61608e-16
1.61544e-16
1.61446e-16
1.61314e-16
1.61132e-16
1.60806e-16
1.60429e-16
1.59886e-16
1.59395e-16
1.59824e-16
1.60306e-16
1.60855e-16
1.61236e-16
1.61577e-16
1.61762e-16
1.619e-16
1.62003e-16
1.62071e-16
1.6212e-16
1.62156e-16
1.62184e-16
1.62205e-16
1.62221e-16
1.62234e-16
1.62244e-16
1.62252e-16
1.62257e-16
1.62262e-16
1.62265e-16
1.62267e-16
1.62269e-16
1.6227e-16
1.62271e-16
1.62271e-16
1.62271e-16
1.62271e-16
1.6227e-16
1.62269e-16
1.62267e-16
1.62265e-16
1.62262e-16
1.62257e-16
1.62251e-16
1.62244e-16
1.62234e-16
1.62221e-16
1.62205e-16
1.62183e-16
1.62156e-16
1.6212e-16
1.6207e-16
1.62003e-16
1.619e-16
1.61762e-16
1.61577e-16
1.61236e-16
1.60855e-16
1.60306e-16
1.59825e-16
1.60424e-16
1.60898e-16
1.61453e-16
1.61839e-16
1.62193e-16
1.62382e-16
1.62526e-16
1.62635e-16
1.62706e-16
1.62758e-16
1.62796e-16
1.62824e-16
1.62847e-16
1.62863e-16
1.62877e-16
1.62887e-16
1.62895e-16
1.629e-16
1.62905e-16
1.62908e-16
1.62911e-16
1.62913e-16
1.62914e-16
1.62915e-16
1.62915e-16
1.62915e-16
1.62915e-16
1.62914e-16
1.62913e-16
1.62911e-16
1.62908e-16
1.62905e-16
1.629e-16
1.62895e-16
1.62886e-16
1.62877e-16
1.62863e-16
1.62846e-16
1.62824e-16
1.62795e-16
1.62758e-16
1.62706e-16
1.62635e-16
1.62527e-16
1.62381e-16
1.62193e-16
1.61839e-16
1.61453e-16
1.60899e-16
1.60425e-16
1.61184e-16
1.61652e-16
1.62214e-16
1.62605e-16
1.6297e-16
1.63163e-16
1.63312e-16
1.63425e-16
1.635e-16
1.63553e-16
1.63592e-16
1.63621e-16
1.63645e-16
1.63661e-16
1.63676e-16
1.63686e-16
1.63694e-16
1.637e-16
1.63705e-16
1.63708e-16
1.63711e-16
1.63712e-16
1.63714e-16
1.63714e-16
1.63715e-16
1.63715e-16
1.63714e-16
1.63714e-16
1.63712e-16
1.63711e-16
1.63708e-16
1.63705e-16
1.637e-16
1.63694e-16
1.63685e-16
1.63676e-16
1.63661e-16
1.63644e-16
1.63621e-16
1.63592e-16
1.63553e-16
1.63499e-16
1.63425e-16
1.63312e-16
1.63162e-16
1.6297e-16
1.62605e-16
1.62214e-16
1.61652e-16
1.61185e-16
1.62108e-16
1.62567e-16
1.63136e-16
1.63533e-16
1.6391e-16
1.64107e-16
1.64261e-16
1.6438e-16
1.64457e-16
1.64513e-16
1.64553e-16
1.64583e-16
1.64607e-16
1.64624e-16
1.64639e-16
1.64649e-16
1.64658e-16
1.64664e-16
1.64669e-16
1.64672e-16
1.64675e-16
1.64677e-16
1.64678e-16
1.64679e-16
1.64679e-16
1.64679e-16
1.64679e-16
1.64678e-16
1.64676e-16
1.64675e-16
1.64672e-16
1.64669e-16
1.64664e-16
1.64658e-16
1.64649e-16
1.64639e-16
1.64624e-16
1.64607e-16
1.64583e-16
1.64553e-16
1.64512e-16
1.64457e-16
1.6438e-16
1.64262e-16
1.64106e-16
1.63909e-16
1.63533e-16
1.63137e-16
1.62568e-16
1.62108e-16
1.63186e-16
1.63642e-16
1.64217e-16
1.64618e-16
1.65002e-16
1.65203e-16
1.6536e-16
1.65485e-16
1.65564e-16
1.6562e-16
1.65661e-16
1.65692e-16
1.65717e-16
1.65734e-16
1.65749e-16
1.65759e-16
1.65769e-16
1.65774e-16
1.6578e-16
1.65783e-16
1.65786e-16
1.65787e-16
1.65789e-16
1.65789e-16
1.6579e-16
1.6579e-16
1.65789e-16
1.65789e-16
1.65787e-16
1.65786e-16
1.65782e-16
1.6578e-16
1.65774e-16
1.65768e-16
1.65759e-16
1.65749e-16
1.65734e-16
1.65716e-16
1.65691e-16
1.65661e-16
1.6562e-16
1.65563e-16
1.65485e-16
1.65361e-16
1.65202e-16
1.65001e-16
1.64618e-16
1.64217e-16
1.63642e-16
1.63187e-16
1.64355e-16
1.64806e-16
1.65387e-16
1.65793e-16
1.66181e-16
1.66386e-16
1.66545e-16
1.66674e-16
1.66755e-16
1.66812e-16
1.66854e-16
1.66885e-16
1.6691e-16
1.66928e-16
1.66943e-16
1.66953e-16
1.66963e-16
1.66968e-16
1.66974e-16
1.66977e-16
1.6698e-16
1.66981e-16
1.66983e-16
1.66984e-16
1.66984e-16
1.66984e-16
1.66984e-16
1.66983e-16
1.66981e-16
1.6698e-16
1.66977e-16
1.66974e-16
1.66968e-16
1.66963e-16
1.66953e-16
1.66943e-16
1.66927e-16
1.6691e-16
1.66884e-16
1.66854e-16
1.66812e-16
1.66754e-16
1.66674e-16
1.66546e-16
1.66385e-16
1.6618e-16
1.65793e-16
1.65388e-16
1.64807e-16
1.64356e-16
1.6563e-16
1.66077e-16
1.66663e-16
1.67072e-16
1.67461e-16
1.6767e-16
1.6783e-16
1.67963e-16
1.68045e-16
1.68103e-16
1.68145e-16
1.68176e-16
1.68201e-16
1.68219e-16
1.68235e-16
1.68245e-16
1.68255e-16
1.6826e-16
1.68266e-16
1.68269e-16
1.68272e-16
1.68273e-16
1.68275e-16
1.68276e-16
1.68276e-16
1.68276e-16
1.68276e-16
1.68275e-16
1.68273e-16
1.68272e-16
1.68269e-16
1.68266e-16
1.6826e-16
1.68254e-16
1.68245e-16
1.68235e-16
1.68219e-16
1.68201e-16
1.68175e-16
1.68145e-16
1.68102e-16
1.68044e-16
1.67963e-16
1.67831e-16
1.67669e-16
1.67461e-16
1.67072e-16
1.66663e-16
1.66078e-16
1.65631e-16
1.66992e-16
1.67436e-16
1.68025e-16
1.68436e-16
1.68823e-16
1.69036e-16
1.69195e-16
1.69331e-16
1.69413e-16
1.69472e-16
1.69514e-16
1.69544e-16
1.69571e-16
1.69588e-16
1.69604e-16
1.69614e-16
1.69624e-16
1.69629e-16
1.69635e-16
1.69638e-16
1.69641e-16
1.69643e-16
1.69644e-16
1.69645e-16
1.69645e-16
1.69645e-16
1.69645e-16
1.69644e-16
1.69643e-16
1.69641e-16
1.69638e-16
1.69635e-16
1.69629e-16
1.69624e-16
1.69614e-16
1.69604e-16
1.69588e-16
1.6957e-16
1.69544e-16
1.69514e-16
1.69471e-16
1.69413e-16
1.69331e-16
1.69196e-16
1.69035e-16
1.68823e-16
1.68437e-16
1.68025e-16
1.67436e-16
1.66993e-16
1.68451e-16
1.68891e-16
1.69483e-16
1.69898e-16
1.70281e-16
1.70498e-16
1.70657e-16
1.70794e-16
1.70877e-16
1.70936e-16
1.70978e-16
1.71008e-16
1.71034e-16
1.71052e-16
1.71068e-16
1.71078e-16
1.71088e-16
1.71093e-16
1.71099e-16
1.71102e-16
1.71105e-16
1.71106e-16
1.71108e-16
1.71109e-16
1.71109e-16
1.71109e-16
1.71109e-16
1.71108e-16
1.71106e-16
1.71105e-16
1.71102e-16
1.71099e-16
1.71093e-16
1.71088e-16
1.71078e-16
1.71068e-16
1.71051e-16
1.71034e-16
1.71008e-16
1.70977e-16
1.70935e-16
1.70877e-16
1.70794e-16
1.70657e-16
1.70496e-16
1.70281e-16
1.69898e-16
1.69483e-16
1.68891e-16
1.68451e-16
1.69969e-16
1.70406e-16
1.70994e-16
1.71408e-16
1.71784e-16
1.72001e-16
1.72157e-16
1.72294e-16
1.72377e-16
1.72435e-16
1.72476e-16
1.72506e-16
1.72532e-16
1.72549e-16
1.72566e-16
1.72575e-16
1.72585e-16
1.7259e-16
1.72596e-16
1.72599e-16
1.72602e-16
1.72604e-16
1.72605e-16
1.72606e-16
1.72606e-16
1.72606e-16
1.72606e-16
1.72605e-16
1.72604e-16
1.72602e-16
1.72599e-16
1.72596e-16
1.7259e-16
1.72585e-16
1.72575e-16
1.72565e-16
1.72549e-16
1.72532e-16
1.72506e-16
1.72476e-16
1.72435e-16
1.72376e-16
1.72294e-16
1.72157e-16
1.71999e-16
1.71783e-16
1.71408e-16
1.70994e-16
1.70406e-16
1.6997e-16
1.71509e-16
1.71941e-16
1.7252e-16
1.7293e-16
1.73297e-16
1.73513e-16
1.73664e-16
1.73759e-16
1.73841e-16
1.73898e-16
1.73938e-16
1.73968e-16
1.73993e-16
1.7401e-16
1.74026e-16
1.74035e-16
1.74045e-16
1.7405e-16
1.74056e-16
1.74059e-16
1.74062e-16
1.74063e-16
1.74065e-16
1.74066e-16
1.74066e-16
1.74066e-16
1.74066e-16
1.74065e-16
1.74063e-16
1.74062e-16
1.74059e-16
1.74056e-16
1.7405e-16
1.74045e-16
1.74035e-16
1.74026e-16
1.7401e-16
1.73993e-16
1.73967e-16
1.73938e-16
1.73898e-16
1.7384e-16
1.73759e-16
1.73664e-16
1.73512e-16
1.73297e-16
1.72931e-16
1.72521e-16
1.71941e-16
1.71509e-16
1.72998e-16
1.73423e-16
1.73993e-16
1.74395e-16
1.74751e-16
1.74963e-16
1.75109e-16
1.75203e-16
1.75285e-16
1.75341e-16
1.75381e-16
1.7541e-16
1.75435e-16
1.75451e-16
1.75467e-16
1.75476e-16
1.75486e-16
1.75491e-16
1.75497e-16
1.75499e-16
1.75503e-16
1.75504e-16
1.75506e-16
1.75506e-16
1.75507e-16
1.75507e-16
1.75506e-16
1.75506e-16
1.75504e-16
1.75503e-16
1.75499e-16
1.75497e-16
1.75491e-16
1.75486e-16
1.75476e-16
1.75467e-16
1.75451e-16
1.75434e-16
1.75409e-16
1.7538e-16
1.75341e-16
1.75284e-16
1.75203e-16
1.75109e-16
1.74962e-16
1.74751e-16
1.74395e-16
1.73993e-16
1.73423e-16
1.72998e-16
1.74453e-16
1.74869e-16
1.75425e-16
1.75814e-16
1.76159e-16
1.76365e-16
1.76504e-16
1.76596e-16
1.76675e-16
1.76729e-16
1.76767e-16
1.76794e-16
1.76819e-16
1.76835e-16
1.7685e-16
1.76859e-16
1.76868e-16
1.76873e-16
1.76879e-16
1.76881e-16
1.76884e-16
1.76886e-16
1.76887e-16
1.76888e-16
1.76888e-16
1.76888e-16
1.76888e-16
1.76887e-16
1.76886e-16
1.76884e-16
1.76881e-16
1.76879e-16
1.76873e-16
1.76868e-16
1.76858e-16
1.7685e-16
1.76834e-16
1.76818e-16
1.76794e-16
1.76766e-16
1.76729e-16
1.76674e-16
1.76596e-16
1.76504e-16
1.76364e-16
1.76158e-16
1.75815e-16
1.75425e-16
1.74869e-16
1.74453e-16
1.75876e-16
1.7628e-16
1.76821e-16
1.77192e-16
1.77522e-16
1.7772e-16
1.77852e-16
1.7794e-16
1.78016e-16
1.78068e-16
1.78103e-16
1.7813e-16
1.78153e-16
1.78168e-16
1.78183e-16
1.78191e-16
1.782e-16
1.78205e-16
1.78211e-16
1.78213e-16
1.78216e-16
1.78217e-16
1.78219e-16
1.7822e-16
1.7822e-16
1.7822e-16
1.7822e-16
1.78219e-16
1.78217e-16
1.78216e-16
1.78213e-16
1.78211e-16
1.78205e-16
1.782e-16
1.78191e-16
1.78183e-16
1.78168e-16
1.78153e-16
1.7813e-16
1.78103e-16
1.78068e-16
1.78016e-16
1.7794e-16
1.77852e-16
1.77719e-16
1.77522e-16
1.77192e-16
1.76821e-16
1.76281e-16
1.75877e-16
1.77207e-16
1.77597e-16
1.78089e-16
1.78429e-16
1.78743e-16
1.7893e-16
1.79052e-16
1.79136e-16
1.79207e-16
1.79256e-16
1.79289e-16
1.79314e-16
1.79336e-16
1.7935e-16
1.79364e-16
1.79372e-16
1.79381e-16
1.79385e-16
1.7939e-16
1.79393e-16
1.79396e-16
1.79397e-16
1.79398e-16
1.79399e-16
1.79399e-16
1.79399e-16
1.79399e-16
1.79398e-16
1.79397e-16
1.79396e-16
1.79393e-16
1.7939e-16
1.79385e-16
1.79381e-16
1.79372e-16
1.79364e-16
1.7935e-16
1.79335e-16
1.79314e-16
1.79289e-16
1.79256e-16
1.79207e-16
1.79136e-16
1.79053e-16
1.78929e-16
1.78742e-16
1.78429e-16
1.78089e-16
1.77597e-16
1.77207e-16
1.78373e-16
1.78746e-16
1.79212e-16
1.79527e-16
1.79821e-16
1.79994e-16
1.80107e-16
1.80185e-16
1.8025e-16
1.80295e-16
1.80326e-16
1.80349e-16
1.80369e-16
1.80383e-16
1.80396e-16
1.80404e-16
1.80412e-16
1.80416e-16
1.80421e-16
1.80423e-16
1.80426e-16
1.80427e-16
1.80429e-16
1.80429e-16
1.8043e-16
1.8043e-16
1.80429e-16
1.80429e-16
1.80427e-16
1.80426e-16
1.80423e-16
1.80421e-16
1.80416e-16
1.80412e-16
1.80404e-16
1.80396e-16
1.80383e-16
1.80369e-16
1.80349e-16
1.80325e-16
1.80295e-16
1.8025e-16
1.80185e-16
1.80107e-16
1.79994e-16
1.79821e-16
1.79527e-16
1.79212e-16
1.78746e-16
1.78373e-16
1.79395e-16
1.79751e-16
1.80183e-16
1.80472e-16
1.80745e-16
1.80902e-16
1.81003e-16
1.81074e-16
1.81132e-16
1.81173e-16
1.81201e-16
1.81222e-16
1.8124e-16
1.81253e-16
1.81265e-16
1.81272e-16
1.8128e-16
1.81284e-16
1.81288e-16
1.81291e-16
1.81293e-16
1.81294e-16
1.81296e-16
1.81296e-16
1.81297e-16
1.81297e-16
1.81296e-16
1.81296e-16
1.81294e-16
1.81293e-16
1.8129e-16
1.81288e-16
1.81284e-16
1.8128e-16
1.81272e-16
1.81265e-16
1.81253e-16
1.8124e-16
1.81222e-16
1.812e-16
1.81173e-16
1.81132e-16
1.81074e-16
1.81003e-16
1.80901e-16
1.80745e-16
1.80472e-16
1.80183e-16
1.79751e-16
1.79395e-16
1.80229e-16
1.80541e-16
1.80931e-16
1.81193e-16
1.81439e-16
1.81579e-16
1.81668e-16
1.8173e-16
1.81782e-16
1.81818e-16
1.81842e-16
1.81861e-16
1.81877e-16
1.81889e-16
1.81899e-16
1.81906e-16
1.81913e-16
1.81917e-16
1.81921e-16
1.81923e-16
1.81925e-16
1.81926e-16
1.81928e-16
1.81928e-16
1.81928e-16
1.81928e-16
1.81928e-16
1.81928e-16
1.81926e-16
1.81925e-16
1.81923e-16
1.81921e-16
1.81917e-16
1.81913e-16
1.81906e-16
1.81899e-16
1.81889e-16
1.81877e-16
1.81861e-16
1.81842e-16
1.81817e-16
1.81782e-16
1.8173e-16
1.81668e-16
1.81578e-16
1.81439e-16
1.81194e-16
1.80931e-16
1.80541e-16
1.80229e-16
1.80817e-16
1.81105e-16
1.81447e-16
1.8168e-16
1.81895e-16
1.82015e-16
1.82091e-16
1.82144e-16
1.82188e-16
1.82219e-16
1.8224e-16
1.82256e-16
1.8227e-16
1.82281e-16
1.8229e-16
1.82296e-16
1.82302e-16
1.82306e-16
1.82309e-16
1.82311e-16
1.82313e-16
1.82314e-16
1.82316e-16
1.82316e-16
1.82316e-16
1.82316e-16
1.82316e-16
1.82316e-16
1.82314e-16
1.82313e-16
1.82311e-16
1.82309e-16
1.82306e-16
1.82302e-16
1.82296e-16
1.8229e-16
1.82281e-16
1.8227e-16
1.82256e-16
1.82239e-16
1.82219e-16
1.82188e-16
1.82144e-16
1.82091e-16
1.82015e-16
1.81895e-16
1.81681e-16
1.81447e-16
1.81105e-16
1.80817e-16
1.81157e-16
1.81416e-16
1.81705e-16
1.81906e-16
1.82085e-16
1.82184e-16
1.82244e-16
1.82287e-16
1.82323e-16
1.82348e-16
1.82365e-16
1.82378e-16
1.8239e-16
1.82399e-16
1.82407e-16
1.82412e-16
1.82417e-16
1.8242e-16
1.82423e-16
1.82425e-16
1.82427e-16
1.82428e-16
1.82429e-16
1.8243e-16
1.8243e-16
1.8243e-16
1.8243e-16
1.82429e-16
1.82428e-16
1.82427e-16
1.82425e-16
1.82423e-16
1.8242e-16
1.82417e-16
1.82412e-16
1.82407e-16
1.82399e-16
1.8239e-16
1.82378e-16
1.82364e-16
1.82347e-16
1.82323e-16
1.82287e-16
1.82244e-16
1.82183e-16
1.82084e-16
1.81906e-16
1.81705e-16
1.81416e-16
1.81157e-16
1.8121e-16
1.81436e-16
1.81668e-16
1.81836e-16
1.81976e-16
1.82052e-16
1.82097e-16
1.8213e-16
1.82157e-16
1.82175e-16
1.82188e-16
1.82199e-16
1.82208e-16
1.82216e-16
1.82221e-16
1.82226e-16
1.8223e-16
1.82233e-16
1.82236e-16
1.82238e-16
1.82239e-16
1.8224e-16
1.82241e-16
1.82241e-16
1.82241e-16
1.82241e-16
1.82241e-16
1.82241e-16
1.8224e-16
1.82239e-16
1.82238e-16
1.82236e-16
1.82233e-16
1.8223e-16
1.82226e-16
1.82221e-16
1.82215e-16
1.82208e-16
1.82199e-16
1.82188e-16
1.82175e-16
1.82157e-16
1.8213e-16
1.82097e-16
1.82052e-16
1.81976e-16
1.81836e-16
1.81668e-16
1.81436e-16
1.8121e-16
1.80957e-16
1.81148e-16
1.81317e-16
1.81446e-16
1.81544e-16
1.81593e-16
1.81621e-16
1.81642e-16
1.8166e-16
1.81671e-16
1.81679e-16
1.81687e-16
1.81693e-16
1.81699e-16
1.81703e-16
1.81708e-16
1.8171e-16
1.81713e-16
1.81715e-16
1.81717e-16
1.81718e-16
1.81719e-16
1.81719e-16
1.8172e-16
1.8172e-16
1.8172e-16
1.8172e-16
1.81719e-16
1.81719e-16
1.81718e-16
1.81717e-16
1.81715e-16
1.81713e-16
1.8171e-16
1.81708e-16
1.81703e-16
1.81699e-16
1.81693e-16
1.81687e-16
1.81679e-16
1.81671e-16
1.81659e-16
1.81642e-16
1.81621e-16
1.81593e-16
1.81544e-16
1.81446e-16
1.81317e-16
1.81148e-16
1.80957e-16
1.80363e-16
1.80534e-16
1.80637e-16
1.80727e-16
1.80782e-16
1.80804e-16
1.80816e-16
1.80824e-16
1.80833e-16
1.80838e-16
1.80841e-16
1.80846e-16
1.80849e-16
1.80854e-16
1.80856e-16
1.8086e-16
1.80861e-16
1.80864e-16
1.80865e-16
1.80866e-16
1.80867e-16
1.80868e-16
1.80868e-16
1.80869e-16
1.80869e-16
1.80869e-16
1.80869e-16
1.80868e-16
1.80868e-16
1.80867e-16
1.80866e-16
1.80865e-16
1.80864e-16
1.80861e-16
1.8086e-16
1.80856e-16
1.80854e-16
1.80849e-16
1.80846e-16
1.80841e-16
1.80837e-16
1.80832e-16
1.80824e-16
1.80816e-16
1.80804e-16
1.80782e-16
1.80727e-16
1.80637e-16
1.80534e-16
1.80363e-16
1.79442e-16
1.79579e-16
1.79611e-16
1.7966e-16
1.79668e-16
1.79658e-16
1.79653e-16
1.79646e-16
1.79645e-16
1.79642e-16
1.7964e-16
1.79642e-16
1.79642e-16
1.79645e-16
1.79645e-16
1.79648e-16
1.79648e-16
1.79651e-16
1.79651e-16
1.79652e-16
1.79652e-16
1.79653e-16
1.79654e-16
1.79654e-16
1.79654e-16
1.79654e-16
1.79654e-16
1.79654e-16
1.79653e-16
1.79652e-16
1.79652e-16
1.79651e-16
1.7965e-16
1.79648e-16
1.79648e-16
1.79645e-16
1.79645e-16
1.79641e-16
1.79642e-16
1.7964e-16
1.79642e-16
1.79644e-16
1.79646e-16
1.79652e-16
1.79658e-16
1.79668e-16
1.7966e-16
1.79611e-16
1.79579e-16
1.79442e-16
1.7814e-16
1.78238e-16
1.78229e-16
1.78238e-16
1.78197e-16
1.78158e-16
1.78136e-16
1.78116e-16
1.78105e-16
1.78096e-16
1.78089e-16
1.78088e-16
1.78085e-16
1.78086e-16
1.78085e-16
1.78087e-16
1.78086e-16
1.78088e-16
1.78088e-16
1.78089e-16
1.78089e-16
1.7809e-16
1.7809e-16
1.7809e-16
1.7809e-16
1.7809e-16
1.7809e-16
1.7809e-16
1.7809e-16
1.78089e-16
1.78089e-16
1.78088e-16
1.78088e-16
1.78086e-16
1.78087e-16
1.78085e-16
1.78086e-16
1.78085e-16
1.78088e-16
1.78089e-16
1.78095e-16
1.78105e-16
1.78116e-16
1.78136e-16
1.78157e-16
1.78197e-16
1.78237e-16
1.78229e-16
1.78238e-16
1.7814e-16
1.76503e-16
1.76564e-16
1.76476e-16
1.76437e-16
1.7634e-16
1.76266e-16
1.76228e-16
1.76191e-16
1.76171e-16
1.76153e-16
1.76141e-16
1.76136e-16
1.7613e-16
1.7613e-16
1.76127e-16
1.76128e-16
1.76126e-16
1.76128e-16
1.76127e-16
1.76128e-16
1.76127e-16
1.76128e-16
1.76128e-16
1.76128e-16
1.76128e-16
1.76128e-16
1.76128e-16
1.76128e-16
1.76128e-16
1.76127e-16
1.76128e-16
1.76126e-16
1.76128e-16
1.76126e-16
1.76128e-16
1.76127e-16
1.7613e-16
1.7613e-16
1.76136e-16
1.76141e-16
1.76153e-16
1.76171e-16
1.76191e-16
1.76227e-16
1.76266e-16
1.7634e-16
1.76436e-16
1.76476e-16
1.76564e-16
1.76503e-16
1.74455e-16
1.74475e-16
1.74307e-16
1.74227e-16
1.74143e-16
1.7404e-16
1.73986e-16
1.73935e-16
1.73907e-16
1.73882e-16
1.73866e-16
1.73858e-16
1.73849e-16
1.73848e-16
1.73842e-16
1.73843e-16
1.7384e-16
1.73841e-16
1.73839e-16
1.73841e-16
1.73839e-16
1.7384e-16
1.7384e-16
1.7384e-16
1.7384e-16
1.7384e-16
1.7384e-16
1.7384e-16
1.7384e-16
1.73839e-16
1.73841e-16
1.73839e-16
1.73841e-16
1.7384e-16
1.73843e-16
1.73842e-16
1.73848e-16
1.73849e-16
1.73858e-16
1.73866e-16
1.73881e-16
1.73906e-16
1.73935e-16
1.73986e-16
1.7404e-16
1.74143e-16
1.74227e-16
1.74306e-16
1.74475e-16
1.74455e-16
1.72098e-16
1.7208e-16
1.71835e-16
1.71718e-16
1.71594e-16
1.71462e-16
1.71395e-16
1.71329e-16
1.71293e-16
1.71261e-16
1.71241e-16
1.7123e-16
1.71219e-16
1.71216e-16
1.71209e-16
1.71209e-16
1.71205e-16
1.71206e-16
1.71203e-16
1.71205e-16
1.71203e-16
1.71204e-16
1.71203e-16
1.71204e-16
1.71204e-16
1.71204e-16
1.71204e-16
1.71203e-16
1.71204e-16
1.71203e-16
1.71205e-16
1.71203e-16
1.71206e-16
1.71205e-16
1.71209e-16
1.71209e-16
1.71216e-16
1.71219e-16
1.7123e-16
1.71241e-16
1.71261e-16
1.71293e-16
1.71329e-16
1.71394e-16
1.71462e-16
1.71594e-16
1.71717e-16
1.71835e-16
1.7208e-16
1.72097e-16
1.69351e-16
1.69293e-16
1.69021e-16
1.68867e-16
1.68707e-16
1.68548e-16
1.68467e-16
1.68387e-16
1.68344e-16
1.68306e-16
1.68281e-16
1.68268e-16
1.68254e-16
1.6825e-16
1.68242e-16
1.68241e-16
1.68236e-16
1.68237e-16
1.68234e-16
1.68235e-16
1.68233e-16
1.68234e-16
1.68233e-16
1.68234e-16
1.68233e-16
1.68233e-16
1.68233e-16
1.68233e-16
1.68234e-16
1.68233e-16
1.68235e-16
1.68234e-16
1.68237e-16
1.68236e-16
1.68241e-16
1.68242e-16
1.6825e-16
1.68254e-16
1.68268e-16
1.68281e-16
1.68305e-16
1.68344e-16
1.68387e-16
1.68466e-16
1.68547e-16
1.68707e-16
1.68867e-16
1.6902e-16
1.69293e-16
1.69351e-16
1.66318e-16
1.66223e-16
1.65883e-16
1.65694e-16
1.65501e-16
1.65314e-16
1.65222e-16
1.65124e-16
1.6507e-16
1.65023e-16
1.64993e-16
1.64976e-16
1.64959e-16
1.64953e-16
1.64943e-16
1.64942e-16
1.64935e-16
1.64935e-16
1.64931e-16
1.64932e-16
1.6493e-16
1.64931e-16
1.6493e-16
1.6493e-16
1.6493e-16
1.6493e-16
1.6493e-16
1.6493e-16
1.64931e-16
1.6493e-16
1.64932e-16
1.64931e-16
1.64935e-16
1.64935e-16
1.64942e-16
1.64943e-16
1.64954e-16
1.64959e-16
1.64976e-16
1.64993e-16
1.65023e-16
1.6507e-16
1.65123e-16
1.65222e-16
1.65314e-16
1.65501e-16
1.65694e-16
1.65883e-16
1.66223e-16
1.66318e-16
1.6298e-16
1.62848e-16
1.62446e-16
1.62222e-16
1.62e-16
1.61787e-16
1.61684e-16
1.61573e-16
1.61514e-16
1.61461e-16
1.61428e-16
1.61408e-16
1.61389e-16
1.61382e-16
1.6137e-16
1.61368e-16
1.6136e-16
1.61361e-16
1.61356e-16
1.61357e-16
1.61354e-16
1.61356e-16
1.61354e-16
1.61355e-16
1.61354e-16
1.61354e-16
1.61355e-16
1.61354e-16
1.61355e-16
1.61354e-16
1.61357e-16
1.61356e-16
1.61361e-16
1.6136e-16
1.61368e-16
1.6137e-16
1.61382e-16
1.61389e-16
1.61408e-16
1.61428e-16
1.61461e-16
1.61513e-16
1.61573e-16
1.61683e-16
1.61787e-16
1.62e-16
1.62222e-16
1.62446e-16
1.62848e-16
1.62979e-16
1.59362e-16
1.59195e-16
1.58736e-16
1.58478e-16
1.58231e-16
1.57994e-16
1.57881e-16
1.5776e-16
1.57695e-16
1.57637e-16
1.576e-16
1.57579e-16
1.57558e-16
1.5755e-16
1.57536e-16
1.57534e-16
1.57526e-16
1.57526e-16
1.57521e-16
1.57522e-16
1.57519e-16
1.5752e-16
1.57518e-16
1.57519e-16
1.57518e-16
1.57518e-16
1.57519e-16
1.57518e-16
1.5752e-16
1.57518e-16
1.57522e-16
1.57521e-16
1.57526e-16
1.57526e-16
1.57534e-16
1.57536e-16
1.5755e-16
1.57558e-16
1.57579e-16
1.57601e-16
1.57636e-16
1.57694e-16
1.5776e-16
1.57881e-16
1.57994e-16
1.58231e-16
1.58478e-16
1.58735e-16
1.59194e-16
1.59362e-16
1.55496e-16
1.55294e-16
1.54782e-16
1.54495e-16
1.54225e-16
1.53968e-16
1.53846e-16
1.53716e-16
1.53645e-16
1.53582e-16
1.53544e-16
1.5352e-16
1.53498e-16
1.53489e-16
1.53474e-16
1.53472e-16
1.53462e-16
1.53463e-16
1.53457e-16
1.53458e-16
1.53454e-16
1.53455e-16
1.53454e-16
1.53454e-16
1.53454e-16
1.53454e-16
1.53454e-16
1.53454e-16
1.53455e-16
1.53454e-16
1.53458e-16
1.53457e-16
1.53463e-16
1.53462e-16
1.53472e-16
1.53474e-16
1.53489e-16
1.53498e-16
1.5352e-16
1.53544e-16
1.53582e-16
1.53645e-16
1.53715e-16
1.53845e-16
1.53967e-16
1.54225e-16
1.54494e-16
1.54782e-16
1.55294e-16
1.55495e-16
1.51404e-16
1.51157e-16
1.50619e-16
1.50305e-16
1.50017e-16
1.49742e-16
1.49612e-16
1.49475e-16
1.494e-16
1.49334e-16
1.49293e-16
1.49268e-16
1.49243e-16
1.49234e-16
1.49218e-16
1.49216e-16
1.49205e-16
1.49206e-16
1.49199e-16
1.492e-16
1.49197e-16
1.49198e-16
1.49196e-16
1.49197e-16
1.49196e-16
1.49196e-16
1.49197e-16
1.49196e-16
1.49198e-16
1.49197e-16
1.492e-16
1.49199e-16
1.49206e-16
1.49205e-16
1.49216e-16
1.49218e-16
1.49234e-16
1.49244e-16
1.49268e-16
1.49293e-16
1.49334e-16
1.494e-16
1.49474e-16
1.49612e-16
1.49742e-16
1.50017e-16
1.50305e-16
1.50619e-16
1.51157e-16
1.51404e-16
1.4714e-16
1.46863e-16
1.46282e-16
1.45946e-16
1.45642e-16
1.45355e-16
1.45216e-16
1.45073e-16
1.44996e-16
1.44926e-16
1.44883e-16
1.44857e-16
1.44832e-16
1.44822e-16
1.44805e-16
1.44802e-16
1.44791e-16
1.44792e-16
1.44785e-16
1.44786e-16
1.44782e-16
1.44783e-16
1.44781e-16
1.44782e-16
1.44781e-16
1.44781e-16
1.44782e-16
1.44781e-16
1.44783e-16
1.44782e-16
1.44786e-16
1.44785e-16
1.44792e-16
1.44791e-16
1.44802e-16
1.44805e-16
1.44822e-16
1.44832e-16
1.44857e-16
1.44883e-16
1.44926e-16
1.44995e-16
1.45073e-16
1.45216e-16
1.45354e-16
1.45642e-16
1.45946e-16
1.46282e-16
1.46863e-16
1.47139e-16
1.42732e-16
1.42429e-16
1.41808e-16
1.41454e-16
1.41139e-16
1.40841e-16
1.40696e-16
1.40548e-16
1.40469e-16
1.40398e-16
1.40353e-16
)
;

boundaryField
{
    fuel
    {
        type            fixedValue;
        value           nonuniform 0();
    }
    wall
    {
        type            zeroGradient;
    }
    outlet
    {
        type            zeroGradient;
    }
    frontAndBack
    {
        type            empty;
    }
    procBoundary2to0
    {
        type            processor;
        value           nonuniform List<scalar> 
53
(
1.60819e-16
1.61399e-16
1.61948e-16
1.62302e-16
1.62539e-16
1.62705e-16
1.62794e-16
1.62863e-16
1.62904e-16
1.62939e-16
1.62961e-16
1.62982e-16
1.62994e-16
1.63008e-16
1.63015e-16
1.63024e-16
1.63028e-16
1.63034e-16
1.62306e-16
1.62306e-16
1.62309e-16
1.62311e-16
1.62312e-16
1.62313e-16
1.62314e-16
1.62314e-16
1.62314e-16
1.62314e-16
1.62313e-16
1.618e-16
1.618e-16
1.61798e-16
1.61797e-16
1.61793e-16
1.6179e-16
1.61785e-16
1.61779e-16
1.6177e-16
1.61761e-16
1.61747e-16
1.61732e-16
1.61709e-16
1.61375e-16
1.61375e-16
1.61333e-16
1.61281e-16
1.61198e-16
1.61087e-16
1.60913e-16
1.60635e-16
1.6027e-16
1.59734e-16
1.59206e-16
)
;
    }
    procBoundary2to3
    {
        type            processor;
        value           nonuniform List<scalar> 
51
(
1.40325e-16
1.40299e-16
1.40289e-16
1.40272e-16
1.40269e-16
1.40258e-16
1.40258e-16
1.40251e-16
1.40252e-16
1.40248e-16
1.40249e-16
1.40247e-16
1.40247e-16
1.40247e-16
1.40247e-16
1.40247e-16
1.40247e-16
1.40249e-16
1.40248e-16
1.40252e-16
1.40251e-16
1.40258e-16
1.40258e-16
1.40269e-16
1.40272e-16
1.40289e-16
1.403e-16
1.40325e-16
1.40353e-16
1.40398e-16
1.40469e-16
1.40548e-16
1.40696e-16
1.40841e-16
1.41139e-16
1.41454e-16
1.41808e-16
1.42429e-16
1.42732e-16
1.38219e-16
1.37894e-16
1.37235e-16
1.36868e-16
1.36544e-16
1.3624e-16
1.36088e-16
1.35938e-16
1.35857e-16
1.35784e-16
1.40325e-16
1.35739e-16
)
;
    }
}


// ************************************************************************* //
