/*--------------------------------*- C++ -*----------------------------------*\
| =========                 |                                                 |
| \\      /  F ield         | OpenFOAM: The Open Source CFD Toolbox           |
|  \\    /   O peration     | Version:  dev                                   |
|   \\  /    A nd           | Web:      www.OpenFOAM.org                      |
|    \\/     M anipulation  |                                                 |
\*---------------------------------------------------------------------------*/
FoamFile
{
    version     2.0;
    format      ascii;
    class       volVectorField;
    location    "0.095";
    object      U;
}
// * * * * * * * * * * * * * * * * * * * * * * * * * * * * * * * * * * * * * //

dimensions      [0 1 -1 0 0 0 0];

internalField   nonuniform List<vector> 
250
(
(0 0.0874786 0.12286)
(0 0.0494014 0.478601)
(0 0.089428 0.49185)
(0 0.0463998 0.494671)
(0 0.0554247 0.493549)
(0 0.0345693 0.494261)
(0 0.0357073 0.49411)
(0 0.0171694 0.494189)
(0 0.020331 0.494484)
(0 0.149037 0.158887)
(0 0.0782829 0.665145)
(0 0.158176 0.688899)
(0 0.085431 0.693489)
(0 0.100849 0.69155)
(0 0.0638638 0.692815)
(0 0.0649544 0.692639)
(0 0.0331441 0.69281)
(0 0.0373157 0.693244)
(0 0.178971 0.18684)
(0 0.104396 0.690444)
(0 0.218419 0.732006)
(0 0.122178 0.738157)
(0 0.142838 0.735647)
(0 0.0918882 0.737496)
(0 0.0922445 0.737069)
(0 0.0498361 0.736614)
(0 0.0537646 0.737211)
(0 0.199277 0.213505)
(0 0.129201 0.669118)
(0 0.273693 0.724428)
(0 0.15864 0.730815)
(0 0.183199 0.72823)
(0 0.119852 0.730385)
(0 0.118748 0.729765)
(0 0.0650987 0.729716)
(0 0.0677483 0.730363)
(0 0.216742 0.241155)
(0 0.159897 0.65251)
(0 0.326393 0.719241)
(0 0.19649 0.724798)
(0 0.223227 0.72243)
(0 0.148886 0.724618)
(0 0.145436 0.723915)
(0 0.0835079 0.724011)
(0 0.0834761 0.724679)
(0 0.235265 0.270206)
(0 0.194349 0.644383)
(0 0.377562 0.718516)
(0 0.236252 0.722535)
(0 0.263352 0.720507)
(0 0.179103 0.722486)
(0 0.17241 0.721862)
(0 0.102738 0.722091)
(0 0.0989108 0.722725)
(0 0.258037 0.301071)
(0 0.23229 0.639463)
(0 0.427262 0.718002)
(0 0.277507 0.719943)
(0 0.303329 0.718298)
(0 0.209981 0.719983)
(0 0.199291 0.719467)
(0 0.12221 0.719678)
(0 0.113731 0.720224)
(0 0.287101 0.334938)
(0 0.273138 0.636112)
(0 0.475267 0.716572)
(0 0.3195 0.716)
(0 0.34268 0.714716)
(0 0.240863 0.716118)
(0 0.225625 0.715693)
(0 0.14137 0.715816)
(0 0.127667 0.716251)
(0 0.323155 0.373843)
(0 0.316358 0.63425)
(0 0.521445 0.714558)
(0 0.361545 0.71117)
(0 0.381031 0.710137)
(0 0.271249 0.711169)
(0 0.251097 0.710928)
(0 0.159852 0.71093)
(0 0.140589 0.711255)
(0 0.365656 0.419108)
(0 0.361599 0.633839)
(0 0.565858 0.712214)
(0 0.403166 0.705827)
(0 0.418179 0.704884)
(0 0.300847 0.705477)
(0 0.275568 0.705494)
(0 0.177486 0.705347)
(0 0.152494 0.705581)
(0 0.413254 0.468686)
(0 0.40864 0.634626)
(0 0.608723 0.709548)
(0 0.444072 0.700087)
(0 0.454065 0.699038)
(0 0.32953 0.699171)
(0 0.299025 0.699477)
(0 0.194231 0.699152)
(0 0.163466 0.699316)
(0 0.0362279 0.701101)
(0 0.464671 0.517122)
(0 0.457224 0.636178)
(0 0.650345 0.706475)
(0 0.484099 0.69397)
(0 0.488711 0.692597)
(0 0.357266 0.692275)
(0 0.321526 0.692887)
(0 0.210124 0.692357)
(0 0.173622 0.692476)
(0 0.0401448 0.694765)
(0 0.519231 0.559105)
(0 0.506987 0.638017)
(0 0.691061 0.702898)
(0 0.523153 0.687466)
(0 0.522177 0.685552)
(0 0.384079 0.684801)
(0 0.343157 0.685723)
(0 0.225234 0.684967)
(0 0.183095 0.685066)
(0 0.0434815 0.687817)
(0 0.576756 0.592814)
(0 0.557568 0.63961)
(0 0.731157 0.698738)
(0 0.561203 0.680539)
(0 0.554542 0.677909)
(0 0.410017 0.676755)
(0 0.364012 0.677982)
(0 0.239643 0.676985)
(0 0.192011 0.67709)
(0 0.0463214 0.680287)
(0 0.637211 0.619018)
(0 0.608635 0.640778)
(0 0.770815 0.693914)
(0 0.598271 0.673159)
(0 0.585916 0.669663)
(0 0.43514 0.668139)
(0 0.38418 0.669666)
(0 0.25343 0.668411)
(0 0.20048 0.668542)
(0 0.0487499 0.672162)
(0 0.700376 0.639345)
(0 0.660005 0.641224)
(0 0.810168 0.688363)
(0 0.634388 0.665288)
(0 0.616399 0.660809)
(0 0.459509 0.658951)
(0 0.40374 0.660773)
(0 0.266674 0.65924)
(0 0.208583 0.659414)
(0 0.0508552 0.663434)
(0 0.765844 0.655027)
(0 0.711595 0.640798)
(0 0.849305 0.682027)
(0 0.669598 0.656887)
(0 0.646081 0.651341)
(0 0.483182 0.649187)
(0 0.422758 0.651295)
(0 0.279442 0.64947)
(0 0.216386 0.649704)
(0 0.0527129 0.654084)
(0 0.83313 0.666878)
(0 0.763351 0.639392)
(0 0.888273 0.67486)
(0 0.703944 0.647918)
(0 0.675039 0.641255)
(0 0.506215 0.638842)
(0 0.441285 0.641226)
(0 0.291794 0.639093)
(0 0.223945 0.639405)
(0 0.0543878 0.644093)
(0 0.901718 0.675107)
(0 0.81521 0.636915)
(0 0.927084 0.666824)
(0 0.737468 0.638353)
(0 0.703336 0.630542)
(0 0.528652 0.627905)
(0 0.45936 0.630554)
(0 0.303785 0.628094)
(0 0.231302 0.628505)
(0 0.0559329 0.633452)
(0 0.971131 0.679947)
(0 0.867052 0.633319)
(0 0.965715 0.657878)
(0 0.770202 0.628159)
(0 0.731015 0.619194)
(0 0.550534 0.616365)
(0 0.477011 0.619269)
(0 0.315455 0.616469)
(0 0.238489 0.617033)
(0 0.0573922 0.622169)
(0 1.04092 0.681914)
(0 0.918734 0.628554)
(0 1.00411 0.64798)
(0 0.80217 0.617287)
(0 0.758105 0.607204)
(0 0.57189 0.60421)
(0 0.494253 0.607364)
(0 0.326833 0.604232)
(0 0.245524 0.605017)
(0 0.0588036 0.610265)
(0 1.11067 0.681202)
(0 0.970083 0.6226)
(0 1.0422 0.637093)
(0 0.833386 0.605714)
(0 0.784613 0.59458)
(0 0.592738 0.591445)
(0 0.51109 0.594843)
(0 0.337935 0.591392)
(0 0.252419 0.59231)
(0 0.0601959 0.597721)
(0 1.18001 0.67788)
(0 1.02089 0.615404)
(0 1.07986 0.625183)
(0 0.863848 0.593423)
(0 0.810529 0.581318)
(0 0.613086 0.578061)
(0 0.527514 0.581702)
(0 0.348787 0.577913)
(0 0.25918 0.578877)
(0 0.0615783 0.584492)
(0 1.24862 0.67206)
(0 1.07089 0.606905)
(0 1.11697 0.612227)
(0 0.893541 0.580367)
(0 0.835826 0.567401)
(0 0.632932 0.564032)
(0 0.543512 0.567918)
(0 0.359389 0.563775)
(0 0.265804 0.564845)
(0 0.0629636 0.570562)
(0 1.31619 0.663928)
(0 1.11984 0.59711)
(0 1.15337 0.598245)
(0 0.92244 0.566528)
(0 0.860463 0.552842)
(0 0.652261 0.549377)
(0 0.559059 0.553513)
(0 0.369733 0.549011)
(0 0.27228 0.550226)
(0 0.0643613 0.555984)
(0 1.38247 0.653679)
(0 1.16743 0.586008)
(0 1.18891 0.583273)
(0 0.950502 0.551943)
(0 0.884377 0.537632)
(0 0.671047 0.534074)
(0 0.57412 0.538465)
(0 0.379804 0.533608)
(0 0.278594 0.534985)
(0 0.0657749 0.540739)
)
;

boundaryField
{
    fuel
    {
        type            fixedValue;
        value           uniform (0 0 0.1055);
    }
    wall
    {
        type            slip;
    }
    outlet
    {
        type            pressureInletOutletVelocity;
        value           nonuniform List<vector> 
26
(
(0 0.0874786 0.12286)
(0 0.149037 0.158887)
(0 0.178971 0.18684)
(0 0.199277 0.213505)
(0 0.216742 0.241155)
(0 0.235265 0.270206)
(0 0.258037 0.301071)
(0 0.287101 0.334938)
(0 0.323155 0.373843)
(0 0.365656 0.419108)
(0 0.413254 0.468686)
(0 0.464671 0.517122)
(0 0.519231 0.559105)
(0 0.576756 0.592814)
(0 0.637211 0.619018)
(0 0.700376 0.639345)
(0 0.765844 0.655027)
(0 0.83313 0.666878)
(0 0.901718 0.675107)
(0 0.971131 0.679947)
(0 1.04092 0.681914)
(0 1.11067 0.681202)
(0 1.18001 0.67788)
(0 1.24862 0.67206)
(0 1.31619 0.663928)
(0 1.38247 0.653679)
)
;
    }
    frontAndBack
    {
        type            empty;
    }
    procBoundary2to0
    {
        type            processor;
        value           nonuniform List<vector> 
12
(
(0 0.00545416 0.540439)
(0 1.44727 0.641469)
(0 1.21334 0.57356)
(0 1.22337 0.567313)
(0 0.977676 0.536608)
(0 0.907503 0.521747)
(0 0.689254 0.518101)
(0 0.588651 0.522755)
(0 0.389579 0.517548)
(0 0.284724 0.519082)
(0 0.00232177 0.524895)
(0 0.0671997 0.524804)
)
;
    }
    procBoundary2to3
    {
        type            processor;
        value           nonuniform List<vector> 
25
(
(0 -0.00470167 0.494081)
(0 -0.00649753 0.69265)
(0 -0.0057839 0.736388)
(0 -0.00320416 0.729507)
(0 0.00162641 0.723961)
(0 0.00764617 0.722264)
(0 0.0141274 0.720113)
(0 0.0204994 0.716553)
(0 0.0264013 0.712036)
(0 0.0316584 0.706856)
(0 0.0316584 0.706856)
(0 0.0530918 0.695902)
(0 0.0513016 0.688535)
(0 0.0487954 0.680596)
(0 0.0457607 0.67209)
(0 0.0423525 0.66302)
(0 0.038695 0.653384)
(0 0.0348868 0.643176)
(0 0.031005 0.632391)
(0 0.02711 0.621019)
(0 0.0232477 0.609055)
(0 0.0194529 0.596507)
(0 0.0157524 0.583382)
(0 0.0121777 0.569672)
(0 0.00874197 0.555363)
)
;
    }
}


// ************************************************************************* //
