# Probe 0 (0 0 0.001)
#       Probe             0
#        Time
      0.16002     3.125e+12
      0.16004     3.125e+12
     0.160059     3.125e+12
     0.160079     3.125e+12
     0.160099     3.125e+12
     0.160119     3.125e+12
     0.160138     3.125e+12
     0.160158     3.125e+12
     0.160178     3.125e+12
     0.160198     3.125e+12
     0.160217     3.125e+12
     0.160237     3.125e+12
