# Probe 0 (0 0 0.001)
#       Probe             0
#        Time
      0.16002   4.96334e-11
      0.16004   4.96516e-11
     0.160059   4.96697e-11
     0.160079   4.96875e-11
     0.160099   4.97048e-11
     0.160119   4.97217e-11
     0.160138    4.9738e-11
     0.160158   4.97536e-11
     0.160178   4.97686e-11
     0.160198    4.9783e-11
     0.160217   4.97966e-11
     0.160237   4.98096e-11
