# Probe 0 (0 0 0.001)
#       Probe             0
#        Time
      0.16002   6.23849e+06
      0.16004   6.23907e+06
     0.160059   6.23963e+06
     0.160079   6.24019e+06
     0.160099   6.24074e+06
     0.160119   6.24127e+06
     0.160138   6.24178e+06
     0.160158   6.24227e+06
     0.160178   6.24274e+06
     0.160198   6.24319e+06
     0.160217   6.24362e+06
     0.160237   6.24402e+06
