# Probe 0 (0 0 0.001)
#       Probe             0
#        Time
      0.16002             0
      0.16004             0
     0.160059             0
     0.160079             0
     0.160099             0
     0.160119             0
     0.160138             0
     0.160158             0
     0.160178             0
     0.160198             0
     0.160217             0
     0.160237             0
