/*--------------------------------*- C++ -*----------------------------------*\
| =========                 |                                                 |
| \\      /  F ield         | OpenFOAM: The Open Source CFD Toolbox           |
|  \\    /   O peration     | Version:  dev                                   |
|   \\  /    A nd           | Web:      www.OpenFOAM.org                      |
|    \\/     M anipulation  |                                                 |
\*---------------------------------------------------------------------------*/
FoamFile
{
    version     2.0;
    format      ascii;
    class       volScalarField;
    location    "0.035";
    object      A1;
}
// * * * * * * * * * * * * * * * * * * * * * * * * * * * * * * * * * * * * * //

dimensions      [0 0 0 0 0 0 0];

internalField   nonuniform List<scalar> 
250
(
2.64388e-05
1.89564e-05
1.62721e-05
1.51693e-05
1.48481e-05
1.46392e-05
1.4433e-05
1.43614e-05
1.41959e-05
1.41771e-05
2.64917e-05
1.94588e-05
1.6901e-05
1.58354e-05
1.54786e-05
1.52371e-05
1.50055e-05
1.49037e-05
1.47274e-05
1.46901e-05
1.4662e-05
1.46997e-05
1.48103e-05
1.49223e-05
1.50807e-05
1.53317e-05
1.5602e-05
1.65337e-05
1.85009e-05
2.30236e-05
2.6384e-05
1.98869e-05
1.74726e-05
1.64437e-05
1.60475e-05
1.57702e-05
1.5511e-05
1.53766e-05
1.51884e-05
1.51305e-05
1.51e-05
1.51481e-05
1.52713e-05
1.54053e-05
1.559e-05
1.58662e-05
1.6174e-05
1.70792e-05
1.8958e-05
2.32183e-05
2.6143e-05
2.0245e-05
1.7989e-05
1.69938e-05
1.65556e-05
1.62393e-05
1.59504e-05
1.57816e-05
1.558e-05
1.54999e-05
1.54666e-05
1.55258e-05
1.56632e-05
1.58208e-05
1.60335e-05
1.63372e-05
1.66845e-05
1.75656e-05
1.93519e-05
2.33195e-05
2.58082e-05
2.05457e-05
1.84653e-05
1.74899e-05
1.70072e-05
1.6649e-05
1.63281e-05
1.61239e-05
1.59068e-05
1.58036e-05
1.57671e-05
1.58449e-05
1.59911e-05
1.61734e-05
1.64158e-05
1.67493e-05
1.71379e-05
1.79988e-05
1.96876e-05
2.33378e-05
2.54244e-05
2.08048e-05
1.88938e-05
1.79382e-05
1.74089e-05
1.70057e-05
1.66507e-05
1.64097e-05
1.61757e-05
1.60485e-05
1.60086e-05
1.60993e-05
1.62618e-05
1.64699e-05
1.67434e-05
1.71091e-05
1.75407e-05
1.83866e-05
1.9975e-05
2.32917e-05
2.50363e-05
2.10402e-05
1.92908e-05
1.83458e-05
1.77676e-05
1.73168e-05
1.69259e-05
1.66473e-05
1.63948e-05
1.62431e-05
1.61993e-05
1.63037e-05
1.64833e-05
1.67183e-05
1.70242e-05
1.74243e-05
1.79005e-05
1.87377e-05
2.02264e-05
2.3205e-05
2.46853e-05
2.12692e-05
1.96654e-05
1.87212e-05
1.80915e-05
1.75909e-05
1.71627e-05
1.68461e-05
1.65736e-05
1.63973e-05
1.63492e-05
1.64681e-05
1.66654e-05
1.69278e-05
1.72671e-05
1.77037e-05
1.8226e-05
1.90614e-05
2.04557e-05
2.31037e-05
2.44066e-05
2.15073e-05
2.00257e-05
1.90725e-05
1.83887e-05
1.78372e-05
1.73708e-05
1.7016e-05
1.67229e-05
1.65219e-05
1.64694e-05
1.66032e-05
1.68185e-05
1.71087e-05
1.74818e-05
1.79562e-05
1.85261e-05
1.93667e-05
2.06771e-05
2.30146e-05
2.42241e-05
2.17641e-05
2.03753e-05
1.94051e-05
1.86643e-05
1.80623e-05
1.75579e-05
1.71655e-05
1.68518e-05
1.66264e-05
1.65694e-05
1.67183e-05
1.69514e-05
1.72691e-05
1.76758e-05
1.81884e-05
1.88068e-05
1.96593e-05
2.09011e-05
2.29602e-05
2.41438e-05
2.2036e-05
2.07074e-05
1.9715e-05
1.89149e-05
1.82652e-05
1.7725e-05
1.72965e-05
1.69637e-05
1.67146e-05
1.66533e-05
1.68171e-05
1.70669e-05
1.74108e-05
1.78494e-05
1.8399e-05
1.90659e-05
1.99349e-05
2.11282e-05
2.29523e-05
2.41459e-05
2.22962e-05
2.09971e-05
1.99827e-05
1.91231e-05
1.84335e-05
1.7862e-05
1.74015e-05
1.70528e-05
1.67825e-05
1.67174e-05
1.68947e-05
1.71588e-05
1.75255e-05
1.79924e-05
1.85746e-05
1.92864e-05
2.01739e-05
2.13393e-05
2.29827e-05
2.4192e-05
2.24958e-05
2.12033e-05
2.01707e-05
1.92685e-05
1.85494e-05
1.79561e-05
1.74729e-05
1.71136e-05
1.68281e-05
1.67603e-05
1.69474e-05
1.72213e-05
1.76039e-05
1.80909e-05
1.86961e-05
1.94414e-05
2.03441e-05
2.14994e-05
2.30316e-05
)
;

boundaryField
{
    fuel
    {
        type            fixedValue;
        value           nonuniform 0();
    }
    wall
    {
        type            zeroGradient;
    }
    outlet
    {
        type            zeroGradient;
    }
    frontAndBack
    {
        type            empty;
    }
    procBoundary1to0
    {
        type            processor;
        value           nonuniform List<scalar> 
21
(
2.62292e-05
1.83892e-05
1.55908e-05
1.44522e-05
1.41614e-05
1.3982e-05
1.37986e-05
1.37543e-05
1.35988e-05
1.35958e-05
1.41513e-05
1.41513e-05
1.41793e-05
1.42788e-05
1.43704e-05
1.45047e-05
1.47327e-05
1.49684e-05
1.59278e-05
1.79843e-05
2.27429e-05
)
;
    }
}


// ************************************************************************* //
