/*--------------------------------*- C++ -*----------------------------------*\
| =========                 |                                                 |
| \\      /  F ield         | OpenFOAM: The Open Source CFD Toolbox           |
|  \\    /   O peration     | Version:  dev                                   |
|   \\  /    A nd           | Web:      www.OpenFOAM.org                      |
|    \\/     M anipulation  |                                                 |
\*---------------------------------------------------------------------------*/
FoamFile
{
    version     2.0;
    format      ascii;
    class       volScalarField;
    location    "0.035";
    object      A1C2H3*;
}
// * * * * * * * * * * * * * * * * * * * * * * * * * * * * * * * * * * * * * //

dimensions      [0 0 0 0 0 0 0];

internalField   nonuniform List<scalar> 
250
(
1.41403e-11
9.42137e-12
7.97163e-12
7.52397e-12
7.32184e-12
7.26739e-12
7.20444e-12
7.18994e-12
7.14672e-12
7.14685e-12
1.33092e-11
9.86677e-12
8.57852e-12
8.26959e-12
8.05466e-12
8.01625e-12
7.9299e-12
7.92281e-12
7.85621e-12
7.86406e-12
7.8647e-12
7.85559e-12
7.92185e-12
7.92477e-12
8.01606e-12
8.03795e-12
8.27752e-12
8.55372e-12
9.86386e-12
1.38192e-11
1.33112e-11
1.09544e-11
9.77328e-12
9.62042e-12
9.37577e-12
9.35301e-12
9.22975e-12
9.23022e-12
9.12854e-12
9.14564e-12
9.14688e-12
9.12759e-12
9.22907e-12
9.22177e-12
9.35373e-12
9.34906e-12
9.63721e-12
9.72681e-12
1.097e-11
1.36236e-11
1.43247e-11
1.28488e-11
1.18024e-11
1.17455e-11
1.14641e-11
1.14308e-11
1.12642e-11
1.12572e-11
1.11195e-11
1.11359e-11
1.11375e-11
1.11177e-11
1.12551e-11
1.12535e-11
1.14306e-11
1.14309e-11
1.17654e-11
1.17346e-11
1.28749e-11
1.44837e-11
1.62642e-11
1.53185e-11
1.45208e-11
1.43969e-11
1.41072e-11
1.39974e-11
1.38061e-11
1.37531e-11
1.36041e-11
1.35918e-11
1.35925e-11
1.36007e-11
1.3748e-11
1.37947e-11
1.39909e-11
1.40799e-11
1.44013e-11
1.44687e-11
1.53266e-11
1.63386e-11
1.83821e-11
1.73693e-11
1.70517e-11
1.65141e-11
1.62526e-11
1.59929e-11
1.58218e-11
1.56756e-11
1.55736e-11
1.54902e-11
1.54884e-11
1.55672e-11
1.56662e-11
1.58127e-11
1.59758e-11
1.6252e-11
1.64802e-11
1.70654e-11
1.73255e-11
1.84749e-11
1.92246e-11
1.76459e-11
1.79011e-11
1.67851e-11
1.66125e-11
1.61824e-11
1.60847e-11
1.58301e-11
1.58248e-11
1.56528e-11
1.56476e-11
1.58156e-11
1.58164e-11
1.60809e-11
1.6153e-11
1.665e-11
1.67012e-11
1.80167e-11
1.75301e-11
1.94746e-11
1.73616e-11
1.51896e-11
1.58771e-11
1.43563e-11
1.43031e-11
1.37831e-11
1.37811e-11
1.34651e-11
1.35598e-11
1.33306e-11
1.33229e-11
1.35496e-11
1.34496e-11
1.37832e-11
1.3747e-11
1.43701e-11
1.4239e-11
1.6075e-11
1.50223e-11
1.77436e-11
1.26548e-11
1.04756e-11
1.12518e-11
9.81197e-12
9.84949e-12
9.39232e-12
9.4543e-12
9.17157e-12
9.30922e-12
9.09611e-12
9.08864e-12
9.30087e-12
9.15854e-12
9.45955e-12
9.36029e-12
9.91861e-12
9.70142e-12
1.14566e-11
1.03149e-11
1.30609e-11
6.94927e-12
5.47581e-12
6.01376e-12
5.08611e-12
5.14437e-12
4.8628e-12
4.92824e-12
4.7512e-12
4.85925e-12
4.72237e-12
4.71746e-12
4.85433e-12
4.7434e-12
4.93272e-12
4.84297e-12
5.19031e-12
5.01562e-12
6.15112e-12
5.37252e-12
7.22969e-12
2.61451e-12
1.96689e-12
2.19569e-12
1.80416e-12
1.83753e-12
1.72201e-12
1.75717e-12
1.68329e-12
1.73498e-12
1.67665e-12
1.67455e-12
1.733e-12
1.68016e-12
1.75929e-12
1.71387e-12
1.85688e-12
1.77485e-12
2.2539e-12
1.92364e-12
2.73571e-12
5.50143e-13
4.04959e-13
4.53825e-13
3.68583e-13
3.76719e-13
3.51675e-13
3.60018e-13
3.43876e-13
3.55641e-13
3.42812e-13
3.42352e-13
3.55213e-13
3.43192e-13
3.60476e-13
3.49899e-13
3.80811e-13
3.62296e-13
4.66198e-13
3.95644e-13
5.76521e-13
1.14169e-13
8.90659e-14
9.6881e-14
8.15884e-14
8.25894e-14
7.79641e-14
7.93559e-14
7.62513e-14
7.84359e-14
7.59253e-14
7.58376e-14
7.8342e-14
7.61205e-14
7.94105e-14
7.76359e-14
8.32637e-14
8.04314e-14
9.89375e-14
8.74158e-14
1.18394e-13
)
;

boundaryField
{
    fuel
    {
        type            fixedValue;
        value           nonuniform 0();
    }
    wall
    {
        type            zeroGradient;
    }
    outlet
    {
        type            zeroGradient;
    }
    frontAndBack
    {
        type            empty;
    }
    procBoundary1to0
    {
        type            processor;
        value           nonuniform List<scalar> 
21
(
1.56733e-11
9.377e-12
7.68701e-12
7.12746e-12
6.92447e-12
6.86078e-12
6.81082e-12
6.79323e-12
6.76295e-12
6.75959e-12
7.147e-12
7.147e-12
7.14624e-12
7.18891e-12
7.20136e-12
7.26614e-12
7.31293e-12
7.52448e-12
7.96259e-12
9.40231e-12
1.49122e-11
)
;
    }
}


// ************************************************************************* //
