/*--------------------------------*- C++ -*----------------------------------*\
| =========                 |                                                 |
| \\      /  F ield         | OpenFOAM: The Open Source CFD Toolbox           |
|  \\    /   O peration     | Version:  dev                                   |
|   \\  /    A nd           | Web:      www.OpenFOAM.org                      |
|    \\/     M anipulation  |                                                 |
\*---------------------------------------------------------------------------*/
FoamFile
{
    version     2.0;
    format      ascii;
    class       volScalarField;
    location    "0.035";
    object      A2;
}
// * * * * * * * * * * * * * * * * * * * * * * * * * * * * * * * * * * * * * //

dimensions      [0 0 0 0 0 0 0];

internalField   nonuniform List<scalar> 
25
(
2.74991e-13
3.65767e-13
4.85205e-13
6.45902e-13
8.53104e-13
1.12767e-12
1.49669e-12
1.98333e-12
2.66409e-12
3.62242e-12
4.97762e-12
6.99529e-12
1.00757e-11
1.48619e-11
2.23513e-11
3.42843e-11
5.23306e-11
7.95739e-11
1.19628e-10
1.76813e-10
2.55956e-10
3.62075e-10
4.99956e-10
6.73704e-10
8.90385e-10
)
;

boundaryField
{
    wall
    {
        type            zeroGradient;
    }
    fuel
    {
        type            fixedValue;
        value           nonuniform 0();
    }
    outlet
    {
        type            inletOutlet;
        inletValue      nonuniform 0();
        value           nonuniform 0();
    }
    procBoundary1to0
    {
        type            processor;
        value           uniform 2.06073e-13;
    }
    procBoundary1to2
    {
        type            processor;
        value           uniform 1.14445e-09;
    }
}


// ************************************************************************* //
