/*--------------------------------*- C++ -*----------------------------------*\
| =========                 |                                                 |
| \\      /  F ield         | OpenFOAM: The Open Source CFD Toolbox           |
|  \\    /   O peration     | Version:  dev                                   |
|   \\  /    A nd           | Web:      www.OpenFOAM.org                      |
|    \\/     M anipulation  |                                                 |
\*---------------------------------------------------------------------------*/
FoamFile
{
    version     2.0;
    format      ascii;
    class       volScalarField;
    location    "0.035";
    object      A2C2HA*;
}
// * * * * * * * * * * * * * * * * * * * * * * * * * * * * * * * * * * * * * //

dimensions      [0 0 0 0 0 0 0];

internalField   nonuniform List<scalar> 
250
(
1.08973e-12
5.1185e-13
4.43815e-13
3.61532e-13
3.53648e-13
3.37335e-13
3.3704e-13
3.29638e-13
3.31957e-13
3.2741e-13
7.49932e-13
3.74332e-13
3.3837e-13
2.74404e-13
2.69619e-13
2.55893e-13
2.55992e-13
2.49511e-13
2.51741e-13
2.47678e-13
2.47507e-13
2.51614e-13
2.49229e-13
2.56257e-13
2.55147e-13
2.71755e-13
2.71521e-13
3.45651e-13
3.67824e-13
8.31014e-13
4.98987e-13
2.62246e-13
2.45417e-13
1.97884e-13
1.95191e-13
1.84369e-13
1.84687e-13
1.79401e-13
1.81359e-13
1.77988e-13
1.77849e-13
1.81255e-13
1.79172e-13
1.84902e-13
1.83758e-13
1.96916e-13
1.95548e-13
2.51135e-13
2.57229e-13
5.49037e-13
3.1939e-13
1.75354e-13
1.68481e-13
1.35295e-13
1.33908e-13
1.25929e-13
1.2632e-13
1.22305e-13
1.23877e-13
1.21279e-13
1.21173e-13
1.23797e-13
1.22129e-13
1.26479e-13
1.25463e-13
1.35189e-13
1.33533e-13
1.72846e-13
1.71714e-13
3.4911e-13
1.9544e-13
1.10831e-13
1.09259e-13
8.67964e-14
8.60065e-14
8.05515e-14
8.08923e-14
7.80534e-14
7.92457e-14
7.73579e-14
7.72828e-14
7.91847e-14
7.79322e-14
8.09931e-14
8.02323e-14
8.68958e-14
8.55787e-14
1.12232e-13
1.0841e-13
2.12429e-13
1.13367e-13
6.62768e-14
6.64685e-14
5.2547e-14
5.21675e-14
4.86834e-14
4.89514e-14
4.70858e-14
4.79009e-14
4.66413e-14
4.65918e-14
4.78595e-14
4.70059e-14
4.9012e-14
4.84745e-14
5.27251e-14
5.17593e-14
6.8339e-14
6.4749e-14
1.22942e-13
6.1446e-14
3.68182e-14
3.74621e-14
2.94672e-14
2.93057e-14
2.72491e-14
2.74372e-14
2.63056e-14
2.68193e-14
2.60435e-14
2.60135e-14
2.67935e-14
2.62571e-14
2.74705e-14
2.71233e-14
2.96274e-14
2.89975e-14
3.8543e-14
3.59277e-14
6.56875e-14
3.03244e-14
1.84992e-14
1.90848e-14
1.49146e-14
1.48637e-14
1.37639e-14
1.38835e-14
1.32627e-14
1.3557e-14
1.3125e-14
1.31085e-14
1.35425e-14
1.32363e-14
1.39e-14
1.36955e-14
1.50317e-14
1.46611e-14
1.96487e-14
1.80288e-14
3.23735e-14
1.30129e-14
8.02984e-15
8.40694e-15
6.51594e-15
6.51234e-15
6.00291e-15
6.06935e-15
5.77519e-15
5.92195e-15
5.71435e-15
5.7065e-15
5.91497e-15
5.76274e-15
6.07659e-15
5.9707e-15
6.58859e-15
6.39766e-15
8.66228e-15
7.81456e-15
1.38601e-14
4.54066e-15
2.83195e-15
3.00612e-15
2.31356e-15
2.31987e-15
2.12955e-15
2.15888e-15
2.04669e-15
2.10567e-15
2.02549e-15
2.02248e-15
2.10298e-15
2.04198e-15
2.16144e-15
2.11737e-15
2.34773e-15
2.26922e-15
3.09906e-15
2.75291e-15
4.82214e-15
1.15021e-15
7.187e-16
7.71915e-16
5.8728e-16
5.90924e-16
5.39397e-16
5.48723e-16
5.17743e-16
5.35031e-16
5.12551e-16
5.1172e-16
5.34279e-16
5.16459e-16
5.4938e-16
5.36068e-16
5.98257e-16
5.75275e-16
7.96287e-16
6.97637e-16
1.21826e-15
1.56615e-16
9.82032e-17
1.05801e-16
8.01177e-17
8.07257e-17
7.3435e-17
7.48214e-17
7.03856e-17
7.28957e-17
6.96518e-17
6.95342e-17
7.27852e-17
7.02009e-17
7.49023e-17
7.29602e-17
8.17049e-17
7.84431e-17
1.09065e-16
9.52779e-17
1.6534e-16
1.19488e-17
7.90085e-18
8.33244e-18
6.50785e-18
6.51481e-18
5.97278e-18
6.05084e-18
5.71961e-18
5.88667e-18
5.64705e-18
5.63847e-18
5.87787e-18
5.7052e-18
6.05446e-18
5.93702e-18
6.57842e-18
6.38828e-18
8.54243e-18
7.69611e-18
1.24952e-17
)
;

boundaryField
{
    fuel
    {
        type            fixedValue;
        value           nonuniform 0();
    }
    wall
    {
        type            zeroGradient;
    }
    outlet
    {
        type            zeroGradient;
    }
    frontAndBack
    {
        type            empty;
    }
    procBoundary1to0
    {
        type            processor;
        value           nonuniform List<scalar> 
21
(
1.5399e-12
6.73152e-13
5.5686e-13
4.53941e-13
4.42051e-13
4.23619e-13
4.22835e-13
4.14903e-13
4.17119e-13
4.12376e-13
3.27207e-13
3.27207e-13
3.31812e-13
3.29305e-13
3.37367e-13
3.36456e-13
3.5621e-13
3.58124e-13
4.52803e-13
5.03699e-13
1.21842e-12
)
;
    }
}


// ************************************************************************* //
