/*--------------------------------*- C++ -*----------------------------------*\
| =========                 |                                                 |
| \\      /  F ield         | OpenFOAM: The Open Source CFD Toolbox           |
|  \\    /   O peration     | Version:  dev                                   |
|   \\  /    A nd           | Web:      www.OpenFOAM.org                      |
|    \\/     M anipulation  |                                                 |
\*---------------------------------------------------------------------------*/
FoamFile
{
    version     2.0;
    format      ascii;
    class       volScalarField;
    location    "0.035";
    object      A2C2HB;
}
// * * * * * * * * * * * * * * * * * * * * * * * * * * * * * * * * * * * * * //

dimensions      [0 0 0 0 0 0 0];

internalField   nonuniform List<scalar> 
250
(
2.38641e-09
9.87379e-10
6.74274e-10
5.93288e-10
5.65113e-10
5.55584e-10
5.48338e-10
5.44683e-10
5.40607e-10
5.39295e-10
2.02266e-09
9.38269e-10
6.76667e-10
6.01583e-10
5.74881e-10
5.63875e-10
5.56214e-10
5.51536e-10
5.47372e-10
5.45452e-10
5.45403e-10
5.47252e-10
5.51319e-10
5.55823e-10
5.63533e-10
5.73952e-10
6.00989e-10
6.7484e-10
9.34071e-10
2.18496e-09
1.7293e-09
8.90982e-10
6.73132e-10
6.03575e-10
5.78136e-10
5.65804e-10
5.57696e-10
5.52068e-10
5.47783e-10
5.45306e-10
5.45239e-10
5.47636e-10
5.51804e-10
5.57296e-10
5.65357e-10
5.77344e-10
6.02705e-10
6.71725e-10
8.86702e-10
1.84615e-09
1.4929e-09
8.46352e-10
6.64932e-10
6.00733e-10
5.76251e-10
5.62777e-10
5.54152e-10
5.4767e-10
5.43201e-10
5.40233e-10
5.40152e-10
5.43028e-10
5.47363e-10
5.53732e-10
5.62239e-10
5.75537e-10
5.99645e-10
6.63811e-10
8.42062e-10
1.57555e-09
1.3031e-09
8.04939e-10
6.53834e-10
5.94636e-10
5.70738e-10
5.56255e-10
5.47005e-10
5.39735e-10
5.35011e-10
5.31595e-10
5.31502e-10
5.3481e-10
5.39388e-10
5.4655e-10
5.55638e-10
5.70046e-10
5.93383e-10
6.52808e-10
8.00732e-10
1.36036e-09
1.1519e-09
7.68447e-10
6.41475e-10
5.86974e-10
5.63312e-10
5.4793e-10
5.37974e-10
5.29995e-10
5.24939e-10
5.21139e-10
5.21036e-10
5.24712e-10
5.29612e-10
5.37475e-10
5.47242e-10
5.62589e-10
5.85598e-10
6.40404e-10
7.64319e-10
1.19102e-09
1.03277e-09
7.36911e-10
6.29139e-10
5.78762e-10
5.54999e-10
5.38747e-10
5.27996e-10
5.19343e-10
5.13893e-10
5.09736e-10
5.09625e-10
5.13639e-10
5.18926e-10
5.27446e-10
5.37994e-10
5.54211e-10
5.77289e-10
6.27922e-10
7.32861e-10
1.0559e-09
9.40254e-10
7.10401e-10
6.17653e-10
5.70696e-10
5.46539e-10
5.294e-10
5.17784e-10
5.08473e-10
5.02583e-10
4.98082e-10
4.97965e-10
5.02301e-10
5.08022e-10
5.17178e-10
5.28585e-10
5.45663e-10
5.6914e-10
6.16235e-10
7.06417e-10
9.53896e-10
8.69675e-10
6.88687e-10
6.07459e-10
5.63164e-10
5.38374e-10
5.20319e-10
5.0779e-10
4.97832e-10
4.9147e-10
4.86636e-10
4.86513e-10
4.91161e-10
4.97348e-10
5.07125e-10
5.19442e-10
5.37401e-10
5.61535e-10
6.05819e-10
6.84748e-10
8.76195e-10
8.17075e-10
6.7139e-10
5.98755e-10
5.56384e-10
5.30791e-10
5.118e-10
4.98344e-10
4.8776e-10
4.80914e-10
4.75759e-10
4.75631e-10
4.80578e-10
4.87244e-10
4.9762e-10
5.10865e-10
5.29717e-10
5.54688e-10
5.96898e-10
6.67477e-10
8.18537e-10
7.79218e-10
6.58121e-10
5.91644e-10
5.50535e-10
5.24053e-10
5.04149e-10
4.89796e-10
4.7863e-10
4.71312e-10
4.6586e-10
4.65728e-10
4.7095e-10
4.78085e-10
4.89017e-10
5.0316e-10
5.22881e-10
5.4878e-10
5.89593e-10
6.54225e-10
7.77276e-10
7.53699e-10
6.48625e-10
5.86259e-10
5.45865e-10
5.18525e-10
4.97807e-10
4.82661e-10
4.70998e-10
4.63259e-10
4.57553e-10
4.57418e-10
4.62873e-10
4.70428e-10
4.81833e-10
4.96772e-10
5.17266e-10
5.44059e-10
5.8405e-10
6.44744e-10
7.49627e-10
7.39398e-10
6.43019e-10
5.82932e-10
5.42844e-10
5.1487e-10
4.93579e-10
4.77875e-10
4.65875e-10
4.57835e-10
4.51958e-10
4.51822e-10
4.57434e-10
4.65287e-10
4.77013e-10
4.92513e-10
5.13548e-10
5.41006e-10
5.80619e-10
6.39152e-10
7.34204e-10
)
;

boundaryField
{
    fuel
    {
        type            fixedValue;
        value           nonuniform 0();
    }
    wall
    {
        type            zeroGradient;
    }
    outlet
    {
        type            zeroGradient;
    }
    frontAndBack
    {
        type            empty;
    }
    procBoundary1to0
    {
        type            processor;
        value           nonuniform List<scalar> 
21
(
2.83773e-09
1.03818e-09
6.65629e-10
5.77937e-10
5.48217e-10
5.40205e-10
5.33388e-10
5.30769e-10
5.26797e-10
5.26101e-10
5.39265e-10
5.39265e-10
5.40515e-10
5.44517e-10
5.47948e-10
5.55356e-10
5.64009e-10
5.9301e-10
6.71928e-10
9.83333e-10
2.60831e-09
)
;
    }
}


// ************************************************************************* //
