/*--------------------------------*- C++ -*----------------------------------*\
| =========                 |                                                 |
| \\      /  F ield         | OpenFOAM: The Open Source CFD Toolbox           |
|  \\    /   O peration     | Version:  dev                                   |
|   \\  /    A nd           | Web:      www.OpenFOAM.org                      |
|    \\/     M anipulation  |                                                 |
\*---------------------------------------------------------------------------*/
FoamFile
{
    version     2.0;
    format      ascii;
    class       volScalarField;
    location    "0.035";
    object      A2R5;
}
// * * * * * * * * * * * * * * * * * * * * * * * * * * * * * * * * * * * * * //

dimensions      [0 0 0 0 0 0 0];

internalField   nonuniform List<scalar> 
25
(
3.65807e-11
4.5996e-11
5.74944e-11
7.17583e-11
8.85683e-11
1.08702e-10
1.32777e-10
1.60484e-10
1.93435e-10
2.31558e-10
2.74231e-10
3.22708e-10
3.77289e-10
4.38217e-10
5.05662e-10
5.81336e-10
6.62307e-10
7.50085e-10
8.44561e-10
9.45545e-10
1.05277e-09
1.16588e-09
1.28447e-09
1.40802e-09
1.53838e-09
)
;

boundaryField
{
    wall
    {
        type            zeroGradient;
    }
    fuel
    {
        type            fixedValue;
        value           nonuniform 0();
    }
    outlet
    {
        type            inletOutlet;
        inletValue      nonuniform 0();
        value           nonuniform 0();
    }
    procBoundary1to0
    {
        type            processor;
        value           uniform 2.89183e-11;
    }
    procBoundary1to2
    {
        type            processor;
        value           uniform 1.67058e-09;
    }
}


// ************************************************************************* //
