/*--------------------------------*- C++ -*----------------------------------*\
| =========                 |                                                 |
| \\      /  F ield         | OpenFOAM: The Open Source CFD Toolbox           |
|  \\    /   O peration     | Version:  dev                                   |
|   \\  /    A nd           | Web:      www.OpenFOAM.org                      |
|    \\/     M anipulation  |                                                 |
\*---------------------------------------------------------------------------*/
FoamFile
{
    version     2.0;
    format      ascii;
    class       volScalarField;
    location    "0.035";
    object      A3C2H;
}
// * * * * * * * * * * * * * * * * * * * * * * * * * * * * * * * * * * * * * //

dimensions      [0 0 0 0 0 0 0];

internalField   nonuniform List<scalar> 
25
(
7.96413e-17
9.73637e-17
1.18325e-16
1.43737e-16
1.7343e-16
2.09427e-16
2.54175e-16
3.09368e-16
3.81953e-16
4.7753e-16
6.02022e-16
7.68936e-16
9.92377e-16
1.28927e-15
1.67907e-15
2.1943e-15
2.83744e-15
3.64169e-15
4.62875e-15
5.81804e-15
7.22549e-15
8.86257e-15
1.07353e-14
1.28438e-14
1.52264e-14
)
;

boundaryField
{
    wall
    {
        type            zeroGradient;
    }
    fuel
    {
        type            fixedValue;
        value           nonuniform 0();
    }
    outlet
    {
        type            inletOutlet;
        inletValue      nonuniform 0();
        value           nonuniform 0();
    }
    procBoundary1to0
    {
        type            processor;
        value           uniform 6.46959e-17;
    }
    procBoundary1to2
    {
        type            processor;
        value           uniform 1.77885e-14;
    }
}


// ************************************************************************* //
