/*--------------------------------*- C++ -*----------------------------------*\
| =========                 |                                                 |
| \\      /  F ield         | OpenFOAM: The Open Source CFD Toolbox           |
|  \\    /   O peration     | Version:  dev                                   |
|   \\  /    A nd           | Web:      www.OpenFOAM.org                      |
|    \\/     M anipulation  |                                                 |
\*---------------------------------------------------------------------------*/
FoamFile
{
    version     2.0;
    format      ascii;
    class       volScalarField;
    location    "0.035";
    object      A4-;
}
// * * * * * * * * * * * * * * * * * * * * * * * * * * * * * * * * * * * * * //

dimensions      [0 0 0 0 0 0 0];

internalField   nonuniform List<scalar> 
2000
(
1.05737e-10
1.05397e-10
1.05125e-10
1.04986e-10
1.04977e-10
1.0493e-10
1.04946e-10
1.04922e-10
1.04936e-10
1.04921e-10
1.04932e-10
1.04922e-10
1.04929e-10
1.04922e-10
1.04927e-10
1.04922e-10
1.04926e-10
1.04922e-10
1.04924e-10
1.04923e-10
1.04924e-10
1.04923e-10
1.04924e-10
1.04923e-10
1.04923e-10
1.04923e-10
1.04923e-10
1.04924e-10
1.04923e-10
1.04924e-10
1.04923e-10
1.04925e-10
1.04923e-10
1.04926e-10
1.04922e-10
1.04927e-10
1.04922e-10
1.04929e-10
1.04922e-10
1.04932e-10
1.04921e-10
1.04936e-10
1.04922e-10
1.04946e-10
1.0493e-10
1.04977e-10
1.04986e-10
1.05125e-10
1.05396e-10
1.05737e-10
3.42858e-10
3.41939e-10
3.41106e-10
3.40677e-10
3.40653e-10
3.40504e-10
3.40553e-10
3.40477e-10
3.40523e-10
3.40476e-10
3.40509e-10
3.40477e-10
3.405e-10
3.40479e-10
3.40494e-10
3.4048e-10
3.4049e-10
3.40479e-10
3.40486e-10
3.4048e-10
3.40484e-10
3.4048e-10
3.40483e-10
3.40481e-10
3.40482e-10
3.40482e-10
3.40481e-10
3.40483e-10
3.4048e-10
3.40484e-10
3.4048e-10
3.40486e-10
3.4048e-10
3.4049e-10
3.4048e-10
3.40494e-10
3.40479e-10
3.405e-10
3.40477e-10
3.40509e-10
3.40476e-10
3.40523e-10
3.40477e-10
3.40553e-10
3.40504e-10
3.40653e-10
3.40677e-10
3.41106e-10
3.41938e-10
3.42857e-10
7.1312e-10
7.11259e-10
7.09475e-10
7.08576e-10
7.08499e-10
7.08199e-10
7.08289e-10
7.0814e-10
7.08227e-10
7.08135e-10
7.08198e-10
7.08136e-10
7.0818e-10
7.08141e-10
7.08169e-10
7.08141e-10
7.08162e-10
7.0814e-10
7.08153e-10
7.08141e-10
7.08149e-10
7.08142e-10
7.08147e-10
7.08143e-10
7.08144e-10
7.08144e-10
7.08143e-10
7.08147e-10
7.08142e-10
7.08149e-10
7.08141e-10
7.08153e-10
7.08141e-10
7.08162e-10
7.08141e-10
7.08169e-10
7.08141e-10
7.0818e-10
7.08137e-10
7.08198e-10
7.08135e-10
7.08227e-10
7.0814e-10
7.08289e-10
7.08199e-10
7.08499e-10
7.08576e-10
7.09474e-10
7.11258e-10
7.13119e-10
1.16535e-09
1.16248e-09
1.1596e-09
1.15816e-09
1.15799e-09
1.15753e-09
1.15765e-09
1.15743e-09
1.15755e-09
1.15741e-09
1.1575e-09
1.15741e-09
1.15748e-09
1.15742e-09
1.15746e-09
1.15742e-09
1.15745e-09
1.15742e-09
1.15743e-09
1.15742e-09
1.15743e-09
1.15742e-09
1.15742e-09
1.15742e-09
1.15742e-09
1.15742e-09
1.15742e-09
1.15742e-09
1.15742e-09
1.15743e-09
1.15742e-09
1.15743e-09
1.15742e-09
1.15745e-09
1.15742e-09
1.15746e-09
1.15742e-09
1.15748e-09
1.15741e-09
1.1575e-09
1.15741e-09
1.15755e-09
1.15743e-09
1.15765e-09
1.15753e-09
1.15799e-09
1.15816e-09
1.1596e-09
1.16248e-09
1.16535e-09
1.63237e-09
1.62858e-09
1.62463e-09
1.62266e-09
1.62236e-09
1.62175e-09
1.62187e-09
1.62159e-09
1.62174e-09
1.62157e-09
1.62168e-09
1.62156e-09
1.62164e-09
1.62157e-09
1.62161e-09
1.62156e-09
1.6216e-09
1.62156e-09
1.62158e-09
1.62156e-09
1.62157e-09
1.62156e-09
1.62157e-09
1.62156e-09
1.62156e-09
1.62156e-09
1.62156e-09
1.62157e-09
1.62156e-09
1.62157e-09
1.62156e-09
1.62158e-09
1.62156e-09
1.6216e-09
1.62156e-09
1.62162e-09
1.62157e-09
1.62164e-09
1.62156e-09
1.62168e-09
1.62157e-09
1.62174e-09
1.62159e-09
1.62187e-09
1.62175e-09
1.62236e-09
1.62266e-09
1.62463e-09
1.62858e-09
1.63236e-09
2.06023e-09
2.05581e-09
2.05106e-09
2.04867e-09
2.04821e-09
2.04749e-09
2.0476e-09
2.04727e-09
2.04742e-09
2.04723e-09
2.04735e-09
2.04722e-09
2.04731e-09
2.04722e-09
2.04728e-09
2.04722e-09
2.04726e-09
2.04721e-09
2.04723e-09
2.04721e-09
2.04722e-09
2.04721e-09
2.04722e-09
2.04721e-09
2.04721e-09
2.04721e-09
2.04721e-09
2.04722e-09
2.04721e-09
2.04723e-09
2.04721e-09
2.04724e-09
2.04721e-09
2.04726e-09
2.04722e-09
2.04728e-09
2.04723e-09
2.04731e-09
2.04723e-09
2.04735e-09
2.04723e-09
2.04742e-09
2.04727e-09
2.0476e-09
2.04749e-09
2.04821e-09
2.04867e-09
2.05106e-09
2.0558e-09
2.06023e-09
2.42439e-09
2.41967e-09
2.41453e-09
2.41189e-09
2.41129e-09
2.4105e-09
2.41057e-09
2.41023e-09
2.41037e-09
2.41017e-09
2.41028e-09
2.41015e-09
2.41023e-09
2.41015e-09
2.4102e-09
2.41014e-09
2.41018e-09
2.41013e-09
2.41015e-09
2.41013e-09
2.41014e-09
2.41013e-09
2.41013e-09
2.41013e-09
2.41013e-09
2.41013e-09
2.41013e-09
2.41014e-09
2.41013e-09
2.41014e-09
2.41013e-09
2.41015e-09
2.41013e-09
2.41018e-09
2.41014e-09
2.4102e-09
2.41015e-09
2.41023e-09
2.41016e-09
2.41029e-09
2.41017e-09
2.41037e-09
2.41023e-09
2.41057e-09
2.4105e-09
2.41129e-09
2.41188e-09
2.41453e-09
2.41967e-09
2.42439e-09
2.71878e-09
2.71414e-09
2.70903e-09
2.70631e-09
2.70561e-09
2.7048e-09
2.70481e-09
2.70448e-09
2.70458e-09
2.7044e-09
2.70449e-09
2.70437e-09
2.70444e-09
2.70436e-09
2.7044e-09
2.70434e-09
2.70437e-09
2.70433e-09
2.70435e-09
2.70432e-09
2.70433e-09
2.70432e-09
2.70433e-09
2.70432e-09
2.70432e-09
2.70432e-09
2.70432e-09
2.70433e-09
2.70432e-09
2.70433e-09
2.70432e-09
2.70435e-09
2.70433e-09
2.70437e-09
2.70434e-09
2.7044e-09
2.70436e-09
2.70444e-09
2.70437e-09
2.70449e-09
2.7044e-09
2.70459e-09
2.70448e-09
2.70481e-09
2.7048e-09
2.7056e-09
2.70631e-09
2.70903e-09
2.71413e-09
2.71878e-09
2.94597e-09
2.9417e-09
2.93701e-09
2.93439e-09
2.93361e-09
2.93282e-09
2.93277e-09
2.93246e-09
2.93252e-09
2.93236e-09
2.93242e-09
2.93231e-09
2.93237e-09
2.9323e-09
2.93232e-09
2.93228e-09
2.9323e-09
2.93226e-09
2.93227e-09
2.93225e-09
2.93225e-09
2.93224e-09
2.93225e-09
2.93224e-09
2.93224e-09
2.93224e-09
2.93224e-09
2.93225e-09
2.93224e-09
2.93226e-09
2.93225e-09
2.93227e-09
2.93226e-09
2.9323e-09
2.93228e-09
2.93233e-09
2.9323e-09
2.93237e-09
2.93232e-09
2.93243e-09
2.93236e-09
2.93253e-09
2.93246e-09
2.93277e-09
2.93282e-09
2.93361e-09
2.93439e-09
2.93701e-09
2.94169e-09
2.94597e-09
3.11459e-09
3.11092e-09
3.10695e-09
3.10458e-09
3.10376e-09
3.10303e-09
3.10291e-09
3.10263e-09
3.10265e-09
3.1025e-09
3.10254e-09
3.10245e-09
3.10248e-09
3.10242e-09
3.10244e-09
3.1024e-09
3.10241e-09
3.10237e-09
3.10238e-09
3.10236e-09
3.10236e-09
3.10235e-09
3.10236e-09
3.10235e-09
3.10235e-09
3.10235e-09
3.10235e-09
3.10236e-09
3.10236e-09
3.10237e-09
3.10236e-09
3.10238e-09
3.10238e-09
3.10241e-09
3.1024e-09
3.10244e-09
3.10242e-09
3.10248e-09
3.10245e-09
3.10254e-09
3.10251e-09
3.10265e-09
3.10263e-09
3.10291e-09
3.10303e-09
3.10376e-09
3.10458e-09
3.10695e-09
3.11092e-09
3.11459e-09
3.23327e-09
3.23035e-09
3.22731e-09
3.2253e-09
3.22449e-09
3.22383e-09
3.22364e-09
3.2234e-09
3.22337e-09
3.22325e-09
3.22326e-09
3.22318e-09
3.22319e-09
3.22314e-09
3.22315e-09
3.22311e-09
3.22311e-09
3.22309e-09
3.22309e-09
3.22307e-09
3.22307e-09
3.22306e-09
3.22306e-09
3.22306e-09
3.22306e-09
3.22306e-09
3.22306e-09
3.22306e-09
3.22306e-09
3.22307e-09
3.22307e-09
3.22309e-09
3.22309e-09
3.22312e-09
3.22312e-09
3.22315e-09
3.22315e-09
3.22319e-09
3.22319e-09
3.22326e-09
3.22325e-09
3.22337e-09
3.2234e-09
3.22364e-09
3.22383e-09
3.22448e-09
3.2253e-09
3.22731e-09
3.23035e-09
3.23327e-09
3.31427e-09
3.31228e-09
3.31039e-09
3.30885e-09
3.30809e-09
3.30753e-09
3.30728e-09
3.30708e-09
3.30699e-09
3.3069e-09
3.30687e-09
3.30682e-09
3.30681e-09
3.30677e-09
3.30676e-09
3.30674e-09
3.30673e-09
3.30671e-09
3.3067e-09
3.30669e-09
3.30668e-09
3.30668e-09
3.30667e-09
3.30667e-09
3.30667e-09
3.30667e-09
3.30667e-09
3.30668e-09
3.30668e-09
3.30668e-09
3.30669e-09
3.3067e-09
3.30671e-09
3.30673e-09
3.30674e-09
3.30676e-09
3.30678e-09
3.30681e-09
3.30683e-09
3.30688e-09
3.30691e-09
3.30699e-09
3.30708e-09
3.30728e-09
3.30753e-09
3.30808e-09
3.30885e-09
3.31039e-09
3.31228e-09
3.31427e-09
3.36078e-09
3.35968e-09
3.35886e-09
3.35779e-09
3.35711e-09
3.35665e-09
3.35635e-09
3.35618e-09
3.35605e-09
3.35599e-09
3.35593e-09
3.3559e-09
3.35586e-09
3.35584e-09
3.35581e-09
3.35579e-09
3.35577e-09
3.35576e-09
3.35575e-09
3.35574e-09
3.35573e-09
3.35573e-09
3.35572e-09
3.35572e-09
3.35572e-09
3.35572e-09
3.35572e-09
3.35572e-09
3.35573e-09
3.35573e-09
3.35574e-09
3.35575e-09
3.35576e-09
3.35578e-09
3.3558e-09
3.35581e-09
3.35584e-09
3.35586e-09
3.3559e-09
3.35593e-09
3.35599e-09
3.35605e-09
3.35618e-09
3.35635e-09
3.35665e-09
3.35711e-09
3.35779e-09
3.35885e-09
3.35967e-09
3.36078e-09
3.38348e-09
3.38334e-09
3.38366e-09
3.38311e-09
3.38253e-09
3.38218e-09
3.38182e-09
3.3817e-09
3.38152e-09
3.38148e-09
3.38139e-09
3.38138e-09
3.38132e-09
3.38131e-09
3.38127e-09
3.38126e-09
3.38123e-09
3.38122e-09
3.3812e-09
3.3812e-09
3.38118e-09
3.38118e-09
3.38118e-09
3.38118e-09
3.38117e-09
3.38117e-09
3.38118e-09
3.38118e-09
3.38118e-09
3.38119e-09
3.3812e-09
3.3812e-09
3.38123e-09
3.38123e-09
3.38126e-09
3.38127e-09
3.38131e-09
3.38132e-09
3.38138e-09
3.38139e-09
3.38148e-09
3.38152e-09
3.3817e-09
3.38182e-09
3.38218e-09
3.38253e-09
3.38311e-09
3.38365e-09
3.38334e-09
3.38347e-09
3.38843e-09
3.38917e-09
3.39051e-09
3.39048e-09
3.39003e-09
3.38978e-09
3.38939e-09
3.3893e-09
3.38908e-09
3.38906e-09
3.38895e-09
3.38894e-09
3.38887e-09
3.38887e-09
3.38882e-09
3.38881e-09
3.38877e-09
3.38877e-09
3.38875e-09
3.38875e-09
3.38873e-09
3.38873e-09
3.38872e-09
3.38872e-09
3.38872e-09
3.38872e-09
3.38872e-09
3.38872e-09
3.38873e-09
3.38873e-09
3.38875e-09
3.38875e-09
3.38878e-09
3.38878e-09
3.38882e-09
3.38882e-09
3.38887e-09
3.38887e-09
3.38895e-09
3.38895e-09
3.38906e-09
3.38908e-09
3.3893e-09
3.38939e-09
3.38978e-09
3.39003e-09
3.39048e-09
3.39051e-09
3.38917e-09
3.38842e-09
3.3805e-09
3.38205e-09
3.3843e-09
3.38474e-09
3.38444e-09
3.38427e-09
3.38387e-09
3.3838e-09
3.38355e-09
3.38355e-09
3.38341e-09
3.38342e-09
3.38333e-09
3.38333e-09
3.38327e-09
3.38327e-09
3.38323e-09
3.38323e-09
3.3832e-09
3.3832e-09
3.38318e-09
3.38318e-09
3.38317e-09
3.38317e-09
3.38317e-09
3.38317e-09
3.38317e-09
3.38317e-09
3.38318e-09
3.38318e-09
3.3832e-09
3.3832e-09
3.38323e-09
3.38323e-09
3.38327e-09
3.38327e-09
3.38333e-09
3.38333e-09
3.38342e-09
3.38341e-09
3.38355e-09
3.38355e-09
3.3838e-09
3.38387e-09
3.38427e-09
3.38444e-09
3.38474e-09
3.3843e-09
3.38205e-09
3.38049e-09
3.36286e-09
3.36524e-09
3.36838e-09
3.36931e-09
3.36917e-09
3.3691e-09
3.36868e-09
3.36862e-09
3.36835e-09
3.36836e-09
3.3682e-09
3.36821e-09
3.36811e-09
3.36812e-09
3.36805e-09
3.36806e-09
3.36801e-09
3.36801e-09
3.36798e-09
3.36798e-09
3.36796e-09
3.36796e-09
3.36795e-09
3.36795e-09
3.36795e-09
3.36795e-09
3.36795e-09
3.36795e-09
3.36796e-09
3.36796e-09
3.36798e-09
3.36798e-09
3.36801e-09
3.36801e-09
3.36806e-09
3.36806e-09
3.36812e-09
3.36812e-09
3.36822e-09
3.3682e-09
3.36836e-09
3.36835e-09
3.36862e-09
3.36868e-09
3.3691e-09
3.36917e-09
3.36931e-09
3.36838e-09
3.36524e-09
3.36285e-09
3.33949e-09
3.34261e-09
3.3465e-09
3.34786e-09
3.34787e-09
3.34788e-09
3.34745e-09
3.34741e-09
3.34712e-09
3.34713e-09
3.34696e-09
3.34697e-09
3.34686e-09
3.34687e-09
3.3468e-09
3.3468e-09
3.34675e-09
3.34676e-09
3.34672e-09
3.34672e-09
3.3467e-09
3.3467e-09
3.34669e-09
3.34669e-09
3.34669e-09
3.34669e-09
3.34669e-09
3.34669e-09
3.3467e-09
3.3467e-09
3.34673e-09
3.34672e-09
3.34676e-09
3.34675e-09
3.34681e-09
3.3468e-09
3.34688e-09
3.34687e-09
3.34698e-09
3.34696e-09
3.34713e-09
3.34712e-09
3.34741e-09
3.34745e-09
3.34788e-09
3.34787e-09
3.34785e-09
3.3465e-09
3.34261e-09
3.33949e-09
3.31059e-09
3.3145e-09
3.31916e-09
3.32096e-09
3.32113e-09
3.32122e-09
3.32078e-09
3.32076e-09
3.32044e-09
3.32046e-09
3.32027e-09
3.32029e-09
3.32017e-09
3.32018e-09
3.3201e-09
3.32011e-09
3.32005e-09
3.32006e-09
3.32002e-09
3.32003e-09
3.32e-09
3.32e-09
3.31999e-09
3.31999e-09
3.31999e-09
3.31999e-09
3.31999e-09
3.31999e-09
3.32e-09
3.32e-09
3.32003e-09
3.32002e-09
3.32006e-09
3.32005e-09
3.32011e-09
3.3201e-09
3.32019e-09
3.32017e-09
3.3203e-09
3.32027e-09
3.32046e-09
3.32044e-09
3.32076e-09
3.32078e-09
3.32122e-09
3.32112e-09
3.32096e-09
3.31915e-09
3.31449e-09
3.31059e-09
3.2784e-09
3.28298e-09
3.28822e-09
3.2904e-09
3.29072e-09
3.29088e-09
3.29044e-09
3.29043e-09
3.29009e-09
3.29011e-09
3.28991e-09
3.28994e-09
3.28981e-09
3.28982e-09
3.28973e-09
3.28974e-09
3.28968e-09
3.28969e-09
3.28965e-09
3.28965e-09
3.28963e-09
3.28963e-09
3.28961e-09
3.28961e-09
3.28961e-09
3.28961e-09
3.28962e-09
3.28961e-09
3.28963e-09
3.28963e-09
3.28966e-09
3.28965e-09
3.28969e-09
3.28968e-09
3.28975e-09
3.28973e-09
3.28982e-09
3.28981e-09
3.28994e-09
3.28991e-09
3.29011e-09
3.29009e-09
3.29043e-09
3.29044e-09
3.29088e-09
3.29071e-09
3.2904e-09
3.28822e-09
3.28298e-09
3.27839e-09
3.2452e-09
3.25043e-09
3.2562e-09
3.25872e-09
3.25917e-09
3.25941e-09
3.25896e-09
3.25895e-09
3.2586e-09
3.25862e-09
3.25841e-09
3.25844e-09
3.2583e-09
3.25832e-09
3.25822e-09
3.25823e-09
3.25817e-09
3.25818e-09
3.25814e-09
3.25814e-09
3.25811e-09
3.25812e-09
3.2581e-09
3.2581e-09
3.2581e-09
3.2581e-09
3.2581e-09
3.2581e-09
3.25812e-09
3.25811e-09
3.25814e-09
3.25814e-09
3.25818e-09
3.25817e-09
3.25824e-09
3.25823e-09
3.25832e-09
3.2583e-09
3.25844e-09
3.25842e-09
3.25862e-09
3.2586e-09
3.25895e-09
3.25896e-09
3.2594e-09
3.25917e-09
3.25871e-09
3.25619e-09
3.25043e-09
3.2452e-09
3.21047e-09
3.21632e-09
3.22255e-09
3.22537e-09
3.22596e-09
3.22626e-09
3.22581e-09
3.22581e-09
3.22545e-09
3.22547e-09
3.22525e-09
3.22528e-09
3.22513e-09
3.22514e-09
3.22505e-09
3.22506e-09
3.22499e-09
3.225e-09
3.22495e-09
3.22496e-09
3.22493e-09
3.22493e-09
3.22492e-09
3.22492e-09
3.22491e-09
3.22491e-09
3.22492e-09
3.22492e-09
3.22494e-09
3.22493e-09
3.22496e-09
3.22496e-09
3.225e-09
3.22499e-09
3.22506e-09
3.22505e-09
3.22515e-09
3.22513e-09
3.22528e-09
3.22525e-09
3.22547e-09
3.22545e-09
3.22581e-09
3.22581e-09
3.22626e-09
3.22596e-09
3.22537e-09
3.22254e-09
3.21631e-09
3.21047e-09
3.1746e-09
3.18005e-09
3.18657e-09
3.18965e-09
3.19039e-09
3.19075e-09
3.19032e-09
3.19032e-09
3.18995e-09
3.18996e-09
3.18974e-09
3.18976e-09
3.18961e-09
3.18962e-09
3.18952e-09
3.18953e-09
3.18946e-09
3.18947e-09
3.18942e-09
3.18943e-09
3.1894e-09
3.1894e-09
3.18938e-09
3.18939e-09
3.18938e-09
3.18938e-09
3.18939e-09
3.18938e-09
3.1894e-09
3.1894e-09
3.18943e-09
3.18943e-09
3.18947e-09
3.18946e-09
3.18953e-09
3.18952e-09
3.18962e-09
3.18961e-09
3.18976e-09
3.18974e-09
3.18996e-09
3.18995e-09
3.19032e-09
3.19032e-09
3.19075e-09
3.19039e-09
3.18965e-09
3.18656e-09
3.18004e-09
3.1746e-09
3.13784e-09
3.14378e-09
3.15066e-09
3.15399e-09
3.15486e-09
3.15527e-09
3.15484e-09
3.15484e-09
3.15446e-09
3.15447e-09
3.15423e-09
3.15425e-09
3.1541e-09
3.15411e-09
3.15401e-09
3.15402e-09
3.15394e-09
3.15395e-09
3.15391e-09
3.15391e-09
3.15388e-09
3.15388e-09
3.15386e-09
3.15387e-09
3.15386e-09
3.15386e-09
3.15387e-09
3.15387e-09
3.15388e-09
3.15388e-09
3.15391e-09
3.15391e-09
3.15396e-09
3.15394e-09
3.15402e-09
3.15401e-09
3.15411e-09
3.1541e-09
3.15426e-09
3.15424e-09
3.15447e-09
3.15446e-09
3.15484e-09
3.15484e-09
3.15527e-09
3.15485e-09
3.15399e-09
3.15066e-09
3.14378e-09
3.13784e-09
3.0989e-09
3.10535e-09
3.11263e-09
3.11624e-09
3.11723e-09
3.1177e-09
3.11727e-09
3.11727e-09
3.11687e-09
3.11688e-09
3.11664e-09
3.11666e-09
3.11649e-09
3.1165e-09
3.11639e-09
3.1164e-09
3.11633e-09
3.11634e-09
3.11629e-09
3.11629e-09
3.11626e-09
3.11626e-09
3.11624e-09
3.11625e-09
3.11624e-09
3.11624e-09
3.11625e-09
3.11625e-09
3.11627e-09
3.11626e-09
3.1163e-09
3.11629e-09
3.11634e-09
3.11633e-09
3.11641e-09
3.1164e-09
3.11651e-09
3.1165e-09
3.11666e-09
3.11664e-09
3.11688e-09
3.11687e-09
3.11727e-09
3.11726e-09
3.1177e-09
3.11722e-09
3.11623e-09
3.11262e-09
3.10534e-09
3.09889e-09
3.05923e-09
3.06611e-09
3.07365e-09
3.07745e-09
3.07855e-09
3.07907e-09
3.07863e-09
3.07864e-09
3.07823e-09
3.07824e-09
3.07798e-09
3.078e-09
3.07783e-09
3.07784e-09
3.07773e-09
3.07774e-09
3.07766e-09
3.07767e-09
3.07762e-09
3.07762e-09
3.07759e-09
3.07759e-09
3.07757e-09
3.07757e-09
3.07757e-09
3.07757e-09
3.07757e-09
3.07757e-09
3.07759e-09
3.07759e-09
3.07762e-09
3.07762e-09
3.07767e-09
3.07766e-09
3.07774e-09
3.07773e-09
3.07784e-09
3.07783e-09
3.078e-09
3.07799e-09
3.07824e-09
3.07823e-09
3.07864e-09
3.07863e-09
3.07906e-09
3.07854e-09
3.07745e-09
3.07364e-09
3.0661e-09
3.05923e-09
3.01892e-09
3.0262e-09
3.03395e-09
3.03793e-09
3.03912e-09
3.03968e-09
3.03925e-09
3.03926e-09
3.03884e-09
3.03884e-09
3.03858e-09
3.03859e-09
3.03842e-09
3.03842e-09
3.03831e-09
3.03832e-09
3.03823e-09
3.03825e-09
3.03819e-09
3.0382e-09
3.03816e-09
3.03817e-09
3.03814e-09
3.03815e-09
3.03814e-09
3.03814e-09
3.03815e-09
3.03815e-09
3.03817e-09
3.03816e-09
3.0382e-09
3.03819e-09
3.03825e-09
3.03824e-09
3.03832e-09
3.03831e-09
3.03843e-09
3.03842e-09
3.03859e-09
3.03858e-09
3.03884e-09
3.03884e-09
3.03926e-09
3.03925e-09
3.03968e-09
3.03912e-09
3.03793e-09
3.03395e-09
3.0262e-09
3.01891e-09
2.97801e-09
2.98567e-09
2.99362e-09
2.99775e-09
2.99902e-09
2.99962e-09
2.99919e-09
2.99919e-09
2.99876e-09
2.99876e-09
2.99849e-09
2.9985e-09
2.99832e-09
2.99832e-09
2.9982e-09
2.99821e-09
2.99813e-09
2.99814e-09
2.99808e-09
2.99809e-09
2.99805e-09
2.99805e-09
2.99803e-09
2.99803e-09
2.99803e-09
2.99803e-09
2.99804e-09
2.99803e-09
2.99806e-09
2.99805e-09
2.99809e-09
2.99809e-09
2.99814e-09
2.99813e-09
2.99821e-09
2.99821e-09
2.99833e-09
2.99832e-09
2.9985e-09
2.99849e-09
2.99876e-09
2.99876e-09
2.99919e-09
2.99918e-09
2.99961e-09
2.99902e-09
2.99774e-09
2.99361e-09
2.98567e-09
2.97801e-09
2.93659e-09
2.94458e-09
2.9527e-09
2.95695e-09
2.9583e-09
2.95893e-09
2.95849e-09
2.9585e-09
2.95806e-09
2.95805e-09
2.95777e-09
2.95778e-09
2.95759e-09
2.9576e-09
2.95747e-09
2.95748e-09
2.95739e-09
2.9574e-09
2.95735e-09
2.95735e-09
2.95732e-09
2.95732e-09
2.95729e-09
2.9573e-09
2.95729e-09
2.95729e-09
2.9573e-09
2.9573e-09
2.95732e-09
2.95732e-09
2.95735e-09
2.95735e-09
2.95741e-09
2.9574e-09
2.95748e-09
2.95748e-09
2.9576e-09
2.9576e-09
2.95778e-09
2.95777e-09
2.95805e-09
2.95806e-09
2.95849e-09
2.95849e-09
2.95892e-09
2.95829e-09
2.95694e-09
2.95269e-09
2.94457e-09
2.93658e-09
2.89468e-09
2.90297e-09
2.91125e-09
2.91559e-09
2.91701e-09
2.91767e-09
2.91723e-09
2.91723e-09
2.91678e-09
2.91677e-09
2.91648e-09
2.91648e-09
2.9163e-09
2.9163e-09
2.91617e-09
2.91618e-09
2.91609e-09
2.9161e-09
2.91604e-09
2.91605e-09
2.91601e-09
2.91601e-09
2.91599e-09
2.91599e-09
2.91598e-09
2.91598e-09
2.91599e-09
2.91599e-09
2.91601e-09
2.91601e-09
2.91605e-09
2.91604e-09
2.9161e-09
2.91609e-09
2.91618e-09
2.91617e-09
2.9163e-09
2.9163e-09
2.91648e-09
2.91649e-09
2.91676e-09
2.91678e-09
2.91723e-09
2.91723e-09
2.91766e-09
2.917e-09
2.91559e-09
2.91124e-09
2.90296e-09
2.89468e-09
2.85236e-09
2.86091e-09
2.86932e-09
2.87374e-09
2.87521e-09
2.87589e-09
2.87546e-09
2.87545e-09
2.875e-09
2.87497e-09
2.87468e-09
2.87468e-09
2.87449e-09
2.87449e-09
2.87436e-09
2.87436e-09
2.87427e-09
2.87428e-09
2.87422e-09
2.87422e-09
2.87419e-09
2.87419e-09
2.87416e-09
2.87417e-09
2.87416e-09
2.87416e-09
2.87417e-09
2.87417e-09
2.87419e-09
2.87419e-09
2.87423e-09
2.87422e-09
2.87428e-09
2.87427e-09
2.87436e-09
2.87436e-09
2.87449e-09
2.87449e-09
2.87468e-09
2.87469e-09
2.87497e-09
2.87499e-09
2.87545e-09
2.87545e-09
2.87589e-09
2.8752e-09
2.87374e-09
2.86931e-09
2.8609e-09
2.85235e-09
2.80968e-09
2.81845e-09
2.82697e-09
2.83145e-09
2.83297e-09
2.83367e-09
2.83323e-09
2.83322e-09
2.83276e-09
2.83272e-09
2.83243e-09
2.83242e-09
2.83223e-09
2.83222e-09
2.83209e-09
2.83209e-09
2.832e-09
2.83201e-09
2.83195e-09
2.83195e-09
2.83191e-09
2.83191e-09
2.83189e-09
2.83189e-09
2.83188e-09
2.83188e-09
2.83189e-09
2.83189e-09
2.83191e-09
2.83191e-09
2.83195e-09
2.83195e-09
2.83201e-09
2.832e-09
2.83209e-09
2.83209e-09
2.83222e-09
2.83223e-09
2.83242e-09
2.83243e-09
2.83272e-09
2.83275e-09
2.83322e-09
2.83322e-09
2.83366e-09
2.83296e-09
2.83145e-09
2.82697e-09
2.81844e-09
2.80967e-09
2.76669e-09
2.77565e-09
2.78426e-09
2.78878e-09
2.79034e-09
2.79106e-09
2.79061e-09
2.7906e-09
2.79012e-09
2.79008e-09
2.78978e-09
2.78977e-09
2.78957e-09
2.78956e-09
2.78943e-09
2.78943e-09
2.78934e-09
2.78934e-09
2.78928e-09
2.78928e-09
2.78924e-09
2.78924e-09
2.78922e-09
2.78922e-09
2.78921e-09
2.78921e-09
2.78922e-09
2.78922e-09
2.78925e-09
2.78925e-09
2.78929e-09
2.78928e-09
2.78934e-09
2.78934e-09
2.78943e-09
2.78943e-09
2.78956e-09
2.78957e-09
2.78977e-09
2.78979e-09
2.79008e-09
2.79012e-09
2.79059e-09
2.79061e-09
2.79105e-09
2.79033e-09
2.78878e-09
2.78426e-09
2.77564e-09
2.76668e-09
2.72346e-09
2.73258e-09
2.74125e-09
2.7458e-09
2.74738e-09
2.74811e-09
2.74766e-09
2.74764e-09
2.74716e-09
2.74712e-09
2.74681e-09
2.74679e-09
2.74659e-09
2.74658e-09
2.74644e-09
2.74644e-09
2.74634e-09
2.74635e-09
2.74629e-09
2.74629e-09
2.74625e-09
2.74625e-09
2.74622e-09
2.74622e-09
2.74622e-09
2.74622e-09
2.74622e-09
2.74622e-09
2.74625e-09
2.74625e-09
2.74629e-09
2.74629e-09
2.74635e-09
2.74634e-09
2.74644e-09
2.74644e-09
2.74658e-09
2.74659e-09
2.74679e-09
2.74681e-09
2.74711e-09
2.74716e-09
2.74764e-09
2.74766e-09
2.74811e-09
2.74738e-09
2.7458e-09
2.74125e-09
2.73257e-09
2.72345e-09
2.68006e-09
2.68929e-09
2.69801e-09
2.70257e-09
2.70417e-09
2.70491e-09
2.70445e-09
2.70442e-09
2.70394e-09
2.70388e-09
2.70357e-09
2.70355e-09
2.70334e-09
2.70333e-09
2.70319e-09
2.70318e-09
2.70309e-09
2.70309e-09
2.70303e-09
2.70303e-09
2.70299e-09
2.70299e-09
2.70296e-09
2.70296e-09
2.70296e-09
2.70296e-09
2.70296e-09
2.70296e-09
2.70299e-09
2.70299e-09
2.70303e-09
2.70303e-09
2.70309e-09
2.70309e-09
2.70318e-09
2.70319e-09
2.70333e-09
2.70334e-09
2.70355e-09
2.70357e-09
2.70388e-09
2.70393e-09
2.70442e-09
2.70445e-09
2.7049e-09
2.70416e-09
2.70256e-09
2.698e-09
2.68928e-09
2.68005e-09
2.63653e-09
2.64584e-09
2.65459e-09
2.65915e-09
2.66076e-09
2.66151e-09
2.66104e-09
2.66101e-09
2.66051e-09
2.66045e-09
2.66013e-09
2.6601e-09
2.65989e-09
2.65987e-09
2.65973e-09
2.65973e-09
2.65963e-09
2.65963e-09
2.65957e-09
2.65957e-09
2.65953e-09
2.65952e-09
2.6595e-09
2.6595e-09
2.65949e-09
2.65949e-09
2.6595e-09
2.6595e-09
2.65953e-09
2.65953e-09
2.65957e-09
2.65957e-09
2.65963e-09
2.65963e-09
2.65973e-09
2.65973e-09
2.65987e-09
2.65989e-09
2.6601e-09
2.66013e-09
2.66045e-09
2.66051e-09
2.661e-09
2.66104e-09
2.6615e-09
2.66076e-09
2.65915e-09
2.65458e-09
2.64584e-09
2.63653e-09
2.59296e-09
2.60231e-09
2.61106e-09
2.61561e-09
2.61723e-09
2.61797e-09
2.61749e-09
2.61745e-09
2.61695e-09
2.61688e-09
2.61656e-09
2.61652e-09
2.61631e-09
2.61629e-09
2.61614e-09
2.61613e-09
2.61603e-09
2.61604e-09
2.61597e-09
2.61597e-09
2.61593e-09
2.61593e-09
2.6159e-09
2.6159e-09
2.61589e-09
2.61589e-09
2.6159e-09
2.6159e-09
2.61593e-09
2.61593e-09
2.61597e-09
2.61597e-09
2.61604e-09
2.61604e-09
2.61614e-09
2.61614e-09
2.61629e-09
2.61631e-09
2.61652e-09
2.61655e-09
2.61688e-09
2.61694e-09
2.61745e-09
2.61749e-09
2.61796e-09
2.61722e-09
2.6156e-09
2.61105e-09
2.6023e-09
2.59295e-09
2.54939e-09
2.55873e-09
2.56747e-09
2.57201e-09
2.57362e-09
2.57435e-09
2.57387e-09
2.57382e-09
2.57331e-09
2.57323e-09
2.5729e-09
2.57286e-09
2.57265e-09
2.57262e-09
2.57248e-09
2.57247e-09
2.57237e-09
2.57237e-09
2.5723e-09
2.5723e-09
2.57225e-09
2.57225e-09
2.57223e-09
2.57223e-09
2.57222e-09
2.57222e-09
2.57223e-09
2.57223e-09
2.57225e-09
2.57226e-09
2.5723e-09
2.5723e-09
2.57237e-09
2.57237e-09
2.57247e-09
2.57248e-09
2.57262e-09
2.57265e-09
2.57286e-09
2.5729e-09
2.57323e-09
2.57331e-09
2.57382e-09
2.57387e-09
2.57435e-09
2.57362e-09
2.572e-09
2.56747e-09
2.55873e-09
2.54938e-09
2.50589e-09
2.51518e-09
2.5239e-09
2.5284e-09
2.53001e-09
2.53073e-09
2.53024e-09
2.53018e-09
2.52966e-09
2.52957e-09
2.52924e-09
2.52919e-09
2.52897e-09
2.52894e-09
2.5288e-09
2.52878e-09
2.52868e-09
2.52868e-09
2.52861e-09
2.52861e-09
2.52857e-09
2.52856e-09
2.52854e-09
2.52854e-09
2.52853e-09
2.52853e-09
2.52854e-09
2.52854e-09
2.52856e-09
2.52857e-09
2.52861e-09
2.52861e-09
2.52868e-09
2.52868e-09
2.52878e-09
2.5288e-09
2.52894e-09
2.52897e-09
2.52919e-09
2.52924e-09
2.52957e-09
2.52965e-09
2.53017e-09
2.53023e-09
2.53072e-09
2.53e-09
2.52839e-09
2.52389e-09
2.51517e-09
2.50588e-09
2.46248e-09
2.47172e-09
2.48038e-09
2.48485e-09
2.48644e-09
2.48714e-09
2.48664e-09
2.48657e-09
2.48605e-09
2.48595e-09
2.48561e-09
2.48556e-09
2.48534e-09
2.48531e-09
2.48516e-09
2.48514e-09
2.48504e-09
2.48504e-09
2.48497e-09
2.48497e-09
2.48492e-09
2.48492e-09
2.48489e-09
2.48489e-09
2.48488e-09
2.48488e-09
2.48489e-09
2.48489e-09
2.48492e-09
2.48492e-09
2.48497e-09
2.48497e-09
2.48504e-09
2.48504e-09
2.48514e-09
2.48516e-09
2.48531e-09
2.48534e-09
2.48556e-09
2.48561e-09
2.48595e-09
2.48604e-09
2.48657e-09
2.48664e-09
2.48714e-09
2.48643e-09
2.48484e-09
2.48038e-09
2.47171e-09
2.46247e-09
)
;

boundaryField
{
    fuel
    {
        type            fixedValue;
        value           uniform 0;
    }
    wall
    {
        type            zeroGradient;
    }
    outlet
    {
        type            zeroGradient;
    }
    frontAndBack
    {
        type            empty;
    }
    procBoundary1to0
    {
        type            processor;
        value           nonuniform List<scalar> 
50
(
2.41922e-09
2.42841e-09
2.43698e-09
2.4414e-09
2.44296e-09
2.44365e-09
2.44314e-09
2.44306e-09
2.44253e-09
2.44242e-09
2.44208e-09
2.44202e-09
2.44179e-09
2.44176e-09
2.44161e-09
2.44159e-09
2.44149e-09
2.44148e-09
2.44141e-09
2.44141e-09
2.44136e-09
2.44136e-09
2.44133e-09
2.44133e-09
2.44132e-09
2.44132e-09
2.44133e-09
2.44133e-09
2.44136e-09
2.44136e-09
2.44141e-09
2.44141e-09
2.44148e-09
2.44149e-09
2.44159e-09
2.44161e-09
2.44176e-09
2.44179e-09
2.44202e-09
2.44208e-09
2.44242e-09
2.44252e-09
2.44305e-09
2.44313e-09
2.44364e-09
2.44295e-09
2.44139e-09
2.43697e-09
2.4284e-09
2.41921e-09
)
;
    }
}


// ************************************************************************* //
