/*--------------------------------*- C++ -*----------------------------------*\
| =========                 |                                                 |
| \\      /  F ield         | OpenFOAM: The Open Source CFD Toolbox           |
|  \\    /   O peration     | Version:  dev                                   |
|   \\  /    A nd           | Web:      www.OpenFOAM.org                      |
|    \\/     M anipulation  |                                                 |
\*---------------------------------------------------------------------------*/
FoamFile
{
    version     2.0;
    format      ascii;
    class       volScalarField;
    location    "0.035";
    object      AC3H4;
}
// * * * * * * * * * * * * * * * * * * * * * * * * * * * * * * * * * * * * * //

dimensions      [0 0 0 0 0 0 0];

internalField   nonuniform List<scalar> 
25
(
1.77121e-11
2.47675e-11
3.52242e-11
5.07417e-11
7.23993e-11
1.0284e-10
1.45198e-10
2.01373e-10
2.77632e-10
3.77421e-10
5.02521e-10
6.60193e-10
8.55519e-10
1.09358e-09
1.3793e-09
1.72471e-09
2.12047e-09
2.57731e-09
3.09834e-09
3.68606e-09
4.34226e-09
5.06814e-09
5.86439e-09
6.73144e-09
7.68793e-09
)
;

boundaryField
{
    wall
    {
        type            zeroGradient;
    }
    fuel
    {
        type            fixedValue;
        value           nonuniform 0();
    }
    outlet
    {
        type            inletOutlet;
        inletValue      nonuniform 0();
        value           nonuniform 0();
    }
    procBoundary1to0
    {
        type            processor;
        value           uniform 1.30916e-11;
    }
    procBoundary1to2
    {
        type            processor;
        value           uniform 8.69915e-09;
    }
}


// ************************************************************************* //
