/*--------------------------------*- C++ -*----------------------------------*\
| =========                 |                                                 |
| \\      /  F ield         | OpenFOAM: The Open Source CFD Toolbox           |
|  \\    /   O peration     | Version:  dev                                   |
|   \\  /    A nd           | Web:      www.OpenFOAM.org                      |
|    \\/     M anipulation  |                                                 |
\*---------------------------------------------------------------------------*/
FoamFile
{
    version     2.0;
    format      ascii;
    class       volScalarField;
    location    "0.035";
    object      CO2;
}
// * * * * * * * * * * * * * * * * * * * * * * * * * * * * * * * * * * * * * //

dimensions      [0 0 0 0 0 0 0];

internalField   nonuniform List<scalar> 
250
(
0.0477102
0.047053
0.0467085
0.0465404
0.0464817
0.046462
0.0464539
0.0464485
0.0464464
0.0464412
0.0475317
0.0469428
0.0466589
0.0464966
0.046446
0.0464227
0.046416
0.0464078
0.0464076
0.0463996
0.0463995
0.0464074
0.0464078
0.0464163
0.0464227
0.0464471
0.0464947
0.046661
0.0469307
0.0475687
0.0473317
0.0468009
0.0465692
0.0464109
0.0463676
0.0463407
0.0463355
0.0463245
0.0463262
0.0463152
0.0463153
0.0463261
0.0463246
0.0463362
0.0463406
0.0463699
0.0464081
0.046574
0.0467888
0.0473672
0.0471068
0.0466268
0.0464383
0.0462844
0.0462471
0.0462173
0.0462133
0.0461997
0.0462032
0.0461893
0.0461894
0.0462031
0.0461998
0.0462143
0.046217
0.0462504
0.0462807
0.0464457
0.0466148
0.047141
0.0468563
0.0464202
0.0462689
0.0461174
0.0460844
0.0460524
0.0460493
0.0460333
0.0460385
0.0460214
0.0460217
0.0460383
0.0460335
0.0460504
0.0460521
0.0460886
0.0461132
0.0462779
0.0464085
0.046889
0.0465821
0.0461892
0.0460655
0.0459206
0.045891
0.0458578
0.0458552
0.0458374
0.0458437
0.045824
0.0458243
0.0458435
0.0458376
0.0458564
0.0458574
0.0458955
0.045916
0.0460754
0.0461779
0.0466142
0.0462884
0.0459374
0.0458345
0.0456982
0.0456709
0.0456374
0.0456348
0.0456158
0.0456227
0.0456005
0.0456009
0.0456225
0.045616
0.045636
0.045637
0.0456755
0.0456935
0.0458444
0.0459268
0.0463127
0.0459816
0.0456719
0.0455839
0.0454583
0.0454321
0.0453992
0.0453961
0.0453764
0.0453835
0.045359
0.0453595
0.0453832
0.0453767
0.0453973
0.0453989
0.0454364
0.0454537
0.0455933
0.0456624
0.0460035
0.0456704
0.0454012
0.0453231
0.0452097
0.0451836
0.0451522
0.0451481
0.0451282
0.0451351
0.0451086
0.0451092
0.0451346
0.0451286
0.0451491
0.045152
0.0451875
0.0452056
0.0453313
0.0453929
0.0456882
0.0453652
0.0451351
0.0450627
0.0449627
0.0449359
0.0449065
0.044901
0.0448814
0.0448877
0.0448594
0.0448602
0.0448871
0.0448819
0.0449019
0.0449064
0.0449392
0.0449592
0.0450694
0.0451282
0.0453783
0.04508
0.0448861
0.0448161
0.0447298
0.0447015
0.0446747
0.0446675
0.0446487
0.0446539
0.0446242
0.0446252
0.0446532
0.0446492
0.0446683
0.0446748
0.0447042
0.044727
0.044821
0.0448808
0.0450885
0.0448349
0.0446724
0.0446022
0.0445289
0.0444988
0.0444746
0.0444656
0.0444478
0.0444519
0.044421
0.0444222
0.0444511
0.0444484
0.0444662
0.044475
0.0445007
0.0445269
0.0446054
0.0446685
0.0448394
0.0446658
0.0445258
0.044454
0.0443908
0.0443589
0.0443371
0.0443265
0.0443097
0.0443128
0.0442813
0.0442826
0.0443119
0.0443104
0.044327
0.0443376
0.0443603
0.0443894
0.0444559
0.044523
0.0446673
)
;

boundaryField
{
    fuel
    {
        type            fixedValue;
        value           nonuniform 0();
    }
    wall
    {
        type            zeroGradient;
    }
    outlet
    {
        type            zeroGradient;
    }
    frontAndBack
    {
        type            empty;
    }
    procBoundary1to0
    {
        type            processor;
        value           nonuniform List<scalar> 
21
(
0.0478735
0.0471344
0.0467216
0.0465445
0.0464768
0.0464607
0.0464511
0.0464485
0.0464447
0.0464421
0.0464415
0.0464415
0.0464466
0.046449
0.0464542
0.0464626
0.0464817
0.04654
0.0467079
0.0470409
0.0477507
)
;
    }
}


// ************************************************************************* //
