/*--------------------------------*- C++ -*----------------------------------*\
| =========                 |                                                 |
| \\      /  F ield         | OpenFOAM: The Open Source CFD Toolbox           |
|  \\    /   O peration     | Version:  dev                                   |
|   \\  /    A nd           | Web:      www.OpenFOAM.org                      |
|    \\/     M anipulation  |                                                 |
\*---------------------------------------------------------------------------*/
FoamFile
{
    version     2.0;
    format      ascii;
    class       volScalarField;
    location    "0.035";
    object      HCCO;
}
// * * * * * * * * * * * * * * * * * * * * * * * * * * * * * * * * * * * * * //

dimensions      [0 0 0 0 0 0 0];

internalField   nonuniform List<scalar> 
250
(
8.56714e-08
7.58711e-08
8.79635e-08
7.71482e-08
7.84306e-08
7.53686e-08
7.6149e-08
7.46602e-08
7.57638e-08
7.47359e-08
6.57666e-08
5.65519e-08
6.51486e-08
5.66562e-08
5.76271e-08
5.52666e-08
5.59001e-08
5.47251e-08
5.56114e-08
5.47905e-08
5.47525e-08
5.55904e-08
5.46761e-08
5.59979e-08
5.51186e-08
5.82169e-08
5.60468e-08
6.68949e-08
5.56767e-08
6.91534e-08
4.8877e-08
4.09168e-08
4.683e-08
4.04385e-08
4.11499e-08
3.93962e-08
3.98918e-08
3.89969e-08
3.9683e-08
3.90497e-08
3.90212e-08
3.96669e-08
3.89598e-08
3.9963e-08
3.92846e-08
4.15811e-08
3.99823e-08
4.80904e-08
4.02488e-08
5.14346e-08
3.50756e-08
2.86974e-08
3.25673e-08
2.8017e-08
2.85235e-08
2.72692e-08
2.76426e-08
2.69859e-08
2.74962e-08
2.70258e-08
2.70051e-08
2.74844e-08
2.69587e-08
2.76925e-08
2.71877e-08
2.88254e-08
2.76877e-08
3.3476e-08
2.82079e-08
3.693e-08
2.42397e-08
1.93848e-08
2.1908e-08
1.86794e-08
1.8994e-08
1.81375e-08
1.84011e-08
1.79375e-08
1.83072e-08
1.79653e-08
1.79508e-08
1.8298e-08
1.79189e-08
1.84331e-08
1.80826e-08
1.91985e-08
1.84543e-08
2.25151e-08
1.90495e-08
2.55318e-08
1.60803e-08
1.2664e-08
1.42042e-08
1.20826e-08
1.22846e-08
1.1722e-08
1.19034e-08
1.15897e-08
1.18432e-08
1.16079e-08
1.15981e-08
1.18367e-08
1.15771e-08
1.19234e-08
1.16853e-08
1.24148e-08
1.19337e-08
1.45915e-08
1.24407e-08
1.69735e-08
1.01747e-08
7.91116e-09
8.81564e-09
7.48592e-09
7.612e-09
7.25792e-09
7.37781e-09
7.17441e-09
7.34121e-09
7.18595e-09
7.17965e-09
7.33681e-09
7.16624e-09
7.3898e-09
7.23441e-09
7.69131e-09
7.39156e-09
9.05152e-09
7.76968e-09
1.06571e-08
6.05168e-09
4.64276e-09
5.15317e-09
4.36334e-09
4.44053e-09
4.22877e-09
4.30492e-09
4.1797e-09
4.28447e-09
4.18723e-09
4.18337e-09
4.28167e-09
4.17469e-09
4.31175e-09
4.21449e-09
4.48652e-09
4.30654e-09
5.28931e-09
4.55793e-09
6.34979e-09
3.28311e-09
2.47565e-09
2.74649e-09
2.3143e-09
2.35995e-09
2.24337e-09
2.28873e-09
2.21795e-09
2.27902e-09
2.22318e-09
2.22099e-09
2.27741e-09
2.21515e-09
2.29238e-09
2.2354e-09
2.38468e-09
2.28285e-09
2.81918e-09
2.42902e-09
3.44847e-09
1.55917e-09
1.15125e-09
1.27699e-09
1.07161e-09
1.09561e-09
1.03993e-09
1.06368e-09
1.02903e-09
1.06018e-09
1.03242e-09
1.03135e-09
1.05939e-09
1.02767e-09
1.0654e-09
1.03607e-09
1.10721e-09
1.05651e-09
1.31081e-09
1.12925e-09
1.63918e-09
6.1495e-10
4.33083e-10
4.77672e-10
3.97488e-10
4.07326e-10
3.85468e-10
3.9548e-10
3.81548e-10
3.9452e-10
3.8319e-10
3.82759e-10
3.942e-10
3.81015e-10
3.96133e-10
3.83948e-10
4.11718e-10
3.9159e-10
4.90382e-10
4.24704e-10
6.47934e-10
1.878e-10
1.13916e-10
1.1979e-10
9.93917e-11
1.01389e-10
9.58051e-11
9.82101e-11
9.46463e-11
9.7903e-11
9.50229e-11
9.49176e-11
9.78208e-11
9.45136e-11
9.83554e-11
9.54239e-11
1.02394e-10
9.79387e-11
1.227e-10
1.12005e-10
1.99197e-10
1.01973e-10
4.02377e-11
3.14581e-11
2.64807e-11
2.54599e-11
2.4077e-11
2.39862e-11
2.32926e-11
2.36314e-11
2.32468e-11
2.32361e-11
2.36263e-11
2.32791e-11
2.39967e-11
2.40135e-11
2.55351e-11
2.62168e-11
3.16374e-11
4.00235e-11
1.08935e-10
)
;

boundaryField
{
    fuel
    {
        type            fixedValue;
        value           nonuniform 0();
    }
    wall
    {
        type            zeroGradient;
    }
    outlet
    {
        type            zeroGradient;
    }
    frontAndBack
    {
        type            empty;
    }
    procBoundary1to0
    {
        type            processor;
        value           nonuniform List<scalar> 
21
(
1.08462e-07
9.89044e-08
1.15541e-07
1.02214e-07
1.03908e-07
1.0004e-07
1.00981e-07
9.91494e-08
1.00479e-07
9.92332e-08
7.46869e-08
7.46869e-08
7.57385e-08
7.45959e-08
7.62859e-08
7.51722e-08
7.92378e-08
7.634e-08
9.03611e-08
7.47405e-08
9.01378e-08
)
;
    }
}


// ************************************************************************* //
