/*--------------------------------*- C++ -*----------------------------------*\
| =========                 |                                                 |
| \\      /  F ield         | OpenFOAM: The Open Source CFD Toolbox           |
|  \\    /   O peration     | Version:  dev                                   |
|   \\  /    A nd           | Web:      www.OpenFOAM.org                      |
|    \\/     M anipulation  |                                                 |
\*---------------------------------------------------------------------------*/
FoamFile
{
    version     2.0;
    format      ascii;
    class       volScalarField;
    location    "0.035";
    object      HO2;
}
// * * * * * * * * * * * * * * * * * * * * * * * * * * * * * * * * * * * * * //

dimensions      [0 0 0 0 0 0 0];

internalField   nonuniform List<scalar> 
250
(
2.3682e-10
1.1739e-11
1.44838e-12
8.29353e-13
8.50572e-13
7.99975e-13
8.16141e-13
7.9125e-13
8.11692e-13
7.94229e-13
1.56341e-10
8.51815e-12
9.73609e-13
5.10425e-13
5.17574e-13
4.8805e-13
4.97534e-13
4.82829e-13
4.95031e-13
4.84746e-13
4.84304e-13
4.94824e-13
4.82255e-13
4.9893e-13
4.86181e-13
5.25792e-13
5.03171e-13
1.01522e-12
8.92424e-12
1.8468e-10
1.04037e-10
6.23357e-12
6.76292e-13
3.28788e-13
3.2787e-13
3.11291e-13
3.16345e-13
3.08017e-13
3.14895e-13
3.09185e-13
3.08963e-13
3.1481e-13
3.07735e-13
3.17116e-13
3.10281e-13
3.32316e-13
3.25003e-13
7.03785e-13
6.52058e-12
1.22218e-10
7.00742e-11
4.62453e-12
4.97141e-13
2.32937e-13
2.27717e-13
2.18261e-13
2.2057e-13
2.1586e-13
2.19582e-13
2.16549e-13
2.16455e-13
2.19569e-13
2.15745e-13
2.2099e-13
2.17736e-13
2.30023e-13
2.31085e-13
5.16454e-13
4.83307e-12
8.1771e-11
4.80513e-11
3.48623e-12
3.93305e-13
1.86359e-13
1.7859e-13
1.72623e-13
1.73187e-13
1.70342e-13
1.72319e-13
1.70736e-13
1.70713e-13
1.72346e-13
1.70327e-13
1.73416e-13
1.72365e-13
1.79759e-13
1.85505e-13
4.07392e-13
3.64374e-12
5.56872e-11
3.37843e-11
2.70668e-12
3.36336e-13
1.69492e-13
1.59987e-13
1.55349e-13
1.54713e-13
1.52726e-13
1.53687e-13
1.52935e-13
1.52954e-13
1.53748e-13
1.52767e-13
1.54849e-13
1.55219e-13
1.60531e-13
1.69086e-13
3.47197e-13
2.83054e-12
3.89648e-11
2.45254e-11
2.17692e-12
3.12342e-13
1.72839e-13
1.61101e-13
1.56535e-13
1.54691e-13
1.53041e-13
1.53252e-13
1.53099e-13
1.5315e-13
1.53349e-13
1.53128e-13
1.54776e-13
1.56477e-13
1.61235e-13
1.72623e-13
3.20945e-13
2.27822e-12
2.79642e-11
1.85011e-11
1.84442e-12
3.23777e-13
2.02143e-13
1.85711e-13
1.80153e-13
1.76219e-13
1.74698e-13
1.73799e-13
1.74528e-13
1.74622e-13
1.73963e-13
1.74853e-13
1.76257e-13
1.80164e-13
1.85366e-13
2.02066e-13
3.30117e-13
1.93108e-12
2.10314e-11
1.47022e-11
1.7486e-12
4.19346e-13
3.06189e-13
2.74903e-13
2.65839e-13
2.55626e-13
2.54343e-13
2.49962e-13
2.5345e-13
2.53655e-13
2.50326e-13
2.54677e-13
2.55558e-13
2.6601e-13
2.73323e-13
3.06536e-13
4.21097e-13
1.82602e-12
1.66281e-11
1.29572e-11
2.18371e-12
8.10917e-13
6.76578e-13
5.92888e-13
5.68014e-13
5.36376e-13
5.34389e-13
5.18416e-13
5.31052e-13
5.31575e-13
5.19487e-13
5.35254e-13
5.36045e-13
5.68513e-13
5.87608e-13
6.77631e-13
7.99122e-13
2.25188e-12
1.44626e-11
1.37686e-11
3.78215e-12
1.99437e-12
1.71731e-12
1.49143e-12
1.40622e-12
1.32005e-12
1.30792e-12
1.26615e-12
1.29939e-12
1.30051e-12
1.26916e-12
1.30996e-12
1.31947e-12
1.40665e-12
1.47865e-12
1.71566e-12
1.95164e-12
3.81589e-12
1.49229e-11
1.68248e-11
6.73091e-12
4.23403e-12
3.57738e-12
3.10978e-12
2.8892e-12
2.71755e-12
2.67269e-12
2.59864e-12
2.65893e-12
2.6606e-12
2.60501e-12
2.67633e-12
2.71739e-12
2.88781e-12
3.0887e-12
3.56244e-12
4.14923e-12
6.67158e-12
1.75538e-11
2.0607e-11
9.77694e-12
6.59274e-12
5.46421e-12
4.76283e-12
4.38726e-12
4.13858e-12
4.05091e-12
3.95455e-12
4.03547e-12
4.03735e-12
3.96426e-12
4.05583e-12
4.13941e-12
4.38285e-12
4.73671e-12
5.43014e-12
6.47506e-12
9.60587e-12
2.09504e-11
)
;

boundaryField
{
    fuel
    {
        type            fixedValue;
        value           nonuniform 0();
    }
    wall
    {
        type            zeroGradient;
    }
    outlet
    {
        type            zeroGradient;
    }
    frontAndBack
    {
        type            empty;
    }
    procBoundary1to0
    {
        type            processor;
        value           nonuniform List<scalar> 
21
(
3.62176e-10
1.62829e-11
2.17116e-12
1.34916e-12
1.39415e-12
1.31177e-12
1.33748e-12
1.29765e-12
1.32974e-12
1.30198e-12
7.93386e-13
7.93386e-13
8.11267e-13
7.90134e-13
8.18644e-13
7.96557e-13
8.6544e-13
8.16062e-13
1.51402e-12
1.23492e-11
2.82275e-10
)
;
    }
}


// ************************************************************************* //
