/*--------------------------------*- C++ -*----------------------------------*\
| =========                 |                                                 |
| \\      /  F ield         | OpenFOAM: The Open Source CFD Toolbox           |
|  \\    /   O peration     | Version:  dev                                   |
|   \\  /    A nd           | Web:      www.OpenFOAM.org                      |
|    \\/     M anipulation  |                                                 |
\*---------------------------------------------------------------------------*/
FoamFile
{
    version     2.0;
    format      ascii;
    class       volScalarField;
    location    "0.035";
    object      i-C4H5;
}
// * * * * * * * * * * * * * * * * * * * * * * * * * * * * * * * * * * * * * //

dimensions      [0 0 0 0 0 0 0];

internalField   nonuniform List<scalar> 
250
(
8.88313e-11
8.95197e-11
7.8846e-11
8.3506e-11
8.14304e-11
8.31992e-11
8.21219e-11
8.31577e-11
8.19705e-11
8.27983e-11
1.14039e-10
1.24875e-10
1.09135e-10
1.2e-10
1.1663e-10
1.20222e-10
1.18192e-10
1.20248e-10
1.17959e-10
1.19581e-10
1.19657e-10
1.17994e-10
1.20337e-10
1.18e-10
1.2049e-10
1.15634e-10
1.21108e-10
1.07109e-10
1.26598e-10
1.10951e-10
1.64444e-10
1.93494e-10
1.69472e-10
1.91592e-10
1.85872e-10
1.92761e-10
1.88918e-10
1.92856e-10
1.88492e-10
1.91594e-10
1.9174e-10
1.88557e-10
1.93026e-10
1.88556e-10
1.93275e-10
1.84012e-10
1.937e-10
1.65678e-10
1.96746e-10
1.58335e-10
2.64299e-10
3.27051e-10
2.89956e-10
3.32262e-10
3.22268e-10
3.35144e-10
3.27874e-10
3.35282e-10
3.27047e-10
3.3289e-10
3.33167e-10
3.27166e-10
3.35603e-10
3.27211e-10
3.36111e-10
3.18901e-10
3.36171e-10
2.8271e-10
3.33041e-10
2.5296e-10
4.63143e-10
5.91651e-10
5.30435e-10
6.14003e-10
5.97103e-10
6.2111e-10
6.07457e-10
6.21499e-10
6.05692e-10
6.16962e-10
6.17489e-10
6.05933e-10
6.22081e-10
6.06287e-10
6.22848e-10
5.90888e-10
6.21148e-10
5.17443e-10
6.02356e-10
4.42122e-10
8.66393e-10
1.11821e-09
1.01876e-09
1.17507e-09
1.14382e-09
1.18866e-09
1.16267e-09
1.18906e-09
1.15943e-09
1.18053e-09
1.18152e-09
1.15986e-09
1.19017e-09
1.16053e-09
1.19195e-09
1.13264e-09
1.18829e-09
9.95272e-10
1.13791e-09
8.25231e-10
1.72088e-09
2.22216e-09
2.05169e-09
2.35352e-09
2.29321e-09
2.38013e-09
2.32913e-09
2.38059e-09
2.32333e-09
2.36421e-09
2.36612e-09
2.32411e-09
2.38278e-09
2.32512e-09
2.38656e-09
2.27237e-09
2.37875e-09
2.00801e-09
2.25954e-09
1.65939e-09
3.68128e-09
4.72847e-09
4.41221e-09
5.03311e-09
4.90885e-09
5.08986e-09
4.98342e-09
5.09148e-09
4.97335e-09
5.05846e-09
5.06241e-09
4.97487e-09
5.09606e-09
4.97544e-09
5.10332e-09
4.86748e-09
5.08455e-09
4.32601e-09
4.804e-09
3.552e-09
8.86368e-09
1.128e-08
1.06224e-08
1.20451e-08
1.17635e-08
1.2185e-08
1.19402e-08
1.21945e-08
1.19243e-08
1.21229e-08
1.21318e-08
1.19276e-08
1.22048e-08
1.19224e-08
1.22158e-08
1.16723e-08
1.2161e-08
1.0433e-08
1.14496e-08
8.57816e-09
2.52823e-08
3.09846e-08
2.96295e-08
3.28126e-08
3.2169e-08
3.31047e-08
3.25616e-08
3.31206e-08
3.25409e-08
3.29657e-08
3.29844e-08
3.25454e-08
3.31413e-08
3.25213e-08
3.31692e-08
3.19729e-08
3.30562e-08
2.92103e-08
3.13563e-08
2.46265e-08
7.02527e-08
7.74122e-08
7.62177e-08
7.92999e-08
7.83485e-08
7.92014e-08
7.86232e-08
7.90289e-08
7.85948e-08
7.88058e-08
7.88197e-08
7.85813e-08
7.90415e-08
7.85685e-08
7.92524e-08
7.81484e-08
7.94827e-08
7.57818e-08
7.77723e-08
6.94632e-08
1.22855e-07
1.24673e-07
1.24577e-07
1.24118e-07
1.23079e-07
1.2294e-07
1.2277e-07
1.22382e-07
1.22762e-07
1.22134e-07
1.22126e-07
1.22706e-07
1.22363e-07
1.22718e-07
1.22911e-07
1.23013e-07
1.23986e-07
1.24524e-07
1.24634e-07
1.22762e-07
1.48251e-07
1.4717e-07
1.468e-07
1.44869e-07
1.43561e-07
1.43023e-07
1.42951e-07
1.42221e-07
1.42977e-07
1.41885e-07
1.41873e-07
1.4289e-07
1.42186e-07
1.42887e-07
1.4295e-07
1.43509e-07
1.4459e-07
1.46791e-07
1.46941e-07
1.48269e-07
)
;

boundaryField
{
    fuel
    {
        type            fixedValue;
        value           nonuniform 0();
    }
    wall
    {
        type            zeroGradient;
    }
    outlet
    {
        type            zeroGradient;
    }
    frontAndBack
    {
        type            empty;
    }
    procBoundary1to0
    {
        type            processor;
        value           nonuniform List<scalar> 
21
(
7.68601e-11
7.14276e-11
6.38031e-11
6.49995e-11
6.36329e-11
6.4385e-11
6.38083e-11
6.42901e-11
6.36871e-11
6.40882e-11
8.28379e-11
8.28379e-11
8.19917e-11
8.32055e-11
8.2024e-11
8.33376e-11
8.09118e-11
8.40753e-11
7.78018e-11
9.04024e-11
8.75642e-11
)
;
    }
}


// ************************************************************************* //
