/*--------------------------------*- C++ -*----------------------------------*\
| =========                 |                                                 |
| \\      /  F ield         | OpenFOAM: The Open Source CFD Toolbox           |
|  \\    /   O peration     | Version:  dev                                   |
|   \\  /    A nd           | Web:      www.OpenFOAM.org                      |
|    \\/     M anipulation  |                                                 |
\*---------------------------------------------------------------------------*/
FoamFile
{
    version     2.0;
    format      ascii;
    class       volScalarField;
    location    "0.035";
    object      n-C4H5;
}
// * * * * * * * * * * * * * * * * * * * * * * * * * * * * * * * * * * * * * //

dimensions      [0 0 0 0 0 0 0];

internalField   nonuniform List<scalar> 
250
(
1.62945e-11
1.61107e-11
1.43351e-11
1.50073e-11
1.46572e-11
1.49273e-11
1.47482e-11
1.49108e-11
1.47157e-11
1.48477e-11
2.01318e-11
2.16861e-11
1.9202e-11
2.08539e-11
2.03138e-11
2.08603e-11
2.05349e-11
2.08529e-11
2.04877e-11
2.07416e-11
2.07533e-11
2.0493e-11
2.08659e-11
2.05044e-11
2.09006e-11
2.01582e-11
2.10248e-11
1.88861e-11
2.19474e-11
1.96794e-11
2.79184e-11
3.21769e-11
2.86707e-11
3.18754e-11
3.10242e-11
3.20081e-11
3.14315e-11
3.20027e-11
3.13499e-11
3.18053e-11
3.18265e-11
3.13589e-11
3.20261e-11
3.1378e-11
3.20808e-11
3.07526e-11
3.21802e-11
2.81106e-11
3.26458e-11
2.70234e-11
4.26794e-11
5.12222e-11
4.63816e-11
5.19471e-11
5.06046e-11
5.22608e-11
5.12718e-11
5.22393e-11
5.11233e-11
5.1897e-11
5.19334e-11
5.11381e-11
5.22794e-11
5.11837e-11
5.23842e-11
5.01619e-11
5.24568e-11
4.54085e-11
5.20088e-11
4.11348e-11
6.95423e-11
8.50501e-11
7.81766e-11
8.77757e-11
8.57991e-11
8.84617e-11
8.68421e-11
8.84213e-11
8.65592e-11
8.78468e-11
8.7907e-11
8.65855e-11
8.84839e-11
8.67072e-11
8.86526e-11
8.50919e-11
8.85803e-11
7.66606e-11
8.62759e-11
6.69977e-11
1.17128e-10
1.43108e-10
1.33907e-10
1.48999e-10
1.45882e-10
1.50048e-10
1.47437e-10
1.4991e-10
1.46978e-10
1.48982e-10
1.49077e-10
1.47016e-10
1.50011e-10
1.47229e-10
1.50353e-10
1.44815e-10
1.50247e-10
1.3161e-10
1.45016e-10
1.12859e-10
2.02185e-10
2.45765e-10
2.32849e-10
2.57206e-10
2.52107e-10
2.58871e-10
2.54574e-10
2.5858e-10
2.53862e-10
2.57073e-10
2.57227e-10
2.53918e-10
2.58749e-10
2.54246e-10
2.59374e-10
2.50444e-10
2.59196e-10
2.29307e-10
2.48806e-10
1.97001e-10
3.66198e-10
4.43746e-10
4.23371e-10
4.66165e-10
4.57111e-10
4.69218e-10
4.61579e-10
4.6875e-10
4.60506e-10
4.66169e-10
4.66441e-10
4.606e-10
4.69062e-10
4.61024e-10
4.7013e-10
4.54291e-10
4.69638e-10
4.17437e-10
4.49014e-10
3.56926e-10
7.37063e-10
8.9164e-10
8.54216e-10
9.39989e-10
9.21954e-10
9.46874e-10
9.31553e-10
9.4642e-10
9.30012e-10
9.41587e-10
9.42135e-10
9.30203e-10
9.47079e-10
9.30506e-10
9.48768e-10
9.16545e-10
9.46911e-10
8.42894e-10
9.02035e-10
7.19364e-10
1.79808e-09
2.15288e-09
2.07424e-09
2.26976e-09
2.22878e-09
2.28681e-09
2.25219e-09
2.28693e-09
2.25039e-09
2.27689e-09
2.27812e-09
2.25079e-09
2.28846e-09
2.24996e-09
2.29119e-09
2.21712e-09
2.28519e-09
2.04959e-09
2.17629e-09
1.75946e-09
5.48556e-09
6.17656e-09
6.06137e-09
6.3887e-09
6.30584e-09
6.40047e-09
6.34081e-09
6.39263e-09
6.33891e-09
6.37388e-09
6.37566e-09
6.33877e-09
6.39489e-09
6.33673e-09
6.40732e-09
6.28739e-09
6.4114e-09
6.0208e-09
6.21628e-09
5.41466e-09
1.58096e-08
1.5942e-08
1.60713e-08
1.59087e-08
1.58192e-08
1.57718e-08
1.57733e-08
1.57073e-08
1.57731e-08
1.56903e-08
1.56883e-08
1.5767e-08
1.57049e-08
1.57696e-08
1.57673e-08
1.58237e-08
1.5885e-08
1.60947e-08
1.59311e-08
1.58409e-08
3.81355e-08
3.61549e-08
3.66531e-08
3.50649e-08
3.48965e-08
3.4466e-08
3.46589e-08
3.42476e-08
3.46955e-08
3.42485e-08
3.42356e-08
3.46707e-08
3.4233e-08
3.46519e-08
3.4433e-08
3.49482e-08
3.49169e-08
3.68257e-08
3.59984e-08
3.84493e-08
)
;

boundaryField
{
    fuel
    {
        type            fixedValue;
        value           nonuniform 0();
    }
    wall
    {
        type            zeroGradient;
    }
    outlet
    {
        type            zeroGradient;
    }
    frontAndBack
    {
        type            empty;
    }
    procBoundary1to0
    {
        type            processor;
        value           nonuniform List<scalar> 
21
(
1.47382e-11
1.33309e-11
1.20246e-11
1.20683e-11
1.18312e-11
1.19262e-11
1.18307e-11
1.18988e-11
1.18025e-11
1.18619e-11
1.4854e-11
1.4854e-11
1.47189e-11
1.49178e-11
1.47321e-11
1.49483e-11
1.45746e-11
1.50962e-11
1.41746e-11
1.62424e-11
1.61603e-11
)
;
    }
}


// ************************************************************************* //
