/*--------------------------------*- C++ -*----------------------------------*\
| =========                 |                                                 |
| \\      /  F ield         | OpenFOAM: The Open Source CFD Toolbox           |
|  \\    /   O peration     | Version:  dev                                   |
|   \\  /    A nd           | Web:      www.OpenFOAM.org                      |
|    \\/     M anipulation  |                                                 |
\*---------------------------------------------------------------------------*/
FoamFile
{
    version     2.0;
    format      ascii;
    class       volScalarField;
    location    "0.035";
    object      naphthyne;
}
// * * * * * * * * * * * * * * * * * * * * * * * * * * * * * * * * * * * * * //

dimensions      [0 0 0 0 0 0 0];

internalField   nonuniform List<scalar> 
2000
(
1.55764e-08
1.55681e-08
1.5569e-08
1.55659e-08
1.5566e-08
1.55647e-08
1.5565e-08
1.55645e-08
1.55648e-08
1.55644e-08
1.55646e-08
1.55644e-08
1.55646e-08
1.55644e-08
1.55645e-08
1.55644e-08
1.55645e-08
1.55644e-08
1.55645e-08
1.55644e-08
1.55645e-08
1.55644e-08
1.55645e-08
1.55644e-08
1.55645e-08
1.55645e-08
1.55644e-08
1.55645e-08
1.55644e-08
1.55645e-08
1.55644e-08
1.55645e-08
1.55644e-08
1.55645e-08
1.55644e-08
1.55645e-08
1.55644e-08
1.55646e-08
1.55644e-08
1.55647e-08
1.55644e-08
1.55648e-08
1.55645e-08
1.5565e-08
1.55647e-08
1.5566e-08
1.55659e-08
1.5569e-08
1.55681e-08
1.55764e-08
3.22176e-08
3.21981e-08
3.21968e-08
3.21891e-08
3.21889e-08
3.21861e-08
3.21868e-08
3.21855e-08
3.21862e-08
3.21855e-08
3.2186e-08
3.21855e-08
3.21858e-08
3.21855e-08
3.21857e-08
3.21855e-08
3.21857e-08
3.21855e-08
3.21856e-08
3.21855e-08
3.21856e-08
3.21855e-08
3.21856e-08
3.21855e-08
3.21855e-08
3.21855e-08
3.21855e-08
3.21856e-08
3.21855e-08
3.21856e-08
3.21855e-08
3.21856e-08
3.21855e-08
3.21857e-08
3.21855e-08
3.21857e-08
3.21855e-08
3.21858e-08
3.21855e-08
3.2186e-08
3.21855e-08
3.21862e-08
3.21855e-08
3.21868e-08
3.21861e-08
3.21889e-08
3.21891e-08
3.21968e-08
3.21981e-08
3.22176e-08
4.82934e-08
4.82757e-08
4.8283e-08
4.82761e-08
4.82752e-08
4.82725e-08
4.82725e-08
4.82715e-08
4.82718e-08
4.82713e-08
4.82715e-08
4.82712e-08
4.82714e-08
4.82711e-08
4.82713e-08
4.82711e-08
4.82712e-08
4.82711e-08
4.82711e-08
4.82711e-08
4.82711e-08
4.82711e-08
4.82711e-08
4.82711e-08
4.82711e-08
4.82711e-08
4.82711e-08
4.82711e-08
4.82711e-08
4.82711e-08
4.82711e-08
4.82712e-08
4.82711e-08
4.82712e-08
4.82711e-08
4.82713e-08
4.82712e-08
4.82714e-08
4.82712e-08
4.82715e-08
4.82713e-08
4.82718e-08
4.82715e-08
4.82725e-08
4.82725e-08
4.82752e-08
4.82761e-08
4.8283e-08
4.82757e-08
4.82934e-08
6.31539e-08
6.31262e-08
6.31273e-08
6.31133e-08
6.3109e-08
6.31054e-08
6.31044e-08
6.31036e-08
6.31034e-08
6.31031e-08
6.31031e-08
6.31029e-08
6.3103e-08
6.31028e-08
6.31029e-08
6.31028e-08
6.31028e-08
6.31027e-08
6.31027e-08
6.31026e-08
6.31027e-08
6.31026e-08
6.31026e-08
6.31026e-08
6.31026e-08
6.31026e-08
6.31026e-08
6.31026e-08
6.31026e-08
6.31027e-08
6.31027e-08
6.31027e-08
6.31027e-08
6.31028e-08
6.31028e-08
6.31029e-08
6.31028e-08
6.3103e-08
6.31029e-08
6.31031e-08
6.31031e-08
6.31034e-08
6.31036e-08
6.31045e-08
6.31054e-08
6.3109e-08
6.31133e-08
6.31273e-08
6.31262e-08
6.31539e-08
7.08922e-08
7.08465e-08
7.08341e-08
7.0809e-08
7.08006e-08
7.07953e-08
7.07935e-08
7.07925e-08
7.07921e-08
7.07918e-08
7.07917e-08
7.07916e-08
7.07916e-08
7.07914e-08
7.07914e-08
7.07913e-08
7.07913e-08
7.07912e-08
7.07912e-08
7.07911e-08
7.07911e-08
7.07911e-08
7.07911e-08
7.07911e-08
7.07911e-08
7.07911e-08
7.07911e-08
7.07911e-08
7.07911e-08
7.07912e-08
7.07912e-08
7.07912e-08
7.07912e-08
7.07913e-08
7.07913e-08
7.07914e-08
7.07915e-08
7.07916e-08
7.07916e-08
7.07917e-08
7.07918e-08
7.07921e-08
7.07925e-08
7.07935e-08
7.07953e-08
7.08006e-08
7.0809e-08
7.0834e-08
7.08465e-08
7.08922e-08
7.28908e-08
7.28327e-08
7.28134e-08
7.27809e-08
7.27693e-08
7.27628e-08
7.27603e-08
7.27592e-08
7.27585e-08
7.27583e-08
7.27581e-08
7.2758e-08
7.27579e-08
7.27578e-08
7.27577e-08
7.27577e-08
7.27576e-08
7.27575e-08
7.27574e-08
7.27574e-08
7.27574e-08
7.27574e-08
7.27574e-08
7.27574e-08
7.27573e-08
7.27573e-08
7.27574e-08
7.27574e-08
7.27574e-08
7.27574e-08
7.27574e-08
7.27575e-08
7.27575e-08
7.27576e-08
7.27577e-08
7.27577e-08
7.27578e-08
7.27579e-08
7.2758e-08
7.27581e-08
7.27583e-08
7.27585e-08
7.27592e-08
7.27603e-08
7.27628e-08
7.27693e-08
7.27809e-08
7.28134e-08
7.28327e-08
7.28907e-08
7.17989e-08
7.17365e-08
7.17189e-08
7.16833e-08
7.16696e-08
7.16628e-08
7.16594e-08
7.16585e-08
7.16573e-08
7.16574e-08
7.16568e-08
7.16569e-08
7.16566e-08
7.16567e-08
7.16565e-08
7.16565e-08
7.16563e-08
7.16563e-08
7.16561e-08
7.16561e-08
7.16561e-08
7.16561e-08
7.16561e-08
7.16561e-08
7.1656e-08
7.1656e-08
7.16561e-08
7.16561e-08
7.16561e-08
7.16561e-08
7.16561e-08
7.16562e-08
7.16563e-08
7.16563e-08
7.16565e-08
7.16565e-08
7.16567e-08
7.16566e-08
7.16569e-08
7.16569e-08
7.16574e-08
7.16573e-08
7.16585e-08
7.16594e-08
7.16628e-08
7.16696e-08
7.16833e-08
7.17188e-08
7.17365e-08
7.17989e-08
6.92142e-08
6.91544e-08
6.9145e-08
6.91102e-08
6.90953e-08
6.90889e-08
6.90843e-08
6.9084e-08
6.9082e-08
6.90825e-08
6.90815e-08
6.90819e-08
6.90813e-08
6.90815e-08
6.90811e-08
6.90813e-08
6.9081e-08
6.9081e-08
6.90808e-08
6.90808e-08
6.90807e-08
6.90808e-08
6.90807e-08
6.90807e-08
6.90807e-08
6.90807e-08
6.90807e-08
6.90807e-08
6.90808e-08
6.90807e-08
6.90809e-08
6.90808e-08
6.90811e-08
6.9081e-08
6.90813e-08
6.90812e-08
6.90816e-08
6.90813e-08
6.90819e-08
6.90816e-08
6.90825e-08
6.9082e-08
6.9084e-08
6.90843e-08
6.90889e-08
6.90953e-08
6.91102e-08
6.9145e-08
6.91544e-08
6.92142e-08
6.5934e-08
6.58824e-08
6.58859e-08
6.58547e-08
6.58391e-08
6.58336e-08
6.58278e-08
6.58281e-08
6.58253e-08
6.58264e-08
6.58248e-08
6.58256e-08
6.58246e-08
6.58251e-08
6.58244e-08
6.58247e-08
6.58243e-08
6.58245e-08
6.58241e-08
6.58242e-08
6.5824e-08
6.58241e-08
6.5824e-08
6.58241e-08
6.5824e-08
6.5824e-08
6.58241e-08
6.5824e-08
6.58241e-08
6.58241e-08
6.58243e-08
6.58241e-08
6.58245e-08
6.58243e-08
6.58248e-08
6.58245e-08
6.58251e-08
6.58247e-08
6.58256e-08
6.58249e-08
6.58264e-08
6.58254e-08
6.58281e-08
6.58278e-08
6.58336e-08
6.58391e-08
6.58547e-08
6.58858e-08
6.58823e-08
6.5934e-08
6.23467e-08
6.2307e-08
6.23264e-08
6.23009e-08
6.22852e-08
6.2281e-08
6.22739e-08
6.2275e-08
6.22713e-08
6.2273e-08
6.22708e-08
6.2272e-08
6.22706e-08
6.22713e-08
6.22704e-08
6.22709e-08
6.22702e-08
6.22706e-08
6.22701e-08
6.22703e-08
6.227e-08
6.22702e-08
6.227e-08
6.22701e-08
6.227e-08
6.227e-08
6.22701e-08
6.227e-08
6.22702e-08
6.227e-08
6.22703e-08
6.22701e-08
6.22706e-08
6.22702e-08
6.22709e-08
6.22704e-08
6.22714e-08
6.22706e-08
6.2272e-08
6.22708e-08
6.2273e-08
6.22713e-08
6.22751e-08
6.22739e-08
6.2281e-08
6.22851e-08
6.23009e-08
6.23264e-08
6.23069e-08
6.23466e-08
5.86413e-08
5.86162e-08
5.8653e-08
5.86345e-08
5.86191e-08
5.86164e-08
5.86081e-08
5.86101e-08
5.86054e-08
5.86077e-08
5.86049e-08
5.86065e-08
5.86047e-08
5.86057e-08
5.86045e-08
5.86052e-08
5.86043e-08
5.86048e-08
5.86042e-08
5.86045e-08
5.86042e-08
5.86043e-08
5.86041e-08
5.86042e-08
5.86042e-08
5.86042e-08
5.86043e-08
5.86042e-08
5.86044e-08
5.86042e-08
5.86045e-08
5.86043e-08
5.86049e-08
5.86044e-08
5.86053e-08
5.86046e-08
5.86058e-08
5.86048e-08
5.86065e-08
5.86049e-08
5.86077e-08
5.86054e-08
5.86101e-08
5.86081e-08
5.86164e-08
5.86191e-08
5.86345e-08
5.8653e-08
5.86162e-08
5.86413e-08
5.47754e-08
5.47646e-08
5.4816e-08
5.48044e-08
5.47897e-08
5.47884e-08
5.4779e-08
5.47818e-08
5.47763e-08
5.47791e-08
5.47758e-08
5.47777e-08
5.47756e-08
5.47768e-08
5.47754e-08
5.47762e-08
5.47752e-08
5.47758e-08
5.47751e-08
5.47754e-08
5.4775e-08
5.47752e-08
5.4775e-08
5.47751e-08
5.4775e-08
5.4775e-08
5.47751e-08
5.4775e-08
5.47753e-08
5.4775e-08
5.47755e-08
5.47751e-08
5.47758e-08
5.47752e-08
5.47763e-08
5.47754e-08
5.47768e-08
5.47756e-08
5.47777e-08
5.47758e-08
5.47791e-08
5.47763e-08
5.47818e-08
5.4779e-08
5.47884e-08
5.47896e-08
5.48044e-08
5.4816e-08
5.47646e-08
5.47753e-08
5.11142e-08
5.11199e-08
5.11878e-08
5.11841e-08
5.11703e-08
5.11707e-08
5.11602e-08
5.11638e-08
5.11574e-08
5.11608e-08
5.11569e-08
5.11593e-08
5.11567e-08
5.11582e-08
5.11565e-08
5.11576e-08
5.11563e-08
5.11571e-08
5.11562e-08
5.11567e-08
5.11562e-08
5.11565e-08
5.11562e-08
5.11563e-08
5.11562e-08
5.11562e-08
5.11563e-08
5.11562e-08
5.11565e-08
5.11562e-08
5.11567e-08
5.11563e-08
5.11571e-08
5.11563e-08
5.11576e-08
5.11566e-08
5.11583e-08
5.11568e-08
5.11593e-08
5.11569e-08
5.11608e-08
5.11574e-08
5.11638e-08
5.11602e-08
5.11706e-08
5.11702e-08
5.11841e-08
5.11878e-08
5.11198e-08
5.11142e-08
4.75403e-08
4.75459e-08
4.76152e-08
4.76151e-08
4.76047e-08
4.76053e-08
4.75958e-08
4.7599e-08
4.75929e-08
4.7596e-08
4.75923e-08
4.75945e-08
4.75921e-08
4.75934e-08
4.75918e-08
4.75928e-08
4.75916e-08
4.75923e-08
4.75915e-08
4.75919e-08
4.75915e-08
4.75917e-08
4.75914e-08
4.75916e-08
4.75915e-08
4.75915e-08
4.75916e-08
4.75914e-08
4.75917e-08
4.75915e-08
4.75919e-08
4.75915e-08
4.75923e-08
4.75916e-08
4.75928e-08
4.75919e-08
4.75935e-08
4.75921e-08
4.75945e-08
4.75924e-08
4.7596e-08
4.75929e-08
4.7599e-08
4.75958e-08
4.76053e-08
4.76047e-08
4.76151e-08
4.76151e-08
4.75459e-08
4.75403e-08
4.39888e-08
4.40075e-08
4.40858e-08
4.40919e-08
4.40829e-08
4.40846e-08
4.40747e-08
4.40783e-08
4.40718e-08
4.40751e-08
4.40712e-08
4.40735e-08
4.40709e-08
4.40723e-08
4.40707e-08
4.40717e-08
4.40704e-08
4.40711e-08
4.40703e-08
4.40708e-08
4.40703e-08
4.40705e-08
4.40702e-08
4.40704e-08
4.40703e-08
4.40703e-08
4.40704e-08
4.40702e-08
4.40705e-08
4.40703e-08
4.40708e-08
4.40704e-08
4.40712e-08
4.40704e-08
4.40717e-08
4.40707e-08
4.40724e-08
4.4071e-08
4.40735e-08
4.40712e-08
4.40751e-08
4.40718e-08
4.40783e-08
4.40747e-08
4.40846e-08
4.40829e-08
4.40919e-08
4.40858e-08
4.40074e-08
4.39888e-08
4.07291e-08
4.07613e-08
4.08496e-08
4.08621e-08
4.08546e-08
4.08575e-08
4.08472e-08
4.08512e-08
4.08443e-08
4.08478e-08
4.08436e-08
4.08461e-08
4.08433e-08
4.08449e-08
4.08431e-08
4.08441e-08
4.08428e-08
4.08436e-08
4.08427e-08
4.08432e-08
4.08427e-08
4.08429e-08
4.08426e-08
4.08428e-08
4.08427e-08
4.08427e-08
4.08428e-08
4.08426e-08
4.0843e-08
4.08427e-08
4.08432e-08
4.08428e-08
4.08437e-08
4.08428e-08
4.08442e-08
4.08431e-08
4.08449e-08
4.08434e-08
4.08461e-08
4.08437e-08
4.08478e-08
4.08443e-08
4.08512e-08
4.08472e-08
4.08575e-08
4.08546e-08
4.08621e-08
4.08496e-08
4.07613e-08
4.07291e-08
3.75357e-08
3.75859e-08
3.76883e-08
3.77105e-08
3.7706e-08
3.77107e-08
3.77e-08
3.77044e-08
3.7697e-08
3.77007e-08
3.76962e-08
3.76988e-08
3.76958e-08
3.76975e-08
3.76955e-08
3.76967e-08
3.76952e-08
3.76961e-08
3.76951e-08
3.76956e-08
3.76951e-08
3.76954e-08
3.7695e-08
3.76952e-08
3.76951e-08
3.76951e-08
3.76952e-08
3.7695e-08
3.76954e-08
3.76951e-08
3.76957e-08
3.76952e-08
3.76961e-08
3.76952e-08
3.76967e-08
3.76955e-08
3.76975e-08
3.76959e-08
3.76988e-08
3.76962e-08
3.77007e-08
3.7697e-08
3.77044e-08
3.77e-08
3.77107e-08
3.7706e-08
3.77105e-08
3.76882e-08
3.75859e-08
3.75357e-08
3.46325e-08
3.46946e-08
3.4803e-08
3.48303e-08
3.48275e-08
3.48331e-08
3.48223e-08
3.48269e-08
3.48192e-08
3.48231e-08
3.48184e-08
3.48211e-08
3.4818e-08
3.48197e-08
3.48177e-08
3.48189e-08
3.48174e-08
3.48183e-08
3.48173e-08
3.48178e-08
3.48172e-08
3.48175e-08
3.48172e-08
3.48173e-08
3.48172e-08
3.48172e-08
3.48173e-08
3.48172e-08
3.48176e-08
3.48173e-08
3.48179e-08
3.48173e-08
3.48183e-08
3.48174e-08
3.48189e-08
3.48177e-08
3.48198e-08
3.48181e-08
3.48211e-08
3.48185e-08
3.48231e-08
3.48192e-08
3.48269e-08
3.48223e-08
3.4833e-08
3.48274e-08
3.48303e-08
3.4803e-08
3.46946e-08
3.46325e-08
3.18134e-08
3.18928e-08
3.20134e-08
3.20488e-08
3.20471e-08
3.20543e-08
3.20426e-08
3.20479e-08
3.20395e-08
3.20438e-08
3.20387e-08
3.20417e-08
3.20383e-08
3.20402e-08
3.20379e-08
3.20392e-08
3.20376e-08
3.20386e-08
3.20375e-08
3.20381e-08
3.20374e-08
3.20378e-08
3.20374e-08
3.20376e-08
3.20375e-08
3.20375e-08
3.20376e-08
3.20374e-08
3.20378e-08
3.20375e-08
3.20381e-08
3.20376e-08
3.20386e-08
3.20376e-08
3.20393e-08
3.2038e-08
3.20402e-08
3.20383e-08
3.20417e-08
3.20388e-08
3.20439e-08
3.20395e-08
3.20479e-08
3.20426e-08
3.20543e-08
3.20471e-08
3.20488e-08
3.20134e-08
3.18928e-08
3.18134e-08
2.91842e-08
2.92728e-08
2.93935e-08
2.94317e-08
2.94313e-08
2.94388e-08
2.94274e-08
2.94326e-08
2.94243e-08
2.94285e-08
2.94234e-08
2.94264e-08
2.9423e-08
2.94248e-08
2.94226e-08
2.94239e-08
2.94222e-08
2.94232e-08
2.94222e-08
2.94227e-08
2.94221e-08
2.94224e-08
2.9422e-08
2.94222e-08
2.94221e-08
2.94221e-08
2.94222e-08
2.9422e-08
2.94224e-08
2.94221e-08
2.94228e-08
2.94222e-08
2.94233e-08
2.94223e-08
2.94239e-08
2.94226e-08
2.94249e-08
2.9423e-08
2.94264e-08
2.94235e-08
2.94285e-08
2.94243e-08
2.94326e-08
2.94274e-08
2.94388e-08
2.94313e-08
2.94317e-08
2.93934e-08
2.92728e-08
2.91842e-08
2.68377e-08
2.69363e-08
2.70578e-08
2.70989e-08
2.70997e-08
2.71077e-08
2.70964e-08
2.71016e-08
2.70934e-08
2.70975e-08
2.70924e-08
2.70953e-08
2.7092e-08
2.70938e-08
2.70915e-08
2.70928e-08
2.70912e-08
2.70922e-08
2.70911e-08
2.70917e-08
2.7091e-08
2.70913e-08
2.70909e-08
2.70911e-08
2.7091e-08
2.7091e-08
2.70911e-08
2.70909e-08
2.70914e-08
2.7091e-08
2.70917e-08
2.70911e-08
2.70922e-08
2.70912e-08
2.70929e-08
2.70916e-08
2.70938e-08
2.7092e-08
2.70953e-08
2.70925e-08
2.70975e-08
2.70934e-08
2.71016e-08
2.70964e-08
2.71076e-08
2.70997e-08
2.70989e-08
2.70578e-08
2.69362e-08
2.68377e-08
2.46754e-08
2.47835e-08
2.49047e-08
2.4948e-08
2.49499e-08
2.49582e-08
2.49472e-08
2.49523e-08
2.49441e-08
2.49482e-08
2.49432e-08
2.4946e-08
2.49427e-08
2.49444e-08
2.49422e-08
2.49435e-08
2.49418e-08
2.49428e-08
2.49417e-08
2.49423e-08
2.49416e-08
2.4942e-08
2.49416e-08
2.49418e-08
2.49416e-08
2.49416e-08
2.49418e-08
2.49416e-08
2.4942e-08
2.49417e-08
2.49423e-08
2.49418e-08
2.49428e-08
2.49419e-08
2.49435e-08
2.49422e-08
2.49445e-08
2.49427e-08
2.4946e-08
2.49432e-08
2.49482e-08
2.49441e-08
2.49523e-08
2.49472e-08
2.49582e-08
2.49498e-08
2.4948e-08
2.49047e-08
2.47835e-08
2.46754e-08
2.26912e-08
2.27536e-08
2.2866e-08
2.29088e-08
2.29133e-08
2.29217e-08
2.29119e-08
2.29164e-08
2.29089e-08
2.29124e-08
2.29078e-08
2.29102e-08
2.29071e-08
2.29087e-08
2.29066e-08
2.29077e-08
2.29062e-08
2.29071e-08
2.29061e-08
2.29066e-08
2.2906e-08
2.29063e-08
2.29059e-08
2.29061e-08
2.2906e-08
2.2906e-08
2.29061e-08
2.2906e-08
2.29063e-08
2.29061e-08
2.29067e-08
2.29062e-08
2.29071e-08
2.29063e-08
2.29078e-08
2.29067e-08
2.29087e-08
2.29072e-08
2.29102e-08
2.29078e-08
2.29124e-08
2.29089e-08
2.29164e-08
2.29119e-08
2.29216e-08
2.29132e-08
2.29088e-08
2.2866e-08
2.27536e-08
2.26912e-08
2.08777e-08
2.09447e-08
2.10546e-08
2.10981e-08
2.11034e-08
2.11119e-08
2.11025e-08
2.11069e-08
2.10995e-08
2.11029e-08
2.10984e-08
2.11007e-08
2.10977e-08
2.10992e-08
2.10972e-08
2.10983e-08
2.10968e-08
2.10977e-08
2.10967e-08
2.10972e-08
2.10966e-08
2.10969e-08
2.10965e-08
2.10967e-08
2.10966e-08
2.10966e-08
2.10967e-08
2.10965e-08
2.10969e-08
2.10966e-08
2.10972e-08
2.10967e-08
2.10977e-08
2.10968e-08
2.10983e-08
2.10973e-08
2.10993e-08
2.10978e-08
2.11008e-08
2.10984e-08
2.11029e-08
2.10995e-08
2.11069e-08
2.11025e-08
2.11119e-08
2.11034e-08
2.10981e-08
2.10545e-08
2.09447e-08
2.08776e-08
1.91615e-08
1.92333e-08
1.9343e-08
1.93889e-08
1.93956e-08
1.94045e-08
1.93953e-08
1.93995e-08
1.93923e-08
1.93955e-08
1.9391e-08
1.93932e-08
1.93902e-08
1.93917e-08
1.93897e-08
1.93907e-08
1.93892e-08
1.939e-08
1.93891e-08
1.93895e-08
1.93889e-08
1.93892e-08
1.93888e-08
1.9389e-08
1.93889e-08
1.93889e-08
1.9389e-08
1.93889e-08
1.93892e-08
1.9389e-08
1.93896e-08
1.93891e-08
1.93901e-08
1.93892e-08
1.93907e-08
1.93897e-08
1.93917e-08
1.93903e-08
1.93933e-08
1.9391e-08
1.93955e-08
1.93923e-08
1.93995e-08
1.93953e-08
1.94045e-08
1.93955e-08
1.93889e-08
1.9343e-08
1.92333e-08
1.91615e-08
1.75994e-08
1.76727e-08
1.77774e-08
1.78226e-08
1.78297e-08
1.78385e-08
1.78298e-08
1.78337e-08
1.78268e-08
1.78298e-08
1.78255e-08
1.78276e-08
1.78247e-08
1.7826e-08
1.78241e-08
1.7825e-08
1.78236e-08
1.78244e-08
1.78235e-08
1.78239e-08
1.78234e-08
1.78236e-08
1.78233e-08
1.78234e-08
1.78233e-08
1.78233e-08
1.78234e-08
1.78233e-08
1.78236e-08
1.78234e-08
1.7824e-08
1.78235e-08
1.78244e-08
1.78237e-08
1.78251e-08
1.78241e-08
1.7826e-08
1.78247e-08
1.78276e-08
1.78255e-08
1.78298e-08
1.78268e-08
1.78337e-08
1.78298e-08
1.78384e-08
1.78297e-08
1.78226e-08
1.77773e-08
1.76727e-08
1.75994e-08
1.61806e-08
1.62549e-08
1.63541e-08
1.63983e-08
1.64058e-08
1.64143e-08
1.64061e-08
1.64098e-08
1.64032e-08
1.64059e-08
1.64019e-08
1.64038e-08
1.64011e-08
1.64023e-08
1.64004e-08
1.64013e-08
1.64e-08
1.64007e-08
1.63998e-08
1.64002e-08
1.63997e-08
1.63999e-08
1.63996e-08
1.63997e-08
1.63996e-08
1.63996e-08
1.63997e-08
1.63996e-08
1.63999e-08
1.63997e-08
1.64002e-08
1.63998e-08
1.64007e-08
1.64e-08
1.64014e-08
1.64005e-08
1.64023e-08
1.64011e-08
1.64038e-08
1.64019e-08
1.6406e-08
1.64032e-08
1.64098e-08
1.64061e-08
1.64143e-08
1.64058e-08
1.63983e-08
1.63541e-08
1.62548e-08
1.61806e-08
1.48946e-08
1.4969e-08
1.50628e-08
1.51057e-08
1.51135e-08
1.51217e-08
1.5114e-08
1.51174e-08
1.51112e-08
1.51137e-08
1.51098e-08
1.51115e-08
1.5109e-08
1.51101e-08
1.51083e-08
1.51091e-08
1.51078e-08
1.51085e-08
1.51077e-08
1.51081e-08
1.51075e-08
1.51077e-08
1.51074e-08
1.51075e-08
1.51075e-08
1.51075e-08
1.51076e-08
1.51074e-08
1.51078e-08
1.51076e-08
1.51081e-08
1.51077e-08
1.51085e-08
1.51079e-08
1.51092e-08
1.51084e-08
1.51101e-08
1.5109e-08
1.51116e-08
1.51099e-08
1.51137e-08
1.51112e-08
1.51174e-08
1.5114e-08
1.51217e-08
1.51135e-08
1.51057e-08
1.50628e-08
1.4969e-08
1.48946e-08
1.37308e-08
1.38046e-08
1.38931e-08
1.39345e-08
1.39424e-08
1.39503e-08
1.39431e-08
1.39462e-08
1.39403e-08
1.39426e-08
1.39389e-08
1.39405e-08
1.39381e-08
1.3939e-08
1.39374e-08
1.39381e-08
1.39369e-08
1.39375e-08
1.39367e-08
1.39371e-08
1.39366e-08
1.39368e-08
1.39365e-08
1.39366e-08
1.39365e-08
1.39365e-08
1.39366e-08
1.39365e-08
1.39368e-08
1.39366e-08
1.39371e-08
1.39368e-08
1.39375e-08
1.3937e-08
1.39382e-08
1.39374e-08
1.39391e-08
1.39381e-08
1.39405e-08
1.3939e-08
1.39426e-08
1.39403e-08
1.39462e-08
1.39431e-08
1.39503e-08
1.39424e-08
1.39345e-08
1.38931e-08
1.38045e-08
1.37307e-08
1.26786e-08
1.27513e-08
1.28348e-08
1.28744e-08
1.28824e-08
1.28899e-08
1.28832e-08
1.2886e-08
1.28805e-08
1.28825e-08
1.28791e-08
1.28805e-08
1.28782e-08
1.2879e-08
1.28775e-08
1.28781e-08
1.2877e-08
1.28775e-08
1.28768e-08
1.28771e-08
1.28766e-08
1.28768e-08
1.28765e-08
1.28766e-08
1.28766e-08
1.28766e-08
1.28767e-08
1.28766e-08
1.28768e-08
1.28767e-08
1.28771e-08
1.28768e-08
1.28776e-08
1.2877e-08
1.28782e-08
1.28775e-08
1.28791e-08
1.28782e-08
1.28805e-08
1.28791e-08
1.28825e-08
1.28805e-08
1.2886e-08
1.28832e-08
1.28899e-08
1.28823e-08
1.28743e-08
1.28348e-08
1.27513e-08
1.26786e-08
1.17281e-08
1.17993e-08
1.18779e-08
1.19156e-08
1.19236e-08
1.19308e-08
1.19245e-08
1.19271e-08
1.19219e-08
1.19237e-08
1.19205e-08
1.19217e-08
1.19195e-08
1.19203e-08
1.19188e-08
1.19194e-08
1.19184e-08
1.19188e-08
1.19181e-08
1.19184e-08
1.1918e-08
1.19181e-08
1.19179e-08
1.1918e-08
1.19179e-08
1.19179e-08
1.1918e-08
1.19179e-08
1.19182e-08
1.1918e-08
1.19185e-08
1.19182e-08
1.19189e-08
1.19184e-08
1.19195e-08
1.19189e-08
1.19203e-08
1.19196e-08
1.19217e-08
1.19205e-08
1.19237e-08
1.19219e-08
1.19271e-08
1.19245e-08
1.19308e-08
1.19236e-08
1.19156e-08
1.18778e-08
1.17993e-08
1.17281e-08
1.08699e-08
1.09392e-08
1.1013e-08
1.10489e-08
1.10568e-08
1.10636e-08
1.10578e-08
1.10601e-08
1.10552e-08
1.10568e-08
1.10538e-08
1.10549e-08
1.10528e-08
1.10535e-08
1.10521e-08
1.10527e-08
1.10516e-08
1.10521e-08
1.10514e-08
1.10517e-08
1.10513e-08
1.10514e-08
1.10511e-08
1.10512e-08
1.10512e-08
1.10512e-08
1.10512e-08
1.10512e-08
1.10514e-08
1.10513e-08
1.10517e-08
1.10515e-08
1.10521e-08
1.10517e-08
1.10527e-08
1.10522e-08
1.10536e-08
1.10529e-08
1.10549e-08
1.10538e-08
1.10568e-08
1.10552e-08
1.10601e-08
1.10578e-08
1.10636e-08
1.10568e-08
1.10488e-08
1.1013e-08
1.09391e-08
1.08698e-08
1.00949e-08
1.01621e-08
1.02314e-08
1.02654e-08
1.02732e-08
1.02797e-08
1.02743e-08
1.02763e-08
1.02718e-08
1.02731e-08
1.02703e-08
1.02713e-08
1.02693e-08
1.02699e-08
1.02686e-08
1.02691e-08
1.02681e-08
1.02685e-08
1.02679e-08
1.02681e-08
1.02677e-08
1.02679e-08
1.02676e-08
1.02677e-08
1.02676e-08
1.02676e-08
1.02677e-08
1.02676e-08
1.02679e-08
1.02678e-08
1.02682e-08
1.02679e-08
1.02686e-08
1.02682e-08
1.02691e-08
1.02687e-08
1.027e-08
1.02694e-08
1.02713e-08
1.02703e-08
1.02732e-08
1.02718e-08
1.02763e-08
1.02743e-08
1.02797e-08
1.02732e-08
1.02654e-08
1.02314e-08
1.0162e-08
1.00949e-08
9.39503e-09
9.45984e-09
9.52491e-09
9.55705e-09
9.56471e-09
9.57083e-09
9.56577e-09
9.56758e-09
9.56334e-09
9.56453e-09
9.56187e-09
9.5627e-09
9.56089e-09
9.56141e-09
9.56018e-09
9.56058e-09
9.55968e-09
9.56003e-09
9.55944e-09
9.55964e-09
9.55927e-09
9.55938e-09
9.55915e-09
9.55922e-09
9.55915e-09
9.55916e-09
9.55923e-09
9.55917e-09
9.5594e-09
9.55929e-09
9.55967e-09
9.55948e-09
9.56007e-09
9.55973e-09
9.56062e-09
9.56022e-09
9.56145e-09
9.56093e-09
9.56272e-09
9.56191e-09
9.56455e-09
9.56335e-09
9.56759e-09
9.56576e-09
9.57081e-09
9.56469e-09
9.55703e-09
9.52488e-09
9.4598e-09
9.395e-09
8.76258e-09
8.82489e-09
8.88594e-09
8.91629e-09
8.92375e-09
8.92952e-09
8.92481e-09
8.92642e-09
8.92244e-09
8.92347e-09
8.92097e-09
8.92169e-09
8.91998e-09
8.92043e-09
8.91927e-09
8.91961e-09
8.91877e-09
8.91907e-09
8.91852e-09
8.91869e-09
8.91834e-09
8.91843e-09
8.91822e-09
8.91828e-09
8.91822e-09
8.91822e-09
8.91829e-09
8.91824e-09
8.91846e-09
8.91836e-09
8.91872e-09
8.91855e-09
8.91911e-09
8.91881e-09
8.91965e-09
8.91931e-09
8.92047e-09
8.92002e-09
8.92171e-09
8.92101e-09
8.92349e-09
8.92246e-09
8.92643e-09
8.92481e-09
8.92951e-09
8.92373e-09
8.91627e-09
8.88591e-09
8.82486e-09
8.76255e-09
8.19064e-09
8.25032e-09
8.3076e-09
8.33623e-09
8.34347e-09
8.3489e-09
8.34451e-09
8.34593e-09
8.3422e-09
8.34307e-09
8.34073e-09
8.34133e-09
8.33973e-09
8.34011e-09
8.33901e-09
8.3393e-09
8.33851e-09
8.33878e-09
8.33825e-09
8.3384e-09
8.33806e-09
8.33815e-09
8.33795e-09
8.338e-09
8.33794e-09
8.33795e-09
8.33801e-09
8.33796e-09
8.33817e-09
8.33809e-09
8.33843e-09
8.33828e-09
8.33881e-09
8.33855e-09
8.33934e-09
8.33905e-09
8.34015e-09
8.33977e-09
8.34136e-09
8.34076e-09
8.3431e-09
8.34221e-09
8.34593e-09
8.34451e-09
8.34888e-09
8.34345e-09
8.33621e-09
8.30757e-09
8.25028e-09
8.1906e-09
7.67288e-09
7.72982e-09
7.7836e-09
7.81058e-09
7.81758e-09
7.82268e-09
7.81859e-09
7.81983e-09
7.81634e-09
7.81708e-09
7.81487e-09
7.81538e-09
7.81387e-09
7.81418e-09
7.81314e-09
7.81339e-09
7.81264e-09
7.81287e-09
7.81237e-09
7.81251e-09
7.81218e-09
7.81226e-09
7.81206e-09
7.81211e-09
7.81206e-09
7.81206e-09
7.81212e-09
7.81208e-09
7.81228e-09
7.81221e-09
7.81254e-09
7.81241e-09
7.81291e-09
7.81268e-09
7.81343e-09
7.81318e-09
7.81422e-09
7.8139e-09
7.8154e-09
7.8149e-09
7.8171e-09
7.81636e-09
7.81984e-09
7.81859e-09
7.82267e-09
7.81757e-09
7.81056e-09
7.78358e-09
7.72979e-09
7.67284e-09
7.2036e-09
7.25772e-09
7.30827e-09
7.33368e-09
7.34043e-09
7.34521e-09
7.3414e-09
7.34247e-09
7.3392e-09
7.33981e-09
7.33773e-09
7.33815e-09
7.33672e-09
7.33698e-09
7.33599e-09
7.3362e-09
7.33549e-09
7.33569e-09
7.33522e-09
7.33533e-09
7.33502e-09
7.33508e-09
7.3349e-09
7.33494e-09
7.33489e-09
7.3349e-09
7.33495e-09
7.33492e-09
7.33511e-09
7.33505e-09
7.33536e-09
7.33525e-09
7.33572e-09
7.33553e-09
7.33624e-09
7.33603e-09
7.33701e-09
7.33676e-09
7.33817e-09
7.33776e-09
7.33983e-09
7.33921e-09
7.34248e-09
7.34139e-09
7.3452e-09
7.34041e-09
7.33366e-09
7.30824e-09
7.25769e-09
7.20357e-09
6.7777e-09
6.8289e-09
6.87648e-09
6.9004e-09
6.9069e-09
6.91137e-09
6.90781e-09
6.90874e-09
6.90566e-09
6.90616e-09
6.90419e-09
6.90453e-09
6.90318e-09
6.90339e-09
6.90245e-09
6.90262e-09
6.90195e-09
6.90212e-09
6.90167e-09
6.90176e-09
6.90147e-09
6.90152e-09
6.90135e-09
6.90139e-09
6.90134e-09
6.90134e-09
6.90139e-09
6.90137e-09
6.90155e-09
6.9015e-09
6.90179e-09
6.9017e-09
6.90215e-09
6.90199e-09
6.90266e-09
6.90249e-09
6.90342e-09
6.90322e-09
6.90456e-09
6.90423e-09
6.90618e-09
6.90568e-09
6.90874e-09
6.9078e-09
6.91135e-09
6.90688e-09
6.90038e-09
6.87645e-09
6.82886e-09
6.77767e-09
6.39043e-09
6.43889e-09
6.48364e-09
6.50616e-09
6.5124e-09
6.51657e-09
6.51324e-09
6.51403e-09
6.51115e-09
6.51154e-09
6.50968e-09
6.50995e-09
6.50867e-09
6.50882e-09
6.50793e-09
6.50807e-09
6.50743e-09
6.50757e-09
6.50714e-09
6.50722e-09
6.50695e-09
6.50699e-09
6.50682e-09
6.50685e-09
6.50681e-09
6.50681e-09
6.50686e-09
6.50684e-09
6.50701e-09
6.50697e-09
6.50725e-09
6.50718e-09
6.50761e-09
6.50747e-09
6.50811e-09
6.50798e-09
6.50886e-09
6.5087e-09
6.50997e-09
6.50971e-09
6.51156e-09
6.51116e-09
6.51404e-09
6.51324e-09
6.51655e-09
6.51238e-09
6.50614e-09
6.48361e-09
6.43886e-09
6.3904e-09
)
;

boundaryField
{
    fuel
    {
        type            fixedValue;
        value           uniform 0;
    }
    wall
    {
        type            zeroGradient;
    }
    outlet
    {
        type            zeroGradient;
    }
    frontAndBack
    {
        type            empty;
    }
    procBoundary1to0
    {
        type            processor;
        value           nonuniform List<scalar> 
50
(
6.03769e-09
6.0836e-09
6.12563e-09
6.14684e-09
6.15281e-09
6.1567e-09
6.15359e-09
6.15426e-09
6.15154e-09
6.15184e-09
6.15008e-09
6.15028e-09
6.14907e-09
6.14918e-09
6.14834e-09
6.14844e-09
6.14783e-09
6.14795e-09
6.14754e-09
6.1476e-09
6.14734e-09
6.14737e-09
6.14722e-09
6.14724e-09
6.1472e-09
6.1472e-09
6.14725e-09
6.14723e-09
6.14739e-09
6.14737e-09
6.14763e-09
6.14757e-09
6.14798e-09
6.14787e-09
6.14848e-09
6.14838e-09
6.14922e-09
6.1491e-09
6.15031e-09
6.15012e-09
6.15186e-09
6.15156e-09
6.15427e-09
6.15359e-09
6.15669e-09
6.15279e-09
6.14682e-09
6.12561e-09
6.08357e-09
6.03765e-09
)
;
    }
}


// ************************************************************************* //
