/*--------------------------------*- C++ -*----------------------------------*\
| =========                 |                                                 |
| \\      /  F ield         | OpenFOAM: The Open Source CFD Toolbox           |
|  \\    /   O peration     | Version:  dev                                   |
|   \\  /    A nd           | Web:      www.OpenFOAM.org                      |
|    \\/     M anipulation  |                                                 |
\*---------------------------------------------------------------------------*/
FoamFile
{
    version     2.0;
    format      ascii;
    class       volScalarField;
    location    "0.035";
    object      P2;
}
// * * * * * * * * * * * * * * * * * * * * * * * * * * * * * * * * * * * * * //

dimensions      [0 0 0 0 0 0 0];

internalField   nonuniform List<scalar> 
2000
(
1.49785e-08
1.49586e-08
1.49505e-08
1.49422e-08
1.49421e-08
1.49392e-08
1.49402e-08
1.49389e-08
1.49398e-08
1.4939e-08
1.49396e-08
1.4939e-08
1.49395e-08
1.49391e-08
1.49394e-08
1.49391e-08
1.49393e-08
1.49392e-08
1.49393e-08
1.49392e-08
1.49392e-08
1.49392e-08
1.49392e-08
1.49392e-08
1.49392e-08
1.49392e-08
1.49392e-08
1.49392e-08
1.49392e-08
1.49393e-08
1.49392e-08
1.49393e-08
1.49392e-08
1.49393e-08
1.49391e-08
1.49394e-08
1.49391e-08
1.49395e-08
1.4939e-08
1.49396e-08
1.4939e-08
1.49398e-08
1.49389e-08
1.49402e-08
1.49393e-08
1.49421e-08
1.49422e-08
1.49505e-08
1.49586e-08
1.49784e-08
2.98282e-08
2.97827e-08
2.97612e-08
2.9742e-08
2.97413e-08
2.97352e-08
2.97373e-08
2.97345e-08
2.97364e-08
2.97346e-08
2.9736e-08
2.97348e-08
2.97357e-08
2.97349e-08
2.97355e-08
2.9735e-08
2.97354e-08
2.9735e-08
2.97353e-08
2.97351e-08
2.97352e-08
2.97351e-08
2.97352e-08
2.97352e-08
2.97352e-08
2.97352e-08
2.97352e-08
2.97352e-08
2.97351e-08
2.97352e-08
2.97351e-08
2.97353e-08
2.9735e-08
2.97355e-08
2.9735e-08
2.97356e-08
2.97349e-08
2.97357e-08
2.97348e-08
2.9736e-08
2.97346e-08
2.97364e-08
2.97345e-08
2.97373e-08
2.97352e-08
2.97413e-08
2.9742e-08
2.97612e-08
2.97827e-08
2.98281e-08
4.85167e-08
4.84548e-08
4.84295e-08
4.84029e-08
4.84012e-08
4.83928e-08
4.83953e-08
4.83915e-08
4.83938e-08
4.83916e-08
4.83933e-08
4.83917e-08
4.83929e-08
4.83919e-08
4.83927e-08
4.8392e-08
4.83926e-08
4.83921e-08
4.83924e-08
4.83921e-08
4.83923e-08
4.83921e-08
4.83923e-08
4.83922e-08
4.83922e-08
4.83922e-08
4.83922e-08
4.83923e-08
4.83922e-08
4.83923e-08
4.83921e-08
4.83924e-08
4.83921e-08
4.83926e-08
4.8392e-08
4.83927e-08
4.8392e-08
4.83929e-08
4.83918e-08
4.83933e-08
4.83916e-08
4.83938e-08
4.83915e-08
4.83953e-08
4.83928e-08
4.84012e-08
4.84029e-08
4.84295e-08
4.84548e-08
4.85167e-08
6.86486e-08
6.85571e-08
6.85125e-08
6.84694e-08
6.84626e-08
6.84509e-08
6.84529e-08
6.84484e-08
6.84508e-08
6.84483e-08
6.84501e-08
6.84484e-08
6.84497e-08
6.84486e-08
6.84495e-08
6.84487e-08
6.84493e-08
6.84487e-08
6.84491e-08
6.84487e-08
6.8449e-08
6.84488e-08
6.84489e-08
6.84488e-08
6.84489e-08
6.84489e-08
6.84488e-08
6.84489e-08
6.84488e-08
6.8449e-08
6.84487e-08
6.84491e-08
6.84487e-08
6.84493e-08
6.84487e-08
6.84495e-08
6.84486e-08
6.84498e-08
6.84484e-08
6.84502e-08
6.84483e-08
6.84508e-08
6.84484e-08
6.84529e-08
6.8451e-08
6.84626e-08
6.84694e-08
6.85125e-08
6.85571e-08
6.86486e-08
8.25813e-08
8.24575e-08
8.23902e-08
8.23276e-08
8.23133e-08
8.22985e-08
8.22992e-08
8.22943e-08
8.22965e-08
8.2294e-08
8.22957e-08
8.2294e-08
8.22953e-08
8.22942e-08
8.2295e-08
8.22942e-08
8.22948e-08
8.22941e-08
8.22945e-08
8.22941e-08
8.22943e-08
8.22942e-08
8.22943e-08
8.22942e-08
8.22943e-08
8.22943e-08
8.22942e-08
8.22943e-08
8.22942e-08
8.22944e-08
8.22941e-08
8.22945e-08
8.22942e-08
8.22948e-08
8.22942e-08
8.2295e-08
8.22942e-08
8.22953e-08
8.2294e-08
8.22957e-08
8.2294e-08
8.22965e-08
8.22944e-08
8.22992e-08
8.22985e-08
8.23133e-08
8.23276e-08
8.23902e-08
8.24575e-08
8.25813e-08
8.90465e-08
8.89014e-08
8.88231e-08
8.8746e-08
8.87243e-08
8.87079e-08
8.87064e-08
8.8702e-08
8.87032e-08
8.87012e-08
8.87024e-08
8.87011e-08
8.8702e-08
8.87011e-08
8.87017e-08
8.87011e-08
8.87015e-08
8.8701e-08
8.87012e-08
8.87009e-08
8.8701e-08
8.87009e-08
8.8701e-08
8.87009e-08
8.8701e-08
8.8701e-08
8.8701e-08
8.8701e-08
8.87009e-08
8.87011e-08
8.87009e-08
8.87012e-08
8.8701e-08
8.87015e-08
8.87011e-08
8.87018e-08
8.87012e-08
8.8702e-08
8.87011e-08
8.87024e-08
8.87012e-08
8.87032e-08
8.8702e-08
8.87064e-08
8.87079e-08
8.87243e-08
8.8746e-08
8.88231e-08
8.89013e-08
8.90465e-08
8.95664e-08
8.94149e-08
8.93413e-08
8.92575e-08
8.92296e-08
8.92131e-08
8.92089e-08
8.92057e-08
8.92053e-08
8.92044e-08
8.92047e-08
8.9204e-08
8.92043e-08
8.9204e-08
8.92041e-08
8.92038e-08
8.92039e-08
8.92036e-08
8.92036e-08
8.92034e-08
8.92035e-08
8.92034e-08
8.92035e-08
8.92034e-08
8.92034e-08
8.92034e-08
8.92034e-08
8.92035e-08
8.92034e-08
8.92035e-08
8.92035e-08
8.92036e-08
8.92036e-08
8.92039e-08
8.92038e-08
8.92042e-08
8.9204e-08
8.92044e-08
8.92041e-08
8.92047e-08
8.92044e-08
8.92054e-08
8.92057e-08
8.92089e-08
8.92131e-08
8.92296e-08
8.92575e-08
8.93412e-08
8.94149e-08
8.95664e-08
8.59804e-08
8.58362e-08
8.578e-08
8.56969e-08
8.56645e-08
8.56494e-08
8.56423e-08
8.56408e-08
8.56386e-08
8.5639e-08
8.56381e-08
8.56384e-08
8.56379e-08
8.56381e-08
8.56377e-08
8.56378e-08
8.56375e-08
8.56375e-08
8.56372e-08
8.56372e-08
8.56371e-08
8.56372e-08
8.56372e-08
8.56372e-08
8.56371e-08
8.56371e-08
8.56372e-08
8.56372e-08
8.56372e-08
8.56372e-08
8.56373e-08
8.56373e-08
8.56375e-08
8.56375e-08
8.56378e-08
8.56377e-08
8.56381e-08
8.56379e-08
8.56384e-08
8.56381e-08
8.5639e-08
8.56386e-08
8.56408e-08
8.56423e-08
8.56494e-08
8.56645e-08
8.56969e-08
8.57799e-08
8.58361e-08
8.59804e-08
7.9872e-08
7.9745e-08
7.97144e-08
7.9638e-08
7.96028e-08
7.95902e-08
7.95801e-08
7.95806e-08
7.95764e-08
7.95783e-08
7.95761e-08
7.95774e-08
7.9576e-08
7.95768e-08
7.95759e-08
7.95764e-08
7.95757e-08
7.9576e-08
7.95755e-08
7.95757e-08
7.95755e-08
7.95756e-08
7.95755e-08
7.95756e-08
7.95755e-08
7.95755e-08
7.95756e-08
7.95755e-08
7.95757e-08
7.95755e-08
7.95758e-08
7.95756e-08
7.95761e-08
7.95758e-08
7.95765e-08
7.9576e-08
7.95769e-08
7.95761e-08
7.95774e-08
7.95761e-08
7.95783e-08
7.95765e-08
7.95806e-08
7.95802e-08
7.95902e-08
7.96028e-08
7.9638e-08
7.97144e-08
7.9745e-08
7.9872e-08
7.2465e-08
7.23614e-08
7.23596e-08
7.22937e-08
7.22576e-08
7.22478e-08
7.22353e-08
7.22376e-08
7.22316e-08
7.22349e-08
7.22314e-08
7.22337e-08
7.22315e-08
7.22329e-08
7.22315e-08
7.22324e-08
7.22313e-08
7.22319e-08
7.22312e-08
7.22316e-08
7.22312e-08
7.22314e-08
7.22312e-08
7.22313e-08
7.22312e-08
7.22312e-08
7.22313e-08
7.22312e-08
7.22314e-08
7.22312e-08
7.22316e-08
7.22312e-08
7.2232e-08
7.22314e-08
7.22325e-08
7.22315e-08
7.2233e-08
7.22315e-08
7.22337e-08
7.22315e-08
7.22349e-08
7.22317e-08
7.22376e-08
7.22353e-08
7.22478e-08
7.22576e-08
7.22937e-08
7.23596e-08
7.23614e-08
7.2465e-08
6.46197e-08
6.45423e-08
6.45689e-08
6.45154e-08
6.44796e-08
6.44729e-08
6.44583e-08
6.44624e-08
6.44548e-08
6.44593e-08
6.44548e-08
6.44578e-08
6.4455e-08
6.44569e-08
6.4455e-08
6.44563e-08
6.44549e-08
6.44558e-08
6.44548e-08
6.44554e-08
6.44548e-08
6.44552e-08
6.44548e-08
6.4455e-08
6.44549e-08
6.44549e-08
6.4455e-08
6.44549e-08
6.44552e-08
6.44548e-08
6.44554e-08
6.44549e-08
6.44558e-08
6.44549e-08
6.44564e-08
6.4455e-08
6.4457e-08
6.4455e-08
6.44579e-08
6.44548e-08
6.44593e-08
6.44549e-08
6.44624e-08
6.44584e-08
6.44729e-08
6.44796e-08
6.45154e-08
6.45688e-08
6.45423e-08
6.46197e-08
5.65885e-08
5.65341e-08
5.6579e-08
5.65366e-08
5.65024e-08
5.64979e-08
5.64824e-08
5.64875e-08
5.6479e-08
5.64841e-08
5.6479e-08
5.64825e-08
5.64793e-08
5.64815e-08
5.64793e-08
5.64808e-08
5.64792e-08
5.64803e-08
5.64792e-08
5.64798e-08
5.64792e-08
5.64796e-08
5.64792e-08
5.64794e-08
5.64793e-08
5.64793e-08
5.64794e-08
5.64793e-08
5.64796e-08
5.64792e-08
5.64799e-08
5.64792e-08
5.64803e-08
5.64792e-08
5.64809e-08
5.64794e-08
5.64815e-08
5.64793e-08
5.64826e-08
5.64791e-08
5.64841e-08
5.6479e-08
5.64875e-08
5.64824e-08
5.64979e-08
5.65024e-08
5.65366e-08
5.6579e-08
5.6534e-08
5.65885e-08
4.93351e-08
4.93054e-08
4.93708e-08
4.93407e-08
4.93085e-08
4.93065e-08
4.929e-08
4.92962e-08
4.92869e-08
4.92926e-08
4.9287e-08
4.9291e-08
4.92873e-08
4.92898e-08
4.92874e-08
4.92891e-08
4.92872e-08
4.92885e-08
4.92873e-08
4.9288e-08
4.92873e-08
4.92878e-08
4.92874e-08
4.92876e-08
4.92875e-08
4.92875e-08
4.92876e-08
4.92874e-08
4.92878e-08
4.92874e-08
4.92881e-08
4.92873e-08
4.92885e-08
4.92873e-08
4.92891e-08
4.92874e-08
4.92898e-08
4.92873e-08
4.9291e-08
4.9287e-08
4.92927e-08
4.92869e-08
4.92962e-08
4.92901e-08
4.93065e-08
4.93085e-08
4.93407e-08
4.93707e-08
4.93054e-08
4.9335e-08
4.27015e-08
4.26642e-08
4.27197e-08
4.26931e-08
4.26676e-08
4.26652e-08
4.26515e-08
4.26564e-08
4.26486e-08
4.26532e-08
4.26486e-08
4.26518e-08
4.26488e-08
4.26508e-08
4.26488e-08
4.26502e-08
4.26487e-08
4.26497e-08
4.26487e-08
4.26493e-08
4.26487e-08
4.26491e-08
4.26488e-08
4.2649e-08
4.26489e-08
4.26489e-08
4.2649e-08
4.26488e-08
4.26491e-08
4.26488e-08
4.26494e-08
4.26488e-08
4.26498e-08
4.26488e-08
4.26503e-08
4.26489e-08
4.26509e-08
4.26488e-08
4.26518e-08
4.26486e-08
4.26533e-08
4.26486e-08
4.26564e-08
4.26516e-08
4.26652e-08
4.26676e-08
4.26931e-08
4.27197e-08
4.26642e-08
4.27015e-08
3.65977e-08
3.65755e-08
3.6635e-08
3.66157e-08
3.65931e-08
3.65917e-08
3.65786e-08
3.65834e-08
3.65758e-08
3.65804e-08
3.65758e-08
3.6579e-08
3.6576e-08
3.6578e-08
3.6576e-08
3.65774e-08
3.65759e-08
3.65769e-08
3.65759e-08
3.65765e-08
3.65759e-08
3.65763e-08
3.6576e-08
3.65762e-08
3.65761e-08
3.65761e-08
3.65762e-08
3.6576e-08
3.65763e-08
3.6576e-08
3.65765e-08
3.6576e-08
3.65769e-08
3.65759e-08
3.65774e-08
3.6576e-08
3.6578e-08
3.6576e-08
3.6579e-08
3.65758e-08
3.65804e-08
3.65758e-08
3.65834e-08
3.65786e-08
3.65917e-08
3.6593e-08
3.66157e-08
3.6635e-08
3.65754e-08
3.65977e-08
3.14452e-08
3.14378e-08
3.15027e-08
3.14908e-08
3.14709e-08
3.14708e-08
3.1458e-08
3.1463e-08
3.14554e-08
3.146e-08
3.14554e-08
3.14586e-08
3.14556e-08
3.14576e-08
3.14556e-08
3.1457e-08
3.14555e-08
3.14566e-08
3.14556e-08
3.14562e-08
3.14556e-08
3.1456e-08
3.14556e-08
3.14558e-08
3.14557e-08
3.14557e-08
3.14558e-08
3.14556e-08
3.1456e-08
3.14556e-08
3.14562e-08
3.14556e-08
3.14566e-08
3.14556e-08
3.14571e-08
3.14557e-08
3.14576e-08
3.14556e-08
3.14586e-08
3.14555e-08
3.146e-08
3.14554e-08
3.1463e-08
3.1458e-08
3.14708e-08
3.14709e-08
3.14908e-08
3.15027e-08
3.14378e-08
3.14452e-08
2.68239e-08
2.6836e-08
2.69117e-08
2.69114e-08
2.68961e-08
2.68978e-08
2.68856e-08
2.68907e-08
2.6883e-08
2.68876e-08
2.68829e-08
2.68861e-08
2.6883e-08
2.6885e-08
2.6883e-08
2.68844e-08
2.68829e-08
2.68839e-08
2.68829e-08
2.68835e-08
2.68829e-08
2.68833e-08
2.6883e-08
2.68831e-08
2.6883e-08
2.6883e-08
2.68831e-08
2.6883e-08
2.68833e-08
2.6883e-08
2.68836e-08
2.6883e-08
2.68839e-08
2.68829e-08
2.68844e-08
2.68831e-08
2.68851e-08
2.68831e-08
2.68861e-08
2.6883e-08
2.68876e-08
2.68831e-08
2.68907e-08
2.68856e-08
2.68978e-08
2.68961e-08
2.69114e-08
2.69116e-08
2.6836e-08
2.68238e-08
2.29832e-08
2.30055e-08
2.3081e-08
2.30853e-08
2.30725e-08
2.30749e-08
2.30634e-08
2.30683e-08
2.3061e-08
2.30653e-08
2.30609e-08
2.30639e-08
2.3061e-08
2.30628e-08
2.30609e-08
2.30622e-08
2.30608e-08
2.30618e-08
2.30608e-08
2.30614e-08
2.30609e-08
2.30612e-08
2.30609e-08
2.3061e-08
2.30609e-08
2.30609e-08
2.3061e-08
2.30609e-08
2.30612e-08
2.30609e-08
2.30614e-08
2.30609e-08
2.30618e-08
2.30608e-08
2.30623e-08
2.3061e-08
2.30629e-08
2.3061e-08
2.30639e-08
2.30609e-08
2.30653e-08
2.3061e-08
2.30683e-08
2.30634e-08
2.30748e-08
2.30725e-08
2.30853e-08
2.30809e-08
2.30055e-08
2.29832e-08
1.9578e-08
1.9616e-08
1.96988e-08
1.9711e-08
1.97e-08
1.97037e-08
1.96921e-08
1.96973e-08
1.96898e-08
1.96942e-08
1.96897e-08
1.96928e-08
1.96897e-08
1.96917e-08
1.96897e-08
1.9691e-08
1.96895e-08
1.96906e-08
1.96896e-08
1.96902e-08
1.96896e-08
1.969e-08
1.96896e-08
1.96898e-08
1.96897e-08
1.96897e-08
1.96898e-08
1.96896e-08
1.969e-08
1.96896e-08
1.96902e-08
1.96896e-08
1.96906e-08
1.96896e-08
1.96911e-08
1.96897e-08
1.96917e-08
1.96898e-08
1.96928e-08
1.96897e-08
1.96943e-08
1.96898e-08
1.96973e-08
1.96921e-08
1.97037e-08
1.97e-08
1.9711e-08
1.96988e-08
1.9616e-08
1.9578e-08
1.66755e-08
1.67191e-08
1.67957e-08
1.68094e-08
1.68003e-08
1.68039e-08
1.67934e-08
1.67981e-08
1.67912e-08
1.67953e-08
1.67911e-08
1.67939e-08
1.67911e-08
1.67929e-08
1.67911e-08
1.67923e-08
1.67909e-08
1.67918e-08
1.6791e-08
1.67915e-08
1.6791e-08
1.67913e-08
1.6791e-08
1.67911e-08
1.6791e-08
1.6791e-08
1.67911e-08
1.6791e-08
1.67913e-08
1.6791e-08
1.67915e-08
1.6791e-08
1.67919e-08
1.67909e-08
1.67923e-08
1.67911e-08
1.67929e-08
1.67912e-08
1.67939e-08
1.67911e-08
1.67953e-08
1.67913e-08
1.67981e-08
1.67934e-08
1.68039e-08
1.68003e-08
1.68094e-08
1.67957e-08
1.6719e-08
1.66755e-08
1.43022e-08
1.43523e-08
1.44249e-08
1.44403e-08
1.44328e-08
1.44365e-08
1.44268e-08
1.44311e-08
1.44248e-08
1.44285e-08
1.44246e-08
1.44272e-08
1.44246e-08
1.44262e-08
1.44245e-08
1.44257e-08
1.44244e-08
1.44252e-08
1.44244e-08
1.44249e-08
1.44244e-08
1.44247e-08
1.44244e-08
1.44246e-08
1.44245e-08
1.44245e-08
1.44246e-08
1.44244e-08
1.44247e-08
1.44244e-08
1.44249e-08
1.44245e-08
1.44253e-08
1.44244e-08
1.44257e-08
1.44246e-08
1.44263e-08
1.44246e-08
1.44272e-08
1.44246e-08
1.44285e-08
1.44248e-08
1.44311e-08
1.44268e-08
1.44364e-08
1.44328e-08
1.44403e-08
1.44248e-08
1.43523e-08
1.43021e-08
1.22946e-08
1.23511e-08
1.24194e-08
1.24358e-08
1.24297e-08
1.24333e-08
1.24244e-08
1.24285e-08
1.24226e-08
1.2426e-08
1.24224e-08
1.24248e-08
1.24224e-08
1.24239e-08
1.24223e-08
1.24233e-08
1.24221e-08
1.24229e-08
1.24222e-08
1.24226e-08
1.24222e-08
1.24224e-08
1.24222e-08
1.24223e-08
1.24222e-08
1.24222e-08
1.24223e-08
1.24222e-08
1.24225e-08
1.24222e-08
1.24227e-08
1.24222e-08
1.2423e-08
1.24222e-08
1.24234e-08
1.24223e-08
1.24239e-08
1.24224e-08
1.24248e-08
1.24224e-08
1.2426e-08
1.24226e-08
1.24285e-08
1.24244e-08
1.24333e-08
1.24297e-08
1.24358e-08
1.24193e-08
1.23511e-08
1.22946e-08
1.05997e-08
1.06163e-08
1.06736e-08
1.06889e-08
1.06853e-08
1.06887e-08
1.06814e-08
1.06847e-08
1.06797e-08
1.06824e-08
1.06794e-08
1.06813e-08
1.06793e-08
1.06805e-08
1.06792e-08
1.068e-08
1.0679e-08
1.06797e-08
1.0679e-08
1.06794e-08
1.0679e-08
1.06792e-08
1.0679e-08
1.06791e-08
1.06791e-08
1.06791e-08
1.06791e-08
1.0679e-08
1.06793e-08
1.0679e-08
1.06794e-08
1.0679e-08
1.06797e-08
1.0679e-08
1.068e-08
1.06792e-08
1.06805e-08
1.06793e-08
1.06813e-08
1.06794e-08
1.06824e-08
1.06797e-08
1.06847e-08
1.06814e-08
1.06887e-08
1.06853e-08
1.06889e-08
1.06736e-08
1.06163e-08
1.05996e-08
9.17117e-09
9.19075e-09
9.24331e-09
9.25862e-09
9.25592e-09
9.25928e-09
9.25261e-09
9.2556e-09
9.25105e-09
9.25351e-09
9.25076e-09
9.25246e-09
9.25064e-09
9.25172e-09
9.2505e-09
9.25127e-09
9.25036e-09
9.25095e-09
9.25037e-09
9.25071e-09
9.25035e-09
9.25055e-09
9.25034e-09
9.25045e-09
9.25039e-09
9.25039e-09
9.25045e-09
9.25035e-09
9.25056e-09
9.25037e-09
9.25073e-09
9.25039e-09
9.25097e-09
9.25039e-09
9.25129e-09
9.25052e-09
9.25174e-09
9.25066e-09
9.25247e-09
9.25079e-09
9.25353e-09
9.25106e-09
9.2556e-09
9.25262e-09
9.25926e-09
9.2559e-09
9.25862e-09
9.24329e-09
9.19074e-09
9.17115e-09
7.92227e-09
7.94457e-09
7.99468e-09
8.01122e-09
8.00976e-09
8.01324e-09
8.00713e-09
8.00985e-09
8.00561e-09
8.00782e-09
8.00524e-09
8.00677e-09
8.00506e-09
8.00603e-09
8.00489e-09
8.00558e-09
8.00473e-09
8.00527e-09
8.00472e-09
8.00503e-09
8.00469e-09
8.00487e-09
8.00467e-09
8.00477e-09
8.00471e-09
8.00471e-09
8.00477e-09
8.00468e-09
8.00488e-09
8.00471e-09
8.00505e-09
8.00474e-09
8.00529e-09
8.00476e-09
8.0056e-09
8.00491e-09
8.00605e-09
8.00509e-09
8.00678e-09
8.00527e-09
8.00783e-09
8.00561e-09
8.00985e-09
8.00714e-09
8.01323e-09
8.00975e-09
8.01122e-09
7.99466e-09
7.94456e-09
7.92225e-09
6.86872e-09
6.89149e-09
6.9363e-09
6.95199e-09
6.95112e-09
6.95432e-09
6.9489e-09
6.95127e-09
6.94749e-09
6.94941e-09
6.94712e-09
6.94845e-09
6.94692e-09
6.94776e-09
6.94674e-09
6.94734e-09
6.94659e-09
6.94706e-09
6.94656e-09
6.94684e-09
6.94653e-09
6.94669e-09
6.94651e-09
6.94659e-09
6.94654e-09
6.94655e-09
6.9466e-09
6.94652e-09
6.9467e-09
6.94655e-09
6.94685e-09
6.94658e-09
6.94707e-09
6.94661e-09
6.94736e-09
6.94676e-09
6.94778e-09
6.94694e-09
6.94845e-09
6.94714e-09
6.94942e-09
6.94749e-09
6.95127e-09
6.9489e-09
6.95431e-09
6.95111e-09
6.95198e-09
6.93629e-09
6.89147e-09
6.8687e-09
5.9792e-09
6.00203e-09
6.04197e-09
6.05673e-09
6.05633e-09
6.05926e-09
6.05446e-09
6.05652e-09
6.05315e-09
6.05481e-09
6.05277e-09
6.05393e-09
6.05256e-09
6.05329e-09
6.05238e-09
6.0529e-09
6.05223e-09
6.05264e-09
6.0522e-09
6.05244e-09
6.05217e-09
6.0523e-09
6.05214e-09
6.05222e-09
6.05217e-09
6.05217e-09
6.05222e-09
6.05215e-09
6.05232e-09
6.05218e-09
6.05245e-09
6.05222e-09
6.05266e-09
6.05225e-09
6.05293e-09
6.0524e-09
6.05331e-09
6.05259e-09
6.05394e-09
6.0528e-09
6.05482e-09
6.05316e-09
6.05652e-09
6.05446e-09
6.05925e-09
6.05632e-09
6.05672e-09
6.04196e-09
6.00202e-09
5.97918e-09
5.22726e-09
5.24976e-09
5.28534e-09
5.29911e-09
5.29909e-09
5.30177e-09
5.29751e-09
5.2993e-09
5.2963e-09
5.29773e-09
5.29592e-09
5.29691e-09
5.2957e-09
5.29633e-09
5.29552e-09
5.29597e-09
5.29537e-09
5.29572e-09
5.29533e-09
5.29554e-09
5.29529e-09
5.29541e-09
5.29527e-09
5.29533e-09
5.29529e-09
5.29529e-09
5.29534e-09
5.29527e-09
5.29542e-09
5.29531e-09
5.29555e-09
5.29535e-09
5.29574e-09
5.29539e-09
5.29599e-09
5.29554e-09
5.29635e-09
5.29572e-09
5.29692e-09
5.29594e-09
5.29774e-09
5.29631e-09
5.2993e-09
5.29751e-09
5.30176e-09
5.29908e-09
5.29911e-09
5.28533e-09
5.24975e-09
5.22724e-09
4.59055e-09
4.61243e-09
4.64416e-09
4.65693e-09
4.65719e-09
4.65963e-09
4.65585e-09
4.6574e-09
4.65473e-09
4.65596e-09
4.65435e-09
4.6552e-09
4.65412e-09
4.65466e-09
4.65394e-09
4.65433e-09
4.65379e-09
4.6541e-09
4.65375e-09
4.65393e-09
4.65371e-09
4.65381e-09
4.65368e-09
4.65374e-09
4.65371e-09
4.65371e-09
4.65374e-09
4.65369e-09
4.65382e-09
4.65372e-09
4.65394e-09
4.65376e-09
4.65412e-09
4.65381e-09
4.65435e-09
4.65396e-09
4.65468e-09
4.65414e-09
4.65521e-09
4.65437e-09
4.65597e-09
4.65474e-09
4.6574e-09
4.65586e-09
4.65962e-09
4.65718e-09
4.65692e-09
4.64415e-09
4.61242e-09
4.59054e-09
4.05031e-09
4.07137e-09
4.09969e-09
4.11148e-09
4.11195e-09
4.11417e-09
4.11083e-09
4.11216e-09
4.10978e-09
4.11084e-09
4.1094e-09
4.11014e-09
4.10917e-09
4.10964e-09
4.10899e-09
4.10932e-09
4.10884e-09
4.10911e-09
4.1088e-09
4.10895e-09
4.10876e-09
4.10885e-09
4.10873e-09
4.10878e-09
4.10875e-09
4.10875e-09
4.10878e-09
4.10873e-09
4.10885e-09
4.10877e-09
4.10896e-09
4.10881e-09
4.10913e-09
4.10886e-09
4.10934e-09
4.10901e-09
4.10965e-09
4.10919e-09
4.11015e-09
4.10942e-09
4.11085e-09
4.10979e-09
4.11216e-09
4.11083e-09
4.11416e-09
4.11194e-09
4.11147e-09
4.09968e-09
4.07136e-09
4.0503e-09
3.59083e-09
3.61095e-09
3.63627e-09
3.64711e-09
3.64774e-09
3.64975e-09
3.64679e-09
3.64793e-09
3.64582e-09
3.64672e-09
3.64544e-09
3.64607e-09
3.64521e-09
3.6456e-09
3.64502e-09
3.64531e-09
3.64488e-09
3.64511e-09
3.64483e-09
3.64496e-09
3.64479e-09
3.64486e-09
3.64476e-09
3.6448e-09
3.64477e-09
3.64477e-09
3.64481e-09
3.64476e-09
3.64487e-09
3.6448e-09
3.64497e-09
3.64484e-09
3.64512e-09
3.6449e-09
3.64532e-09
3.64504e-09
3.64562e-09
3.64522e-09
3.64608e-09
3.64546e-09
3.64673e-09
3.64582e-09
3.64793e-09
3.64679e-09
3.64975e-09
3.64773e-09
3.6471e-09
3.63626e-09
3.61094e-09
3.59082e-09
3.199e-09
3.21811e-09
3.24077e-09
3.25072e-09
3.25146e-09
3.25329e-09
3.25066e-09
3.25164e-09
3.24975e-09
3.25052e-09
3.24938e-09
3.24991e-09
3.24914e-09
3.24948e-09
3.24896e-09
3.2492e-09
3.24882e-09
3.24902e-09
3.24877e-09
3.24888e-09
3.24872e-09
3.24879e-09
3.24869e-09
3.24873e-09
3.24871e-09
3.24871e-09
3.24874e-09
3.2487e-09
3.2488e-09
3.24873e-09
3.24889e-09
3.24878e-09
3.24903e-09
3.24884e-09
3.24922e-09
3.24897e-09
3.2495e-09
3.24916e-09
3.24992e-09
3.2494e-09
3.25053e-09
3.24976e-09
3.25164e-09
3.25066e-09
3.25329e-09
3.25145e-09
3.25071e-09
3.24076e-09
3.2181e-09
3.19899e-09
2.86387e-09
2.88194e-09
2.90226e-09
2.91138e-09
2.91219e-09
2.91386e-09
2.91152e-09
2.91235e-09
2.91067e-09
2.91132e-09
2.9103e-09
2.91076e-09
2.91007e-09
2.91035e-09
2.90988e-09
2.91009e-09
2.90975e-09
2.90992e-09
2.90969e-09
2.90979e-09
2.90965e-09
2.9097e-09
2.90962e-09
2.90965e-09
2.90963e-09
2.90963e-09
2.90965e-09
2.90962e-09
2.90971e-09
2.90966e-09
2.9098e-09
2.9097e-09
2.90993e-09
2.90976e-09
2.91011e-09
2.9099e-09
2.91037e-09
2.91008e-09
2.91077e-09
2.91032e-09
2.91133e-09
2.91068e-09
2.91236e-09
2.91152e-09
2.91386e-09
2.91219e-09
2.91137e-09
2.90225e-09
2.88193e-09
2.86386e-09
2.57634e-09
2.59337e-09
2.61161e-09
2.61997e-09
2.62084e-09
2.62235e-09
2.62026e-09
2.62098e-09
2.61947e-09
2.62002e-09
2.61911e-09
2.61949e-09
2.61887e-09
2.61911e-09
2.61869e-09
2.61887e-09
2.61856e-09
2.6187e-09
2.6185e-09
2.61858e-09
2.61845e-09
2.6185e-09
2.61842e-09
2.61845e-09
2.61843e-09
2.61843e-09
2.61846e-09
2.61843e-09
2.61851e-09
2.61846e-09
2.61859e-09
2.61851e-09
2.61872e-09
2.61857e-09
2.61888e-09
2.61871e-09
2.61913e-09
2.61889e-09
2.6195e-09
2.61912e-09
2.62003e-09
2.61948e-09
2.62098e-09
2.62026e-09
2.62235e-09
2.62083e-09
2.61997e-09
2.61161e-09
2.59336e-09
2.57633e-09
2.32882e-09
2.34481e-09
2.36125e-09
2.36891e-09
2.3698e-09
2.37118e-09
2.36931e-09
2.36992e-09
2.36857e-09
2.36903e-09
2.36821e-09
2.36853e-09
2.36797e-09
2.36818e-09
2.36779e-09
2.36794e-09
2.36766e-09
2.36779e-09
2.3676e-09
2.36768e-09
2.36756e-09
2.3676e-09
2.36753e-09
2.36755e-09
2.36753e-09
2.36753e-09
2.36756e-09
2.36753e-09
2.36761e-09
2.36757e-09
2.36769e-09
2.36761e-09
2.3678e-09
2.36768e-09
2.36796e-09
2.36781e-09
2.36819e-09
2.36799e-09
2.36854e-09
2.36822e-09
2.36904e-09
2.36858e-09
2.36992e-09
2.36931e-09
2.37117e-09
2.36979e-09
2.3689e-09
2.36124e-09
2.3448e-09
2.32881e-09
2.11501e-09
2.12999e-09
2.14483e-09
2.15185e-09
2.15275e-09
2.154e-09
2.15233e-09
2.15285e-09
2.15164e-09
2.15203e-09
2.15129e-09
2.15156e-09
2.15105e-09
2.15122e-09
2.15087e-09
2.151e-09
2.15074e-09
2.15085e-09
2.15068e-09
2.15074e-09
2.15064e-09
2.15067e-09
2.15061e-09
2.15063e-09
2.15061e-09
2.15061e-09
2.15063e-09
2.15061e-09
2.15068e-09
2.15065e-09
2.15075e-09
2.15069e-09
2.15086e-09
2.15076e-09
2.15101e-09
2.15089e-09
2.15123e-09
2.15106e-09
2.15157e-09
2.1513e-09
2.15204e-09
2.15164e-09
2.15286e-09
2.15233e-09
2.154e-09
2.15275e-09
2.15185e-09
2.14482e-09
2.12998e-09
2.115e-09
1.92965e-09
1.94364e-09
1.95708e-09
1.96353e-09
1.96442e-09
1.96557e-09
1.96406e-09
1.96451e-09
1.96341e-09
1.96374e-09
1.96306e-09
1.96329e-09
1.96283e-09
1.96297e-09
1.96266e-09
1.96276e-09
1.96253e-09
1.96262e-09
1.96247e-09
1.96252e-09
1.96242e-09
1.96245e-09
1.96239e-09
1.96241e-09
1.96239e-09
1.96239e-09
1.96241e-09
1.9624e-09
1.96246e-09
1.96243e-09
1.96253e-09
1.96248e-09
1.96263e-09
1.96254e-09
1.96277e-09
1.96267e-09
1.96299e-09
1.96284e-09
1.9633e-09
1.96308e-09
1.96374e-09
1.96342e-09
1.96451e-09
1.96407e-09
1.96556e-09
1.96442e-09
1.96352e-09
1.95708e-09
1.94363e-09
1.92964e-09
1.76837e-09
1.7814e-09
1.79362e-09
1.79954e-09
1.80042e-09
1.80146e-09
1.80011e-09
1.80048e-09
1.7995e-09
1.79977e-09
1.79916e-09
1.79934e-09
1.79892e-09
1.79904e-09
1.79875e-09
1.79884e-09
1.79863e-09
1.7987e-09
1.79856e-09
1.7986e-09
1.79851e-09
1.79854e-09
1.79849e-09
1.7985e-09
1.79849e-09
1.79849e-09
1.7985e-09
1.79849e-09
1.79855e-09
1.79852e-09
1.79861e-09
1.79857e-09
1.79871e-09
1.79864e-09
1.79885e-09
1.79876e-09
1.79905e-09
1.79894e-09
1.79935e-09
1.79917e-09
1.79977e-09
1.7995e-09
1.80049e-09
1.80011e-09
1.80146e-09
1.80042e-09
1.79954e-09
1.79361e-09
1.78139e-09
1.76836e-09
1.62752e-09
1.63961e-09
1.65077e-09
1.65621e-09
1.65708e-09
1.65802e-09
1.65681e-09
1.65712e-09
1.65622e-09
1.65644e-09
1.65589e-09
1.65604e-09
1.65566e-09
1.65575e-09
1.65549e-09
1.65556e-09
1.65537e-09
1.65543e-09
1.6553e-09
1.65534e-09
1.65525e-09
1.65527e-09
1.65522e-09
1.65524e-09
1.65522e-09
1.65522e-09
1.65524e-09
1.65523e-09
1.65528e-09
1.65526e-09
1.65535e-09
1.65531e-09
1.65544e-09
1.65538e-09
1.65557e-09
1.6555e-09
1.65577e-09
1.65567e-09
1.65605e-09
1.6559e-09
1.65645e-09
1.65623e-09
1.65712e-09
1.65681e-09
1.65802e-09
1.65707e-09
1.65621e-09
1.65076e-09
1.6396e-09
1.62752e-09
1.50403e-09
1.51526e-09
1.52546e-09
1.53048e-09
1.53132e-09
1.53218e-09
1.53108e-09
1.53134e-09
1.53053e-09
1.53071e-09
1.5302e-09
1.53032e-09
1.52997e-09
1.53005e-09
1.5298e-09
1.52986e-09
1.52968e-09
1.52973e-09
1.52961e-09
1.52964e-09
1.52957e-09
1.52958e-09
1.52954e-09
1.52955e-09
1.52954e-09
1.52954e-09
1.52955e-09
1.52954e-09
1.52959e-09
1.52958e-09
1.52965e-09
1.52963e-09
1.52975e-09
1.52969e-09
1.52987e-09
1.52982e-09
1.53006e-09
1.52998e-09
1.53033e-09
1.53021e-09
1.53072e-09
1.53053e-09
1.53135e-09
1.53108e-09
1.53218e-09
1.53131e-09
1.53048e-09
1.52546e-09
1.51525e-09
1.50402e-09
)
;

boundaryField
{
    fuel
    {
        type            fixedValue;
        value           uniform 0;
    }
    wall
    {
        type            zeroGradient;
    }
    outlet
    {
        type            zeroGradient;
    }
    frontAndBack
    {
        type            empty;
    }
    procBoundary1to0
    {
        type            processor;
        value           nonuniform List<scalar> 
50
(
1.39534e-09
1.40579e-09
1.41514e-09
1.41977e-09
1.42058e-09
1.42136e-09
1.42037e-09
1.42058e-09
1.41984e-09
1.41999e-09
1.41952e-09
1.41962e-09
1.41929e-09
1.41935e-09
1.41913e-09
1.41917e-09
1.41901e-09
1.41905e-09
1.41894e-09
1.41897e-09
1.41889e-09
1.41891e-09
1.41887e-09
1.41887e-09
1.41886e-09
1.41886e-09
1.41888e-09
1.41887e-09
1.41891e-09
1.4189e-09
1.41897e-09
1.41895e-09
1.41906e-09
1.41902e-09
1.41919e-09
1.41914e-09
1.41937e-09
1.41931e-09
1.41963e-09
1.41953e-09
1.41999e-09
1.41985e-09
1.42059e-09
1.42037e-09
1.42136e-09
1.42057e-09
1.41976e-09
1.41513e-09
1.40578e-09
1.39533e-09
)
;
    }
}


// ************************************************************************* //
