/*--------------------------------*- C++ -*----------------------------------*\
| =========                 |                                                 |
| \\      /  F ield         | OpenFOAM: The Open Source CFD Toolbox           |
|  \\    /   O peration     | Version:  dev                                   |
|   \\  /    A nd           | Web:      www.OpenFOAM.org                      |
|    \\/     M anipulation  |                                                 |
\*---------------------------------------------------------------------------*/
FoamFile
{
    version     2.0;
    format      ascii;
    class       volScalarField;
    location    "0.035";
    object      P2-;
}
// * * * * * * * * * * * * * * * * * * * * * * * * * * * * * * * * * * * * * //

dimensions      [0 0 0 0 0 0 0];

internalField   nonuniform List<scalar> 
2000
(
2.79576e-10
2.79376e-10
2.79492e-10
2.79456e-10
2.79453e-10
2.79434e-10
2.79434e-10
2.79427e-10
2.79428e-10
2.79425e-10
2.79426e-10
2.79424e-10
2.79425e-10
2.79424e-10
2.79425e-10
2.79424e-10
2.79424e-10
2.79424e-10
2.79424e-10
2.79423e-10
2.79424e-10
2.79423e-10
2.79424e-10
2.79423e-10
2.79423e-10
2.79423e-10
2.79423e-10
2.79424e-10
2.79423e-10
2.79424e-10
2.79423e-10
2.79424e-10
2.79424e-10
2.79424e-10
2.79424e-10
2.79425e-10
2.79424e-10
2.79425e-10
2.79424e-10
2.79426e-10
2.79425e-10
2.79428e-10
2.79427e-10
2.79434e-10
2.79434e-10
2.79453e-10
2.79456e-10
2.79492e-10
2.79376e-10
2.79576e-10
7.55778e-10
7.55764e-10
7.56424e-10
7.56482e-10
7.56503e-10
7.56481e-10
7.56472e-10
7.56465e-10
7.56459e-10
7.56458e-10
7.56456e-10
7.56455e-10
7.56454e-10
7.56454e-10
7.56453e-10
7.56453e-10
7.56452e-10
7.56452e-10
7.56452e-10
7.56452e-10
7.56452e-10
7.56452e-10
7.56451e-10
7.56452e-10
7.56452e-10
7.56452e-10
7.56452e-10
7.56452e-10
7.56452e-10
7.56452e-10
7.56452e-10
7.56452e-10
7.56452e-10
7.56452e-10
7.56453e-10
7.56453e-10
7.56454e-10
7.56455e-10
7.56455e-10
7.56456e-10
7.56458e-10
7.56459e-10
7.56465e-10
7.56472e-10
7.56481e-10
7.56503e-10
7.56482e-10
7.56423e-10
7.55764e-10
7.55778e-10
1.65089e-09
1.65118e-09
1.65276e-09
1.65297e-09
1.65296e-09
1.65296e-09
1.6529e-09
1.65292e-09
1.65288e-09
1.6529e-09
1.65287e-09
1.65289e-09
1.65287e-09
1.65288e-09
1.65287e-09
1.65288e-09
1.65287e-09
1.65288e-09
1.65287e-09
1.65287e-09
1.65287e-09
1.65287e-09
1.65287e-09
1.65287e-09
1.65287e-09
1.65287e-09
1.65287e-09
1.65287e-09
1.65287e-09
1.65287e-09
1.65287e-09
1.65287e-09
1.65288e-09
1.65287e-09
1.65288e-09
1.65287e-09
1.65288e-09
1.65287e-09
1.65289e-09
1.65287e-09
1.6529e-09
1.65288e-09
1.65292e-09
1.6529e-09
1.65296e-09
1.65296e-09
1.65297e-09
1.65276e-09
1.65118e-09
1.65089e-09
2.80868e-09
2.80914e-09
2.81159e-09
2.81177e-09
2.81156e-09
2.81159e-09
2.81141e-09
2.81148e-09
2.81137e-09
2.81144e-09
2.81137e-09
2.81142e-09
2.81137e-09
2.8114e-09
2.81137e-09
2.81139e-09
2.81137e-09
2.81139e-09
2.81137e-09
2.81138e-09
2.81137e-09
2.81138e-09
2.81137e-09
2.81138e-09
2.81138e-09
2.81138e-09
2.81138e-09
2.81137e-09
2.81138e-09
2.81137e-09
2.81138e-09
2.81137e-09
2.81139e-09
2.81137e-09
2.81139e-09
2.81137e-09
2.8114e-09
2.81137e-09
2.81142e-09
2.81137e-09
2.81144e-09
2.81137e-09
2.81148e-09
2.81141e-09
2.81159e-09
2.81156e-09
2.81177e-09
2.81159e-09
2.80914e-09
2.80868e-09
3.74186e-09
3.74187e-09
3.74458e-09
3.74434e-09
3.74376e-09
3.74378e-09
3.74344e-09
3.74359e-09
3.74339e-09
3.74351e-09
3.74339e-09
3.74348e-09
3.7434e-09
3.74345e-09
3.7434e-09
3.74344e-09
3.7434e-09
3.74343e-09
3.7434e-09
3.74342e-09
3.7434e-09
3.74341e-09
3.7434e-09
3.74341e-09
3.74341e-09
3.74341e-09
3.74341e-09
3.7434e-09
3.74341e-09
3.7434e-09
3.74342e-09
3.7434e-09
3.74343e-09
3.7434e-09
3.74344e-09
3.7434e-09
3.74345e-09
3.7434e-09
3.74348e-09
3.74339e-09
3.74351e-09
3.74339e-09
3.74359e-09
3.74344e-09
3.74378e-09
3.74376e-09
3.74434e-09
3.74458e-09
3.74187e-09
3.74186e-09
4.20471e-09
4.20427e-09
4.20729e-09
4.20662e-09
4.20566e-09
4.20569e-09
4.20519e-09
4.2054e-09
4.20511e-09
4.2053e-09
4.20512e-09
4.20525e-09
4.20513e-09
4.20522e-09
4.20514e-09
4.2052e-09
4.20514e-09
4.20518e-09
4.20514e-09
4.20517e-09
4.20514e-09
4.20516e-09
4.20515e-09
4.20515e-09
4.20515e-09
4.20515e-09
4.20515e-09
4.20515e-09
4.20516e-09
4.20515e-09
4.20517e-09
4.20514e-09
4.20518e-09
4.20514e-09
4.2052e-09
4.20514e-09
4.20522e-09
4.20514e-09
4.20525e-09
4.20512e-09
4.2053e-09
4.20511e-09
4.2054e-09
4.20519e-09
4.20569e-09
4.20566e-09
4.20662e-09
4.20729e-09
4.20427e-09
4.20471e-09
4.23644e-09
4.23597e-09
4.23972e-09
4.2389e-09
4.23767e-09
4.23774e-09
4.23709e-09
4.23738e-09
4.237e-09
4.23726e-09
4.23702e-09
4.23719e-09
4.23703e-09
4.23715e-09
4.23704e-09
4.23712e-09
4.23704e-09
4.2371e-09
4.23705e-09
4.23708e-09
4.23705e-09
4.23707e-09
4.23705e-09
4.23706e-09
4.23706e-09
4.23706e-09
4.23706e-09
4.23705e-09
4.23707e-09
4.23705e-09
4.23708e-09
4.23705e-09
4.2371e-09
4.23704e-09
4.23712e-09
4.23704e-09
4.23715e-09
4.23704e-09
4.23719e-09
4.23702e-09
4.23726e-09
4.237e-09
4.23738e-09
4.23709e-09
4.23774e-09
4.23767e-09
4.2389e-09
4.23972e-09
4.23597e-09
4.23644e-09
3.97391e-09
3.97386e-09
3.97866e-09
3.97799e-09
3.97661e-09
3.97677e-09
3.97599e-09
3.97637e-09
3.9759e-09
3.97621e-09
3.97592e-09
3.97614e-09
3.97595e-09
3.97608e-09
3.97596e-09
3.97605e-09
3.97596e-09
3.97603e-09
3.97597e-09
3.976e-09
3.97597e-09
3.97599e-09
3.97597e-09
3.97598e-09
3.97598e-09
3.97598e-09
3.97598e-09
3.97597e-09
3.97599e-09
3.97597e-09
3.97601e-09
3.97597e-09
3.97603e-09
3.97596e-09
3.97605e-09
3.97596e-09
3.97608e-09
3.97595e-09
3.97614e-09
3.97592e-09
3.97622e-09
3.9759e-09
3.97637e-09
3.97599e-09
3.97677e-09
3.97661e-09
3.97799e-09
3.97865e-09
3.97386e-09
3.97391e-09
3.55101e-09
3.55164e-09
3.55754e-09
3.55721e-09
3.55582e-09
3.55607e-09
3.55521e-09
3.55565e-09
3.55512e-09
3.55548e-09
3.55515e-09
3.5554e-09
3.55518e-09
3.55534e-09
3.55519e-09
3.5553e-09
3.55519e-09
3.55527e-09
3.5552e-09
3.55525e-09
3.55521e-09
3.55523e-09
3.55521e-09
3.55522e-09
3.55522e-09
3.55522e-09
3.55523e-09
3.55521e-09
3.55524e-09
3.55521e-09
3.55525e-09
3.5552e-09
3.55527e-09
3.55519e-09
3.5553e-09
3.55519e-09
3.55534e-09
3.55518e-09
3.5554e-09
3.55515e-09
3.55549e-09
3.55512e-09
3.55565e-09
3.55521e-09
3.55607e-09
3.55582e-09
3.55721e-09
3.55753e-09
3.55164e-09
3.551e-09
3.07074e-09
3.07215e-09
3.07897e-09
3.07908e-09
3.07776e-09
3.07811e-09
3.0772e-09
3.07769e-09
3.07712e-09
3.07751e-09
3.07715e-09
3.07742e-09
3.07718e-09
3.07735e-09
3.07719e-09
3.07731e-09
3.07719e-09
3.07728e-09
3.07721e-09
3.07726e-09
3.07721e-09
3.07724e-09
3.07721e-09
3.07723e-09
3.07722e-09
3.07722e-09
3.07723e-09
3.07722e-09
3.07724e-09
3.07721e-09
3.07726e-09
3.07721e-09
3.07728e-09
3.0772e-09
3.07731e-09
3.07719e-09
3.07735e-09
3.07718e-09
3.07742e-09
3.07715e-09
3.07751e-09
3.07712e-09
3.07769e-09
3.0772e-09
3.07811e-09
3.07776e-09
3.07908e-09
3.07897e-09
3.07215e-09
3.07074e-09
2.59707e-09
2.59919e-09
2.60665e-09
2.60719e-09
2.60599e-09
2.60641e-09
2.6055e-09
2.60601e-09
2.60542e-09
2.60582e-09
2.60545e-09
2.60573e-09
2.60548e-09
2.60566e-09
2.6055e-09
2.60562e-09
2.6055e-09
2.60559e-09
2.60551e-09
2.60557e-09
2.60552e-09
2.60555e-09
2.60552e-09
2.60554e-09
2.60553e-09
2.60553e-09
2.60554e-09
2.60552e-09
2.60555e-09
2.60552e-09
2.60557e-09
2.60552e-09
2.60559e-09
2.6055e-09
2.60562e-09
2.6055e-09
2.60566e-09
2.60548e-09
2.60573e-09
2.60545e-09
2.60583e-09
2.60542e-09
2.60601e-09
2.6055e-09
2.60641e-09
2.60599e-09
2.60719e-09
2.60665e-09
2.59919e-09
2.59707e-09
2.14763e-09
2.15012e-09
2.15746e-09
2.15824e-09
2.1572e-09
2.15764e-09
2.15677e-09
2.15726e-09
2.1567e-09
2.15708e-09
2.15672e-09
2.15699e-09
2.15675e-09
2.15692e-09
2.15677e-09
2.15688e-09
2.15677e-09
2.15686e-09
2.15678e-09
2.15683e-09
2.15679e-09
2.15682e-09
2.15679e-09
2.15681e-09
2.1568e-09
2.1568e-09
2.15681e-09
2.15679e-09
2.15682e-09
2.15679e-09
2.15683e-09
2.15678e-09
2.15686e-09
2.15677e-09
2.15689e-09
2.15677e-09
2.15692e-09
2.15676e-09
2.15699e-09
2.15673e-09
2.15708e-09
2.1567e-09
2.15726e-09
2.15677e-09
2.15763e-09
2.1572e-09
2.15824e-09
2.15746e-09
2.15012e-09
2.14763e-09
1.77212e-09
1.77507e-09
1.78242e-09
1.78347e-09
1.78258e-09
1.78304e-09
1.78222e-09
1.78269e-09
1.78215e-09
1.78252e-09
1.78217e-09
1.78243e-09
1.7822e-09
1.78236e-09
1.78221e-09
1.78233e-09
1.78222e-09
1.7823e-09
1.78223e-09
1.78228e-09
1.78224e-09
1.78226e-09
1.78224e-09
1.78225e-09
1.78225e-09
1.78225e-09
1.78225e-09
1.78224e-09
1.78226e-09
1.78224e-09
1.78228e-09
1.78223e-09
1.7823e-09
1.78222e-09
1.78233e-09
1.78222e-09
1.78237e-09
1.7822e-09
1.78243e-09
1.78218e-09
1.78252e-09
1.78215e-09
1.78269e-09
1.78222e-09
1.78304e-09
1.78258e-09
1.78347e-09
1.78242e-09
1.77507e-09
1.77212e-09
1.45454e-09
1.45639e-09
1.46232e-09
1.4632e-09
1.46264e-09
1.46299e-09
1.46237e-09
1.46272e-09
1.4623e-09
1.46259e-09
1.46232e-09
1.46252e-09
1.46234e-09
1.46246e-09
1.46235e-09
1.46243e-09
1.46235e-09
1.46241e-09
1.46236e-09
1.4624e-09
1.46236e-09
1.46238e-09
1.46237e-09
1.46238e-09
1.46237e-09
1.46237e-09
1.46238e-09
1.46237e-09
1.46239e-09
1.46236e-09
1.4624e-09
1.46236e-09
1.46241e-09
1.46235e-09
1.46244e-09
1.46235e-09
1.46246e-09
1.46234e-09
1.46251e-09
1.46232e-09
1.46259e-09
1.4623e-09
1.46272e-09
1.46237e-09
1.46298e-09
1.46264e-09
1.4632e-09
1.46232e-09
1.45639e-09
1.45454e-09
1.184e-09
1.18586e-09
1.19114e-09
1.19202e-09
1.19158e-09
1.19189e-09
1.19135e-09
1.19166e-09
1.19129e-09
1.19154e-09
1.19131e-09
1.19148e-09
1.19132e-09
1.19143e-09
1.19133e-09
1.19141e-09
1.19133e-09
1.19139e-09
1.19134e-09
1.19137e-09
1.19134e-09
1.19136e-09
1.19134e-09
1.19135e-09
1.19135e-09
1.19135e-09
1.19135e-09
1.19134e-09
1.19136e-09
1.19134e-09
1.19137e-09
1.19134e-09
1.19139e-09
1.19133e-09
1.19141e-09
1.19133e-09
1.19143e-09
1.19133e-09
1.19148e-09
1.19131e-09
1.19154e-09
1.1913e-09
1.19166e-09
1.19135e-09
1.19189e-09
1.19158e-09
1.19202e-09
1.19113e-09
1.18586e-09
1.184e-09
9.71803e-10
9.73734e-10
9.78539e-10
9.79451e-10
9.79112e-10
9.79406e-10
9.78926e-10
9.79203e-10
9.78872e-10
9.79091e-10
9.78883e-10
9.79034e-10
9.78896e-10
9.78991e-10
9.78902e-10
9.78968e-10
9.78901e-10
9.78952e-10
9.78909e-10
9.78938e-10
9.78912e-10
9.78929e-10
9.78913e-10
9.78922e-10
9.78918e-10
9.78918e-10
9.78922e-10
9.78913e-10
9.78929e-10
9.78913e-10
9.78938e-10
9.78909e-10
9.78952e-10
9.78902e-10
9.78969e-10
9.78902e-10
9.78992e-10
9.78897e-10
9.79033e-10
9.78884e-10
9.79091e-10
9.78872e-10
9.79202e-10
9.78927e-10
9.79405e-10
9.79111e-10
9.79451e-10
9.78538e-10
9.73733e-10
9.71803e-10
7.94313e-10
7.96513e-10
8.0112e-10
8.02229e-10
8.02046e-10
8.02354e-10
8.01928e-10
8.02178e-10
8.01874e-10
8.02069e-10
8.01878e-10
8.02013e-10
8.01886e-10
8.01971e-10
8.01888e-10
8.01948e-10
8.01886e-10
8.01932e-10
8.01892e-10
8.01919e-10
8.01895e-10
8.0191e-10
8.01895e-10
8.01903e-10
8.01899e-10
8.019e-10
8.01903e-10
8.01896e-10
8.0191e-10
8.01895e-10
8.01919e-10
8.01893e-10
8.01932e-10
8.01887e-10
8.01949e-10
8.01889e-10
8.01972e-10
8.01887e-10
8.02012e-10
8.01879e-10
8.02069e-10
8.01874e-10
8.02177e-10
8.01928e-10
8.02353e-10
8.02046e-10
8.02229e-10
8.01119e-10
7.96513e-10
7.94312e-10
6.55993e-10
6.58166e-10
6.6227e-10
6.63336e-10
6.6322e-10
6.63499e-10
6.63128e-10
6.63346e-10
6.63078e-10
6.63247e-10
6.6308e-10
6.63197e-10
6.63085e-10
6.63159e-10
6.63087e-10
6.63138e-10
6.63084e-10
6.63124e-10
6.6309e-10
6.63112e-10
6.63091e-10
6.63105e-10
6.63092e-10
6.63099e-10
6.63095e-10
6.63096e-10
6.63099e-10
6.63092e-10
6.63105e-10
6.63092e-10
6.63113e-10
6.6309e-10
6.63125e-10
6.63085e-10
6.63139e-10
6.63087e-10
6.6316e-10
6.63086e-10
6.63197e-10
6.63081e-10
6.63248e-10
6.63078e-10
6.63346e-10
6.63128e-10
6.63499e-10
6.63219e-10
6.63336e-10
6.62269e-10
6.58165e-10
6.55993e-10
5.40434e-10
5.42797e-10
5.46726e-10
5.47878e-10
5.47793e-10
5.48078e-10
5.47721e-10
5.47931e-10
5.47673e-10
5.47835e-10
5.47673e-10
5.47785e-10
5.47677e-10
5.47748e-10
5.47678e-10
5.47727e-10
5.47675e-10
5.47713e-10
5.4768e-10
5.47702e-10
5.47681e-10
5.47694e-10
5.47681e-10
5.47688e-10
5.47685e-10
5.47685e-10
5.47689e-10
5.47682e-10
5.47694e-10
5.47682e-10
5.47702e-10
5.47681e-10
5.47714e-10
5.47676e-10
5.47729e-10
5.47678e-10
5.47749e-10
5.47678e-10
5.47785e-10
5.47674e-10
5.47836e-10
5.47673e-10
5.47931e-10
5.47721e-10
5.48077e-10
5.47792e-10
5.47878e-10
5.46725e-10
5.42797e-10
5.40434e-10
4.47075e-10
4.49337e-10
4.52722e-10
4.53766e-10
4.53716e-10
4.53963e-10
4.53657e-10
4.53835e-10
4.53612e-10
4.5375e-10
4.53611e-10
4.53706e-10
4.53613e-10
4.53673e-10
4.53613e-10
4.53655e-10
4.5361e-10
4.53642e-10
4.53614e-10
4.53632e-10
4.53615e-10
4.53625e-10
4.53615e-10
4.5362e-10
4.53618e-10
4.53618e-10
4.53621e-10
4.53615e-10
4.53626e-10
4.53615e-10
4.53633e-10
4.53614e-10
4.53643e-10
4.53611e-10
4.53656e-10
4.53613e-10
4.53674e-10
4.53614e-10
4.53706e-10
4.53612e-10
4.5375e-10
4.53613e-10
4.53835e-10
4.53657e-10
4.53963e-10
4.53716e-10
4.53766e-10
4.52721e-10
4.49337e-10
4.47075e-10
3.74259e-10
3.765e-10
3.79491e-10
3.80462e-10
3.8044e-10
3.80662e-10
3.80393e-10
3.80548e-10
3.80352e-10
3.80471e-10
3.80349e-10
3.80432e-10
3.8035e-10
3.80402e-10
3.80349e-10
3.80386e-10
3.80346e-10
3.80374e-10
3.80349e-10
3.80365e-10
3.8035e-10
3.80359e-10
3.8035e-10
3.80355e-10
3.80352e-10
3.80352e-10
3.80355e-10
3.8035e-10
3.80359e-10
3.8035e-10
3.80366e-10
3.80349e-10
3.80375e-10
3.80346e-10
3.80387e-10
3.80349e-10
3.80403e-10
3.80351e-10
3.80432e-10
3.8035e-10
3.80472e-10
3.80352e-10
3.80548e-10
3.80393e-10
3.80662e-10
3.8044e-10
3.80462e-10
3.7949e-10
3.765e-10
3.74258e-10
3.15172e-10
3.17425e-10
3.20074e-10
3.20975e-10
3.20971e-10
3.21171e-10
3.20933e-10
3.21069e-10
3.20895e-10
3.21e-10
3.20891e-10
3.20964e-10
3.20891e-10
3.20937e-10
3.2089e-10
3.20922e-10
3.20887e-10
3.20912e-10
3.20889e-10
3.20904e-10
3.2089e-10
3.20898e-10
3.20889e-10
3.20894e-10
3.20892e-10
3.20892e-10
3.20894e-10
3.2089e-10
3.20898e-10
3.2089e-10
3.20904e-10
3.2089e-10
3.20912e-10
3.20887e-10
3.20923e-10
3.2089e-10
3.20938e-10
3.20892e-10
3.20964e-10
3.20892e-10
3.21e-10
3.20895e-10
3.21069e-10
3.20933e-10
3.21171e-10
3.20971e-10
3.20975e-10
3.20074e-10
3.17425e-10
3.15172e-10
2.67068e-10
2.68057e-10
2.70223e-10
2.71005e-10
2.71052e-10
2.71228e-10
2.7104e-10
2.71148e-10
2.71005e-10
2.71087e-10
2.70998e-10
2.71055e-10
2.70996e-10
2.71032e-10
2.70993e-10
2.71018e-10
2.7099e-10
2.7101e-10
2.70991e-10
2.71003e-10
2.70991e-10
2.70998e-10
2.70991e-10
2.70995e-10
2.70993e-10
2.70993e-10
2.70995e-10
2.70991e-10
2.70998e-10
2.70992e-10
2.71003e-10
2.70992e-10
2.7101e-10
2.7099e-10
2.71019e-10
2.70993e-10
2.71032e-10
2.70996e-10
2.71055e-10
2.70999e-10
2.71087e-10
2.71005e-10
2.71148e-10
2.7104e-10
2.71228e-10
2.71052e-10
2.71005e-10
2.70223e-10
2.68057e-10
2.67067e-10
2.27785e-10
2.28754e-10
2.30655e-10
2.3137e-10
2.31425e-10
2.31584e-10
2.31418e-10
2.31513e-10
2.31386e-10
2.31457e-10
2.31379e-10
2.31428e-10
2.31376e-10
2.31407e-10
2.31373e-10
2.31395e-10
2.3137e-10
2.31387e-10
2.31371e-10
2.31381e-10
2.31371e-10
2.31377e-10
2.31371e-10
2.31374e-10
2.31372e-10
2.31372e-10
2.31374e-10
2.31371e-10
2.31377e-10
2.31371e-10
2.31381e-10
2.31371e-10
2.31387e-10
2.3137e-10
2.31395e-10
2.31373e-10
2.31407e-10
2.31376e-10
2.31428e-10
2.31379e-10
2.31457e-10
2.31386e-10
2.31512e-10
2.31418e-10
2.31583e-10
2.31425e-10
2.3137e-10
2.30655e-10
2.28754e-10
2.27785e-10
1.94374e-10
1.95331e-10
1.97056e-10
1.97746e-10
1.97819e-10
1.97968e-10
1.9782e-10
1.97903e-10
1.97788e-10
1.9785e-10
1.97779e-10
1.97822e-10
1.97774e-10
1.97801e-10
1.9777e-10
1.9779e-10
1.97767e-10
1.97782e-10
1.97767e-10
1.97776e-10
1.97767e-10
1.97772e-10
1.97766e-10
1.97769e-10
1.97768e-10
1.97768e-10
1.97769e-10
1.97767e-10
1.97772e-10
1.97767e-10
1.97776e-10
1.97768e-10
1.97782e-10
1.97767e-10
1.9779e-10
1.97771e-10
1.97802e-10
1.97775e-10
1.97822e-10
1.9778e-10
1.9785e-10
1.97788e-10
1.97903e-10
1.9782e-10
1.97968e-10
1.97819e-10
1.97746e-10
1.97056e-10
1.95331e-10
1.94374e-10
1.66846e-10
1.67747e-10
1.69245e-10
1.69865e-10
1.69939e-10
1.70071e-10
1.69943e-10
1.70013e-10
1.69913e-10
1.69965e-10
1.69903e-10
1.6994e-10
1.69898e-10
1.69921e-10
1.69894e-10
1.69911e-10
1.69891e-10
1.69904e-10
1.69891e-10
1.69898e-10
1.6989e-10
1.69895e-10
1.6989e-10
1.69892e-10
1.69891e-10
1.69891e-10
1.69892e-10
1.6989e-10
1.69895e-10
1.69891e-10
1.69899e-10
1.69891e-10
1.69904e-10
1.69891e-10
1.69911e-10
1.69894e-10
1.69922e-10
1.69899e-10
1.6994e-10
1.69904e-10
1.69965e-10
1.69913e-10
1.70013e-10
1.69943e-10
1.7007e-10
1.69939e-10
1.69865e-10
1.69245e-10
1.67747e-10
1.66846e-10
1.44065e-10
1.44911e-10
1.46213e-10
1.46771e-10
1.46845e-10
1.46961e-10
1.4685e-10
1.4691e-10
1.46822e-10
1.46866e-10
1.46813e-10
1.46843e-10
1.46807e-10
1.46827e-10
1.46803e-10
1.46817e-10
1.46799e-10
1.46811e-10
1.46799e-10
1.46806e-10
1.46799e-10
1.46803e-10
1.46798e-10
1.468e-10
1.46799e-10
1.46799e-10
1.468e-10
1.46798e-10
1.46803e-10
1.46799e-10
1.46806e-10
1.468e-10
1.46811e-10
1.468e-10
1.46817e-10
1.46803e-10
1.46827e-10
1.46808e-10
1.46843e-10
1.46813e-10
1.46867e-10
1.46822e-10
1.4691e-10
1.4685e-10
1.46961e-10
1.46844e-10
1.46771e-10
1.46213e-10
1.44911e-10
1.44064e-10
1.25128e-10
1.2592e-10
1.27056e-10
1.27556e-10
1.27629e-10
1.27732e-10
1.27636e-10
1.27686e-10
1.2761e-10
1.27647e-10
1.276e-10
1.27626e-10
1.27595e-10
1.27611e-10
1.2759e-10
1.27602e-10
1.27587e-10
1.27596e-10
1.27587e-10
1.27592e-10
1.27586e-10
1.27589e-10
1.27585e-10
1.27587e-10
1.27586e-10
1.27586e-10
1.27587e-10
1.27585e-10
1.27589e-10
1.27586e-10
1.27592e-10
1.27587e-10
1.27597e-10
1.27587e-10
1.27603e-10
1.27591e-10
1.27611e-10
1.27595e-10
1.27626e-10
1.27601e-10
1.27647e-10
1.2761e-10
1.27686e-10
1.27636e-10
1.27732e-10
1.27629e-10
1.27556e-10
1.27055e-10
1.25919e-10
1.25128e-10
1.09316e-10
1.10054e-10
1.11049e-10
1.11499e-10
1.11569e-10
1.11661e-10
1.11577e-10
1.1162e-10
1.11553e-10
1.11584e-10
1.11543e-10
1.11565e-10
1.11537e-10
1.11551e-10
1.11533e-10
1.11543e-10
1.1153e-10
1.11538e-10
1.11529e-10
1.11534e-10
1.11528e-10
1.11531e-10
1.11528e-10
1.11529e-10
1.11528e-10
1.11528e-10
1.11529e-10
1.11528e-10
1.11531e-10
1.11529e-10
1.11534e-10
1.11529e-10
1.11538e-10
1.1153e-10
1.11543e-10
1.11533e-10
1.11552e-10
1.11538e-10
1.11565e-10
1.11543e-10
1.11585e-10
1.11553e-10
1.1162e-10
1.11577e-10
1.11661e-10
1.11569e-10
1.11499e-10
1.11049e-10
1.10054e-10
1.09316e-10
9.60534e-11
9.67395e-11
9.76149e-11
9.80186e-11
9.80867e-11
9.81685e-11
9.80945e-11
9.81313e-11
9.80724e-11
9.80989e-11
9.80626e-11
9.8081e-11
9.80567e-11
9.80685e-11
9.80522e-11
9.80609e-11
9.8049e-11
9.8056e-11
9.80484e-11
9.80524e-11
9.80476e-11
9.80499e-11
9.80469e-11
9.80483e-11
9.80475e-11
9.80475e-11
9.80483e-11
9.80471e-11
9.80501e-11
9.80478e-11
9.80526e-11
9.80485e-11
9.80563e-11
9.80493e-11
9.80612e-11
9.80525e-11
9.80687e-11
9.80569e-11
9.80811e-11
9.80629e-11
9.8099e-11
9.80724e-11
9.81312e-11
9.80944e-11
9.81683e-11
9.80865e-11
9.80185e-11
9.76147e-11
9.67393e-11
9.60532e-11
8.48789e-11
8.55156e-11
8.62884e-11
8.66513e-11
8.67164e-11
8.67895e-11
8.67244e-11
8.67558e-11
8.67038e-11
8.67261e-11
8.6694e-11
8.67096e-11
8.66881e-11
8.66981e-11
8.66837e-11
8.6691e-11
8.66805e-11
8.66865e-11
8.66797e-11
8.66832e-11
8.66789e-11
8.66809e-11
8.66783e-11
8.66794e-11
8.66787e-11
8.66787e-11
8.66795e-11
8.66784e-11
8.6681e-11
8.66791e-11
8.66834e-11
8.66799e-11
8.66868e-11
8.66808e-11
8.66913e-11
8.6684e-11
8.66983e-11
8.66884e-11
8.67097e-11
8.66943e-11
8.67262e-11
8.67038e-11
8.67557e-11
8.67244e-11
8.67893e-11
8.67162e-11
8.66512e-11
8.62882e-11
8.55154e-11
8.48787e-11
7.54206e-11
7.60109e-11
7.66956e-11
7.70221e-11
7.70842e-11
7.71496e-11
7.70922e-11
7.71189e-11
7.70729e-11
7.70917e-11
7.70632e-11
7.70764e-11
7.70573e-11
7.70657e-11
7.70529e-11
7.70591e-11
7.70498e-11
7.7055e-11
7.70489e-11
7.70519e-11
7.70481e-11
7.70497e-11
7.70474e-11
7.70484e-11
7.70478e-11
7.70478e-11
7.70484e-11
7.70475e-11
7.70499e-11
7.70482e-11
7.70521e-11
7.70491e-11
7.70552e-11
7.70501e-11
7.70594e-11
7.70532e-11
7.70659e-11
7.70575e-11
7.70765e-11
7.70635e-11
7.70918e-11
7.70729e-11
7.71189e-11
7.70922e-11
7.71494e-11
7.7084e-11
7.7022e-11
7.66954e-11
7.60107e-11
7.54204e-11
6.73785e-11
6.79254e-11
6.85341e-11
6.88284e-11
6.88873e-11
6.89459e-11
6.88952e-11
6.89179e-11
6.8877e-11
6.88928e-11
6.88675e-11
6.88786e-11
6.88616e-11
6.88687e-11
6.88573e-11
6.88625e-11
6.88542e-11
6.88586e-11
6.88532e-11
6.88558e-11
6.88523e-11
6.88538e-11
6.88517e-11
6.88525e-11
6.8852e-11
6.8852e-11
6.88526e-11
6.88518e-11
6.88539e-11
6.88525e-11
6.88559e-11
6.88534e-11
6.88588e-11
6.88545e-11
6.88628e-11
6.88575e-11
6.88689e-11
6.88618e-11
6.88787e-11
6.88678e-11
6.88929e-11
6.88771e-11
6.89179e-11
6.88952e-11
6.89457e-11
6.88871e-11
6.88283e-11
6.85339e-11
6.79252e-11
6.73783e-11
6.05093e-11
6.10157e-11
6.15587e-11
6.18246e-11
6.18802e-11
6.19329e-11
6.18879e-11
6.19072e-11
6.18708e-11
6.1884e-11
6.18614e-11
6.18707e-11
6.18555e-11
6.18615e-11
6.18512e-11
6.18557e-11
6.18483e-11
6.1852e-11
6.18472e-11
6.18494e-11
6.18463e-11
6.18475e-11
6.18456e-11
6.18464e-11
6.18459e-11
6.18459e-11
6.18464e-11
6.18457e-11
6.18476e-11
6.18464e-11
6.18495e-11
6.18473e-11
6.18522e-11
6.18485e-11
6.18559e-11
6.18515e-11
6.18617e-11
6.18557e-11
6.18708e-11
6.18617e-11
6.18841e-11
6.18708e-11
6.19072e-11
6.18879e-11
6.19327e-11
6.188e-11
6.18244e-11
6.15585e-11
6.10155e-11
6.05091e-11
5.46152e-11
5.50838e-11
5.557e-11
5.58106e-11
5.5863e-11
5.59105e-11
5.58705e-11
5.58869e-11
5.58543e-11
5.58653e-11
5.58451e-11
5.58529e-11
5.58392e-11
5.58442e-11
5.5835e-11
5.58388e-11
5.58321e-11
5.58353e-11
5.58309e-11
5.58328e-11
5.583e-11
5.58311e-11
5.58294e-11
5.583e-11
5.58295e-11
5.58296e-11
5.58301e-11
5.58295e-11
5.58312e-11
5.58302e-11
5.5833e-11
5.58311e-11
5.58355e-11
5.58323e-11
5.5839e-11
5.58352e-11
5.58444e-11
5.58394e-11
5.5853e-11
5.58453e-11
5.58654e-11
5.58544e-11
5.58869e-11
5.58705e-11
5.59104e-11
5.58629e-11
5.58105e-11
5.55699e-11
5.50836e-11
5.4615e-11
4.95348e-11
4.99682e-11
5.04051e-11
5.06233e-11
5.06727e-11
5.07155e-11
5.06798e-11
5.06937e-11
5.06644e-11
5.06736e-11
5.06554e-11
5.06618e-11
5.06495e-11
5.06537e-11
5.06454e-11
5.06485e-11
5.06425e-11
5.06452e-11
5.06413e-11
5.06429e-11
5.06404e-11
5.06413e-11
5.06397e-11
5.06403e-11
5.06399e-11
5.06399e-11
5.06403e-11
5.06398e-11
5.06414e-11
5.06405e-11
5.0643e-11
5.06415e-11
5.06454e-11
5.06427e-11
5.06488e-11
5.06456e-11
5.06539e-11
5.06497e-11
5.06619e-11
5.06556e-11
5.06737e-11
5.06645e-11
5.06937e-11
5.06797e-11
5.07154e-11
5.06725e-11
5.06232e-11
5.0405e-11
4.9968e-11
4.95347e-11
4.51361e-11
4.55364e-11
4.59306e-11
4.6129e-11
4.61753e-11
4.6214e-11
4.6182e-11
4.61938e-11
4.61674e-11
4.6175e-11
4.61585e-11
4.61639e-11
4.61527e-11
4.61562e-11
4.61486e-11
4.61513e-11
4.61458e-11
4.61482e-11
4.61446e-11
4.61459e-11
4.61436e-11
4.61444e-11
4.6143e-11
4.61435e-11
4.61431e-11
4.61431e-11
4.61435e-11
4.61431e-11
4.61445e-11
4.61438e-11
4.61461e-11
4.61447e-11
4.61483e-11
4.6146e-11
4.61515e-11
4.61488e-11
4.61564e-11
4.61529e-11
4.6164e-11
4.61587e-11
4.61751e-11
4.61674e-11
4.61938e-11
4.61819e-11
4.62139e-11
4.61752e-11
4.61288e-11
4.59305e-11
4.55362e-11
4.51359e-11
4.13106e-11
4.16798e-11
4.20369e-11
4.22176e-11
4.22611e-11
4.22961e-11
4.22673e-11
4.22772e-11
4.22534e-11
4.22596e-11
4.22447e-11
4.22491e-11
4.22389e-11
4.22418e-11
4.22349e-11
4.22371e-11
4.22321e-11
4.22341e-11
4.22309e-11
4.2232e-11
4.22299e-11
4.22305e-11
4.22293e-11
4.22297e-11
4.22293e-11
4.22293e-11
4.22297e-11
4.22294e-11
4.22307e-11
4.223e-11
4.22321e-11
4.2231e-11
4.22343e-11
4.22323e-11
4.22373e-11
4.22351e-11
4.2242e-11
4.22391e-11
4.22492e-11
4.22448e-11
4.22597e-11
4.22534e-11
4.22772e-11
4.22673e-11
4.2296e-11
4.2261e-11
4.22175e-11
4.20368e-11
4.16796e-11
4.13104e-11
3.79689e-11
3.83087e-11
3.86336e-11
3.87986e-11
3.88395e-11
3.88711e-11
3.88451e-11
3.88534e-11
3.88318e-11
3.88368e-11
3.88232e-11
3.88268e-11
3.88175e-11
3.88199e-11
3.88136e-11
3.88154e-11
3.88109e-11
3.88125e-11
3.88095e-11
3.88105e-11
3.88086e-11
3.88091e-11
3.88079e-11
3.88083e-11
3.8808e-11
3.8808e-11
3.88083e-11
3.8808e-11
3.88092e-11
3.88087e-11
3.88106e-11
3.88097e-11
3.88127e-11
3.8811e-11
3.88156e-11
3.88137e-11
3.882e-11
3.88177e-11
3.88269e-11
3.88234e-11
3.88369e-11
3.88318e-11
3.88534e-11
3.8845e-11
3.8871e-11
3.88393e-11
3.87985e-11
3.86335e-11
3.83085e-11
3.79688e-11
3.50364e-11
3.53498e-11
3.5646e-11
3.5797e-11
3.58353e-11
3.58639e-11
3.58403e-11
3.58473e-11
3.58276e-11
3.58316e-11
3.58192e-11
3.58221e-11
3.58136e-11
3.58154e-11
3.58096e-11
3.58112e-11
3.5807e-11
3.58084e-11
3.58056e-11
3.58064e-11
3.58047e-11
3.58051e-11
3.58041e-11
3.58043e-11
3.5804e-11
3.58041e-11
3.58044e-11
3.58041e-11
3.58052e-11
3.58048e-11
3.58066e-11
3.58058e-11
3.58085e-11
3.58072e-11
3.58113e-11
3.58098e-11
3.58156e-11
3.58137e-11
3.58222e-11
3.58193e-11
3.58317e-11
3.58276e-11
3.58473e-11
3.58403e-11
3.58638e-11
3.58352e-11
3.57968e-11
3.56459e-11
3.53496e-11
3.50362e-11
)
;

boundaryField
{
    fuel
    {
        type            fixedValue;
        value           uniform 0;
    }
    wall
    {
        type            zeroGradient;
    }
    outlet
    {
        type            zeroGradient;
    }
    frontAndBack
    {
        type            empty;
    }
    procBoundary1to0
    {
        type            processor;
        value           nonuniform List<scalar> 
50
(
3.24517e-11
3.27416e-11
3.3012e-11
3.31505e-11
3.31863e-11
3.32123e-11
3.31908e-11
3.31966e-11
3.31786e-11
3.31818e-11
3.31703e-11
3.31726e-11
3.31648e-11
3.31663e-11
3.31609e-11
3.31622e-11
3.31583e-11
3.31595e-11
3.31569e-11
3.31576e-11
3.3156e-11
3.31564e-11
3.31554e-11
3.31556e-11
3.31553e-11
3.31553e-11
3.31556e-11
3.31554e-11
3.31564e-11
3.31561e-11
3.31578e-11
3.31571e-11
3.31596e-11
3.31585e-11
3.31623e-11
3.31611e-11
3.31664e-11
3.3165e-11
3.31727e-11
3.31705e-11
3.31819e-11
3.31786e-11
3.31966e-11
3.31908e-11
3.32122e-11
3.31862e-11
3.31503e-11
3.30119e-11
3.27415e-11
3.24515e-11
)
;
    }
}


// ************************************************************************* //
