/*--------------------------------*- C++ -*----------------------------------*\
| =========                 |                                                 |
| \\      /  F ield         | OpenFOAM: The Open Source CFD Toolbox           |
|  \\    /   O peration     | Version:  dev                                   |
|   \\  /    A nd           | Web:      www.OpenFOAM.org                      |
|    \\/     M anipulation  |                                                 |
\*---------------------------------------------------------------------------*/
FoamFile
{
    version     2.0;
    format      ascii;
    class       volScalarField;
    location    "0.06";
    object      A1-;
}
// * * * * * * * * * * * * * * * * * * * * * * * * * * * * * * * * * * * * * //

dimensions      [0 0 0 0 0 0 0];

internalField   nonuniform List<scalar> 
25
(
2.73347e-09
8.35937e-09
1.15919e-08
1.2215e-08
1.07838e-08
8.31861e-09
5.82373e-09
3.85233e-09
2.47117e-09
1.56795e-09
1.00041e-09
6.49297e-10
4.33168e-10
3.01194e-10
2.20531e-10
1.71762e-10
1.43198e-10
1.2773e-10
1.20921e-10
1.19872e-10
1.22575e-10
1.27561e-10
1.337e-10
1.40121e-10
1.46158e-10
)
;

boundaryField
{
    wall
    {
        type            zeroGradient;
    }
    fuel
    {
        type            fixedValue;
        value           uniform 0;
    }
    outlet
    {
        type            inletOutlet;
        inletValue      nonuniform 0();
        value           nonuniform 0();
    }
    procBoundary0to1
    {
        type            processor;
        value           uniform 1.51332e-10;
    }
}


// ************************************************************************* //
