/*--------------------------------*- C++ -*----------------------------------*\
| =========                 |                                                 |
| \\      /  F ield         | OpenFOAM: The Open Source CFD Toolbox           |
|  \\    /   O peration     | Version:  dev                                   |
|   \\  /    A nd           | Web:      www.OpenFOAM.org                      |
|    \\/     M anipulation  |                                                 |
\*---------------------------------------------------------------------------*/
FoamFile
{
    version     2.0;
    format      ascii;
    class       volScalarField;
    location    "0.06";
    object      A1C2H;
}
// * * * * * * * * * * * * * * * * * * * * * * * * * * * * * * * * * * * * * //

dimensions      [0 0 0 0 0 0 0];

internalField   nonuniform List<scalar> 
12
(
6.27049e-11
2.00213e-10
3.14104e-10
3.56606e-10
3.29432e-10
2.61704e-10
1.87545e-10
1.25178e-10
8.05425e-11
5.10397e-11
3.23406e-11
2.0774e-11
)
;

boundaryField
{
    front
    {
        type            wedge;
    }
    back
    {
        type            wedge;
    }
    wall
    {
        type            zeroGradient;
    }
    fuel
    {
        type            fixedValue;
        value           uniform 0;
    }
    outlet
    {
        type            inletOutlet;
        inletValue      nonuniform 0();
        value           nonuniform 0();
    }
    axis
    {
        type            empty;
    }
    procBoundary0to1
    {
        type            processor;
        value           uniform 1.36817e-11;
    }
}


// ************************************************************************* //
