/*--------------------------------*- C++ -*----------------------------------*\
| =========                 |                                                 |
| \\      /  F ield         | OpenFOAM: The Open Source CFD Toolbox           |
|  \\    /   O peration     | Version:  dev                                   |
|   \\  /    A nd           | Web:      www.OpenFOAM.org                      |
|    \\/     M anipulation  |                                                 |
\*---------------------------------------------------------------------------*/
FoamFile
{
    version     2.0;
    format      ascii;
    class       volScalarField;
    location    "0.06";
    object      C5H6;
}
// * * * * * * * * * * * * * * * * * * * * * * * * * * * * * * * * * * * * * //

dimensions      [0 0 0 0 0 0 0];

internalField   nonuniform List<scalar> 
25
(
5.55038e-10
7.98806e-10
6.26859e-10
4.30205e-10
2.83577e-10
1.86621e-10
1.25608e-10
8.76176e-11
6.36134e-11
4.8138e-11
3.79593e-11
3.11094e-11
2.64473e-11
2.33622e-11
2.14548e-11
2.04974e-11
2.03611e-11
2.09841e-11
2.23535e-11
2.44957e-11
2.74692e-11
3.13612e-11
3.62806e-11
4.236e-11
4.97486e-11
)
;

boundaryField
{
    wall
    {
        type            zeroGradient;
    }
    fuel
    {
        type            fixedValue;
        value           uniform 0;
    }
    outlet
    {
        type            inletOutlet;
        inletValue      nonuniform 0();
        value           nonuniform 0();
    }
    procBoundary0to1
    {
        type            processor;
        value           uniform 5.86118e-11;
    }
}


// ************************************************************************* //
