/*--------------------------------*- C++ -*----------------------------------*\
| =========                 |                                                 |
| \\      /  F ield         | OpenFOAM: The Open Source CFD Toolbox           |
|  \\    /   O peration     | Version:  dev                                   |
|   \\  /    A nd           | Web:      www.OpenFOAM.org                      |
|    \\/     M anipulation  |                                                 |
\*---------------------------------------------------------------------------*/
FoamFile
{
    version     2.0;
    format      ascii;
    class       volScalarField;
    location    "0.06";
    object      C6H3;
}
// * * * * * * * * * * * * * * * * * * * * * * * * * * * * * * * * * * * * * //

dimensions      [0 0 0 0 0 0 0];

internalField   nonuniform List<scalar> 
25
(
1.61346e-11
4.95557e-11
7.17351e-11
7.80976e-11
7.07596e-11
5.61235e-11
4.03572e-11
2.74222e-11
1.80236e-11
1.16518e-11
7.51242e-12
4.8858e-12
3.24237e-12
2.22628e-12
1.59583e-12
1.2029e-12
9.56068e-13
7.99339e-13
6.98432e-13
6.32271e-13
5.87786e-13
5.56803e-13
5.34215e-13
5.16804e-13
5.02581e-13
)
;

boundaryField
{
    wall
    {
        type            zeroGradient;
    }
    fuel
    {
        type            fixedValue;
        value           uniform 0;
    }
    outlet
    {
        type            inletOutlet;
        inletValue      nonuniform 0();
        value           nonuniform 0();
    }
    procBoundary0to1
    {
        type            processor;
        value           uniform 4.90366e-13;
    }
}


// ************************************************************************* //
