/*--------------------------------*- C++ -*----------------------------------*\
| =========                 |                                                 |
| \\      /  F ield         | OpenFOAM: The Open Source CFD Toolbox           |
|  \\    /   O peration     | Version:  dev                                   |
|   \\  /    A nd           | Web:      www.OpenFOAM.org                      |
|    \\/     M anipulation  |                                                 |
\*---------------------------------------------------------------------------*/
FoamFile
{
    version     2.0;
    format      ascii;
    class       volScalarField;
    location    "0.06";
    object      CH3O;
}
// * * * * * * * * * * * * * * * * * * * * * * * * * * * * * * * * * * * * * //

dimensions      [0 0 0 0 0 0 0];

internalField   nonuniform List<scalar> 
25
(
1.09378e-08
1.70188e-08
1.75632e-08
1.6095e-08
1.37831e-08
1.12048e-08
8.73366e-09
6.61438e-09
4.91726e-09
3.62242e-09
2.66596e-09
1.96896e-09
1.46368e-09
1.10027e-09
8.37055e-10
6.44955e-10
5.03239e-10
3.97326e-10
3.17038e-10
2.55285e-10
2.07123e-10
1.69076e-10
1.38709e-10
1.14248e-10
9.4401e-11
)
;

boundaryField
{
    wall
    {
        type            zeroGradient;
    }
    fuel
    {
        type            fixedValue;
        value           uniform 0;
    }
    outlet
    {
        type            inletOutlet;
        inletValue      nonuniform 0();
        value           nonuniform 0();
    }
    procBoundary0to1
    {
        type            processor;
        value           uniform 7.81994e-11;
    }
}


// ************************************************************************* //
