/*--------------------------------*- C++ -*----------------------------------*\
| =========                 |                                                 |
| \\      /  F ield         | OpenFOAM: The Open Source CFD Toolbox           |
|  \\    /   O peration     | Version:  dev                                   |
|   \\  /    A nd           | Web:      www.OpenFOAM.org                      |
|    \\/     M anipulation  |                                                 |
\*---------------------------------------------------------------------------*/
FoamFile
{
    version     2.0;
    format      ascii;
    class       volScalarField;
    location    "0.06";
    object      CH4;
}
// * * * * * * * * * * * * * * * * * * * * * * * * * * * * * * * * * * * * * //

dimensions      [0 0 0 0 0 0 0];

internalField   nonuniform List<scalar> 
25
(
0.000263279
0.000272758
0.000235566
0.000192159
0.000148633
0.000110648
7.94727e-05
5.61411e-05
3.98065e-05
2.8251e-05
2.03865e-05
1.4779e-05
1.07917e-05
7.90604e-06
5.79041e-06
4.22922e-06
3.07691e-06
2.23012e-06
1.61229e-06
1.16528e-06
8.44562e-07
6.16264e-07
4.54873e-07
3.41372e-07
2.6165e-07
)
;

boundaryField
{
    wall
    {
        type            zeroGradient;
    }
    fuel
    {
        type            fixedValue;
        value           uniform 0;
    }
    outlet
    {
        type            inletOutlet;
        inletValue      nonuniform 0();
        value           nonuniform 0();
    }
    procBoundary0to1
    {
        type            processor;
        value           uniform 2.05187e-07;
    }
}


// ************************************************************************* //
