/*--------------------------------*- C++ -*----------------------------------*\
| =========                 |                                                 |
| \\      /  F ield         | OpenFOAM: The Open Source CFD Toolbox           |
|  \\    /   O peration     | Version:  dev                                   |
|   \\  /    A nd           | Web:      www.OpenFOAM.org                      |
|    \\/     M anipulation  |                                                 |
\*---------------------------------------------------------------------------*/
FoamFile
{
    version     2.0;
    format      ascii;
    class       volScalarField;
    location    "0.06";
    object      HO2;
}
// * * * * * * * * * * * * * * * * * * * * * * * * * * * * * * * * * * * * * //

dimensions      [0 0 0 0 0 0 0];

internalField   nonuniform List<scalar> 
25
(
2.21755e-08
2.31096e-08
2.00998e-08
1.70075e-08
1.43934e-08
1.22293e-08
1.0342e-08
8.59379e-09
6.95183e-09
5.48084e-09
4.24083e-09
3.21957e-09
2.38162e-09
1.7294e-09
1.23816e-09
8.78153e-10
6.19517e-10
4.36223e-10
3.0742e-10
2.17302e-10
1.54319e-10
1.10243e-10
7.93275e-11
5.75701e-11
4.22128e-11
)
;

boundaryField
{
    wall
    {
        type            zeroGradient;
    }
    fuel
    {
        type            fixedValue;
        value           uniform 0;
    }
    outlet
    {
        type            inletOutlet;
        inletValue      nonuniform 0();
        value           nonuniform 0();
    }
    procBoundary0to1
    {
        type            processor;
        value           uniform 3.13695e-11;
    }
}


// ************************************************************************* //
