/*--------------------------------*- C++ -*----------------------------------*\
| =========                 |                                                 |
| \\      /  F ield         | OpenFOAM: The Open Source CFD Toolbox           |
|  \\    /   O peration     | Version:  dev                                   |
|   \\  /    A nd           | Web:      www.OpenFOAM.org                      |
|    \\/     M anipulation  |                                                 |
\*---------------------------------------------------------------------------*/
FoamFile
{
    version     2.0;
    format      ascii;
    class       volScalarField;
    location    "0.06";
    object      n-C6H7;
}
// * * * * * * * * * * * * * * * * * * * * * * * * * * * * * * * * * * * * * //

dimensions      [0 0 0 0 0 0 0];

internalField   nonuniform List<scalar> 
25
(
2.12706e-12
7.36067e-13
2.21888e-13
6.36153e-14
1.74899e-14
4.81825e-15
1.30149e-15
3.50119e-16
9.59229e-17
2.60307e-17
7.23141e-18
1.99807e-18
5.58096e-19
1.57998e-19
4.55941e-20
1.36011e-20
4.33614e-21
1.57609e-21
7.07088e-22
4.01048e-22
2.70354e-22
1.99666e-22
1.53442e-22
1.19869e-22
9.43201e-23
)
;

boundaryField
{
    wall
    {
        type            zeroGradient;
    }
    fuel
    {
        type            fixedValue;
        value           uniform 0;
    }
    outlet
    {
        type            inletOutlet;
        inletValue      nonuniform 0();
        value           nonuniform 0();
    }
    procBoundary0to1
    {
        type            processor;
        value           uniform 7.47767e-23;
    }
}


// ************************************************************************* //
