/*--------------------------------*- C++ -*----------------------------------*\
| =========                 |                                                 |
| \\      /  F ield         | OpenFOAM: The Open Source CFD Toolbox           |
|  \\    /   O peration     | Version:  dev                                   |
|   \\  /    A nd           | Web:      www.OpenFOAM.org                      |
|    \\/     M anipulation  |                                                 |
\*---------------------------------------------------------------------------*/
FoamFile
{
    version     2.0;
    format      ascii;
    class       volScalarField;
    location    "0.08";
    object      A1C2H-;
}
// * * * * * * * * * * * * * * * * * * * * * * * * * * * * * * * * * * * * * //

dimensions      [0 0 0 0 0 0 0];

internalField   nonuniform List<scalar> 
25
(
2.91632e-11
7.06329e-11
6.64883e-11
4.4892e-11
2.56013e-11
1.3425e-11
6.80763e-12
3.41613e-12
1.68806e-12
8.40966e-13
4.15817e-13
2.06926e-13
1.02313e-13
5.03047e-14
2.48082e-14
1.23011e-14
6.15384e-15
3.12048e-15
1.61357e-15
8.57103e-16
4.71563e-16
2.70944e-16
1.63683e-16
1.04315e-16
6.98625e-17
)
;

boundaryField
{
    wall
    {
        type            zeroGradient;
    }
    fuel
    {
        type            fixedValue;
        value           uniform 0;
    }
    outlet
    {
        type            inletOutlet;
        inletValue      nonuniform 0();
        value           nonuniform 0();
    }
    procBoundary0to1
    {
        type            processor;
        value           uniform 5.0982e-17;
    }
}


// ************************************************************************* //
