/*--------------------------------*- C++ -*----------------------------------*\
| =========                 |                                                 |
| \\      /  F ield         | OpenFOAM: The Open Source CFD Toolbox           |
|  \\    /   O peration     | Version:  dev                                   |
|   \\  /    A nd           | Web:      www.OpenFOAM.org                      |
|    \\/     M anipulation  |                                                 |
\*---------------------------------------------------------------------------*/
FoamFile
{
    version     2.0;
    format      ascii;
    class       volScalarField;
    location    "0.08";
    object      A1C2H-;
}
// * * * * * * * * * * * * * * * * * * * * * * * * * * * * * * * * * * * * * //

dimensions      [0 0 0 0 0 0 0];

internalField   nonuniform List<scalar> 
250
(
3.92749e-09
3.9337e-09
3.92347e-09
3.93406e-09
3.93957e-09
4.00435e-09
4.22633e-09
5.33792e-09
9.91576e-09
2.14044e-08
3.67436e-09
3.68004e-09
3.6705e-09
3.6804e-09
3.68556e-09
3.74469e-09
3.94246e-09
4.91865e-09
8.71102e-09
1.84782e-08
8.59107e-09
7.91272e-09
4.49896e-09
3.75447e-09
3.51503e-09
3.47124e-09
3.45991e-09
3.44972e-09
3.45929e-09
3.455e-09
3.45013e-09
3.45539e-09
3.44648e-09
3.45578e-09
3.46062e-09
3.51437e-09
3.69099e-09
4.53933e-09
7.64327e-09
1.59468e-08
7.79906e-09
6.89555e-09
4.1527e-09
3.52225e-09
3.30859e-09
3.26848e-09
3.25784e-09
3.24806e-09
3.25696e-09
3.25218e-09
3.24814e-09
3.2531e-09
3.24472e-09
3.25361e-09
3.25811e-09
3.30686e-09
3.46419e-09
4.19473e-09
6.6965e-09
1.36391e-08
7.0198e-09
5.98098e-09
3.83644e-09
3.30781e-09
3.11727e-09
3.08075e-09
3.07076e-09
3.06116e-09
3.06964e-09
3.06421e-09
3.0609e-09
3.06578e-09
3.05775e-09
3.06647e-09
3.07058e-09
3.11481e-09
3.25414e-09
3.87817e-09
5.85413e-09
1.16722e-08
6.26218e-09
5.26162e-09
3.54175e-09
3.10318e-09
2.93284e-09
2.89983e-09
2.89046e-09
2.88077e-09
2.88912e-09
2.88283e-09
2.88014e-09
2.88518e-09
2.8773e-09
2.88617e-09
2.8898e-09
2.93001e-09
3.05267e-09
3.58191e-09
5.16524e-09
9.95435e-09
5.53228e-09
4.61005e-09
3.25893e-09
2.90003e-09
2.74655e-09
2.71706e-09
2.7083e-09
2.69824e-09
2.70674e-09
2.69935e-09
2.69719e-09
2.70268e-09
2.6947e-09
2.70404e-09
2.70708e-09
2.7437e-09
2.8517e-09
3.2971e-09
4.5098e-09
8.22071e-09
4.83757e-09
4.03746e-09
2.97877e-09
2.68318e-09
2.55011e-09
2.5243e-09
2.51618e-09
2.50552e-09
2.51445e-09
2.50575e-09
2.50406e-09
2.51022e-09
2.50192e-09
2.51201e-09
2.51431e-09
2.5475e-09
2.63248e-09
3.01522e-09
3.94408e-09
6.86354e-09
4.18274e-09
3.51402e-09
2.69422e-09
2.45602e-09
2.33089e-09
2.30594e-09
2.29785e-09
2.28577e-09
2.29605e-09
2.28539e-09
2.28374e-09
2.29142e-09
2.28203e-09
2.29364e-09
2.29527e-09
2.32925e-09
2.40539e-09
2.72993e-09
3.42273e-09
5.57878e-09
3.5699e-09
3.027e-09
2.38728e-09
2.20877e-09
2.09524e-09
2.07347e-09
2.06603e-09
2.05315e-09
2.06422e-09
2.05211e-09
2.05077e-09
2.05943e-09
2.04941e-09
2.06203e-09
2.06275e-09
2.09433e-09
2.15805e-09
2.41196e-09
2.91122e-09
4.53941e-09
2.9997e-09
2.56886e-09
2.07991e-09
1.94217e-09
1.83971e-09
1.82101e-09
1.81432e-09
1.80093e-09
1.8126e-09
1.79937e-09
1.79828e-09
1.80776e-09
1.79725e-09
1.81062e-09
1.81043e-09
1.83966e-09
1.89211e-09
2.10322e-09
2.45335e-09
3.64453e-09
2.47317e-09
2.13708e-09
1.76557e-09
1.66219e-09
1.57113e-09
1.5554e-09
1.5496e-09
1.53617e-09
1.54807e-09
1.5343e-09
1.53343e-09
1.54336e-09
1.53268e-09
1.54629e-09
1.54528e-09
1.57188e-09
1.61417e-09
1.78801e-09
2.02477e-09
2.88015e-09
1.99317e-09
1.73489e-09
1.45456e-09
1.37956e-09
1.3006e-09
1.28772e-09
1.28287e-09
1.27002e-09
1.28161e-09
1.26804e-09
1.26736e-09
1.27724e-09
1.26685e-09
1.28005e-09
1.2784e-09
1.30194e-09
1.33523e-09
1.47612e-09
1.63003e-09
2.23382e-09
1.01295e-09
1.02223e-09
1.0126e-09
1.02475e-09
1.02272e-09
1.0428e-09
1.06833e-09
1.1798e-09
1.27591e-09
1.69477e-09
)
;

boundaryField
{
    fuel
    {
        type            fixedValue;
        value           nonuniform 0();
    }
    wall
    {
        type            zeroGradient;
    }
    outlet
    {
        type            zeroGradient;
    }
    frontAndBack
    {
        type            empty;
    }
    procBoundary0to1
    {
        type            processor;
        value           nonuniform List<scalar> 
21
(
1.56369e-09
1.36849e-09
1.15986e-09
1.10732e-09
1.04117e-09
1.03091e-09
1.02705e-09
1.01538e-09
1.02611e-09
1.01348e-09
1.01348e-09
7.8179e-10
7.90044e-10
7.81558e-10
7.92169e-10
7.8998e-10
8.06591e-10
8.25425e-10
9.11219e-10
9.68323e-10
1.25425e-09
)
;
    }
    procBoundary0to2
    {
        type            processor;
        value           nonuniform List<scalar> 
12
(
3.93482e-09
9.39963e-09
8.97002e-09
4.88284e-09
4.01142e-09
3.74405e-09
3.69649e-09
3.68447e-09
3.67375e-09
3.68416e-09
3.68032e-09
3.68032e-09
)
;
    }
    procBoundary0to3
    {
        type            processor;
        value           nonuniform List<scalar> 10(4.21572e-09 4.22251e-09 4.21158e-09 4.22293e-09 4.22879e-09 4.29956e-09 4.54405e-09 5.86931e-09 1.12701e-08 2.45811e-08);
    }
}


// ************************************************************************* //
