/*--------------------------------*- C++ -*----------------------------------*\
| =========                 |                                                 |
| \\      /  F ield         | OpenFOAM: The Open Source CFD Toolbox           |
|  \\    /   O peration     | Version:  dev                                   |
|   \\  /    A nd           | Web:      www.OpenFOAM.org                      |
|    \\/     M anipulation  |                                                 |
\*---------------------------------------------------------------------------*/
FoamFile
{
    version     2.0;
    format      ascii;
    class       volScalarField;
    location    "0.08";
    object      A3C2H2;
}
// * * * * * * * * * * * * * * * * * * * * * * * * * * * * * * * * * * * * * //

dimensions      [0 0 0 0 0 0 0];

internalField   nonuniform List<scalar> 
250
(
1.67264e-16
1.67567e-16
1.67037e-16
1.68192e-16
1.68834e-16
1.72884e-16
1.93797e-16
2.61373e-16
6.54779e-16
6.50981e-16
1.55229e-16
1.55539e-16
1.55033e-16
1.56119e-16
1.56709e-16
1.6042e-16
1.79667e-16
2.37112e-16
5.5699e-16
6.23653e-16
3.30019e-15
6.60716e-16
2.57801e-16
1.64484e-16
1.54249e-16
1.44218e-16
1.46969e-16
1.43833e-16
1.4558e-16
1.43908e-16
1.44716e-16
1.45027e-16
1.44543e-16
1.45564e-16
1.46106e-16
1.49524e-16
1.67058e-16
2.17619e-16
4.78532e-16
5.95815e-16
2.89861e-15
5.86834e-16
2.36058e-16
1.53243e-16
1.43974e-16
1.35e-16
1.37424e-16
1.34623e-16
1.36187e-16
1.34744e-16
1.35411e-16
1.35723e-16
1.35257e-16
1.3622e-16
1.36716e-16
1.39885e-16
1.55778e-16
2.00489e-16
4.10534e-16
5.66828e-16
2.47958e-15
5.16288e-16
2.16167e-16
1.43028e-16
1.34765e-16
1.26674e-16
1.28844e-16
1.2631e-16
1.27736e-16
1.26471e-16
1.27023e-16
1.27336e-16
1.26883e-16
1.27797e-16
1.2825e-16
1.31211e-16
1.45545e-16
1.85179e-16
3.62264e-16
5.36776e-16
2.06837e-15
4.50639e-16
1.97796e-16
1.33546e-16
1.2635e-16
1.18958e-16
1.20952e-16
1.18615e-16
1.19942e-16
1.18811e-16
1.1927e-16
1.19589e-16
1.19141e-16
1.20017e-16
1.20429e-16
1.23222e-16
1.36066e-16
1.71193e-16
3.22753e-16
5.05421e-16
1.68655e-15
3.86572e-16
1.80663e-16
1.24511e-16
1.18471e-16
1.11588e-16
1.13487e-16
1.11271e-16
1.12539e-16
1.11501e-16
1.11886e-16
1.12217e-16
1.11767e-16
1.12617e-16
1.12987e-16
1.15635e-16
1.27073e-16
1.58117e-16
2.89345e-16
4.72517e-16
1.34156e-15
3.31907e-16
1.64537e-16
1.15587e-16
1.10241e-16
1.04329e-16
1.06215e-16
1.04045e-16
1.05288e-16
1.04307e-16
1.04636e-16
1.04985e-16
1.04525e-16
1.05361e-16
1.05686e-16
1.08182e-16
1.18264e-16
1.45628e-16
2.60051e-16
4.37825e-16
1.04036e-15
2.82794e-16
1.49227e-16
1.06775e-16
1.02571e-16
9.69978e-17
9.87898e-17
9.67509e-17
9.79935e-17
9.70427e-17
9.7331e-17
9.77006e-17
9.72263e-17
9.80555e-17
9.83347e-17
1.00396e-16
1.09573e-16
1.32959e-16
2.33416e-16
4.01209e-16
8.09631e-16
2.36995e-16
1.33538e-16
9.78966e-17
9.47837e-17
8.94807e-17
9.13302e-17
8.92724e-17
9.05295e-17
8.95891e-17
8.98486e-17
9.02408e-17
8.975e-17
9.05755e-17
9.0808e-17
9.2658e-17
1.00812e-16
1.20831e-16
2.08487e-16
3.6276e-16
6.21623e-16
1.98627e-16
1.19235e-16
8.89131e-17
8.68093e-17
8.17471e-17
8.36536e-17
8.15782e-17
8.28512e-17
8.19132e-17
8.21522e-17
8.25645e-17
8.20597e-17
8.28782e-17
8.30648e-17
8.46928e-17
9.19154e-17
1.08737e-16
1.8469e-16
3.229e-16
4.73826e-16
1.65304e-16
1.05448e-16
7.988e-17
7.86709e-17
7.38557e-17
7.57975e-17
7.37254e-17
7.50035e-17
7.40705e-17
7.42938e-17
7.47198e-17
7.42078e-17
7.50107e-17
7.51535e-17
7.65692e-17
8.2903e-17
9.67527e-17
1.61811e-16
2.82161e-16
3.58762e-16
1.36601e-16
9.22857e-17
7.09354e-17
7.04772e-17
6.59411e-17
6.78818e-17
6.58467e-17
6.71095e-17
6.61923e-17
6.64017e-17
6.68323e-17
6.63229e-17
6.70978e-17
6.72007e-17
6.84086e-17
7.39088e-17
8.50494e-17
1.39928e-16
2.41985e-16
5.86516e-17
5.90765e-17
5.85806e-17
5.93146e-17
5.93828e-17
6.0413e-17
6.50956e-17
7.38529e-17
1.19285e-16
2.03397e-16
)
;

boundaryField
{
    fuel
    {
        type            fixedValue;
        value           nonuniform 0();
    }
    wall
    {
        type            zeroGradient;
    }
    outlet
    {
        type            zeroGradient;
    }
    frontAndBack
    {
        type            empty;
    }
    procBoundary0to1
    {
        type            processor;
        value           nonuniform List<scalar> 
21
(
2.70523e-16
1.12135e-16
7.99116e-17
6.22665e-17
6.23957e-17
5.81826e-17
6.00787e-17
5.81195e-17
5.93423e-17
5.84561e-17
5.84561e-17
5.12248e-17
5.16345e-17
5.11621e-17
5.18441e-17
5.18838e-17
5.27484e-17
5.66847e-17
6.33884e-17
1.00261e-16
1.67566e-16
)
;
    }
    procBoundary0to2
    {
        type            processor;
        value           nonuniform List<scalar> 
12
(
1.66077e-16
3.65442e-15
7.49372e-16
2.81852e-16
1.77051e-16
1.65875e-16
1.54617e-16
1.5777e-16
1.54232e-16
1.56206e-16
1.5425e-16
1.5425e-16
)
;
    }
    procBoundary0to3
    {
        type            processor;
        value           nonuniform List<scalar> 10(1.8116e-16 1.81448e-16 1.80892e-16 1.82119e-16 1.82814e-16 1.87256e-16 2.10675e-16 2.87631e-16 7.80811e-16 6.79043e-16);
    }
}


// ************************************************************************* //
