/*--------------------------------*- C++ -*----------------------------------*\
| =========                 |                                                 |
| \\      /  F ield         | OpenFOAM: The Open Source CFD Toolbox           |
|  \\    /   O peration     | Version:  dev                                   |
|   \\  /    A nd           | Web:      www.OpenFOAM.org                      |
|    \\/     M anipulation  |                                                 |
\*---------------------------------------------------------------------------*/
FoamFile
{
    version     2.0;
    format      ascii;
    class       volScalarField;
    location    "0.08";
    object      CH2(S);
}
// * * * * * * * * * * * * * * * * * * * * * * * * * * * * * * * * * * * * * //

dimensions      [0 0 0 0 0 0 0];

internalField   nonuniform List<scalar> 
2014
(
3.46704e-08
3.48029e-08
3.494e-08
3.50147e-08
3.50483e-08
3.50651e-08
3.5064e-08
3.50646e-08
3.50593e-08
3.5058e-08
3.5054e-08
3.50532e-08
3.50507e-08
3.50503e-08
3.50487e-08
3.50486e-08
3.50476e-08
3.50478e-08
3.50472e-08
3.50473e-08
3.50469e-08
3.5047e-08
3.50468e-08
3.50468e-08
3.50467e-08
3.50467e-08
3.50468e-08
3.50468e-08
3.5047e-08
3.50469e-08
3.50473e-08
3.50472e-08
3.50478e-08
3.50476e-08
3.50486e-08
3.50487e-08
3.50503e-08
3.50506e-08
3.50532e-08
3.5054e-08
3.5058e-08
3.50593e-08
3.50646e-08
3.5064e-08
3.50651e-08
3.50482e-08
3.50147e-08
3.494e-08
3.48029e-08
3.46704e-08
3.42141e-08
3.43432e-08
3.4476e-08
3.4548e-08
3.45803e-08
3.45964e-08
3.45949e-08
3.45952e-08
3.45897e-08
3.45882e-08
3.45842e-08
3.45832e-08
3.45807e-08
3.45802e-08
3.45786e-08
3.45785e-08
3.45775e-08
3.45776e-08
3.4577e-08
3.45771e-08
3.45768e-08
3.45768e-08
3.45766e-08
3.45766e-08
3.45766e-08
3.45766e-08
3.45766e-08
3.45766e-08
3.45768e-08
3.45768e-08
3.45771e-08
3.4577e-08
3.45776e-08
3.45775e-08
3.45785e-08
3.45786e-08
3.45802e-08
3.45807e-08
3.45832e-08
3.45842e-08
3.45882e-08
3.45897e-08
3.45952e-08
3.45949e-08
3.45963e-08
3.45803e-08
3.45479e-08
3.44759e-08
3.43432e-08
3.4214e-08
3.37688e-08
3.38951e-08
3.40234e-08
3.40928e-08
3.41238e-08
3.41391e-08
3.41373e-08
3.41372e-08
3.41316e-08
3.41299e-08
3.41258e-08
3.41247e-08
3.41221e-08
3.41216e-08
3.412e-08
3.41198e-08
3.41188e-08
3.41189e-08
3.41183e-08
3.41184e-08
3.4118e-08
3.41181e-08
3.41179e-08
3.41179e-08
3.41178e-08
3.41178e-08
3.41179e-08
3.41179e-08
3.41181e-08
3.4118e-08
3.41184e-08
3.41183e-08
3.41189e-08
3.41188e-08
3.41198e-08
3.412e-08
3.41216e-08
3.41221e-08
3.41247e-08
3.41258e-08
3.41299e-08
3.41316e-08
3.41372e-08
3.41373e-08
3.4139e-08
3.41238e-08
3.40928e-08
3.40234e-08
3.38951e-08
3.37688e-08
3.33324e-08
3.34563e-08
3.35799e-08
3.36468e-08
3.36765e-08
3.36909e-08
3.36887e-08
3.36883e-08
3.36825e-08
3.36806e-08
3.36764e-08
3.36752e-08
3.36726e-08
3.3672e-08
3.36703e-08
3.36702e-08
3.36692e-08
3.36692e-08
3.36686e-08
3.36687e-08
3.36683e-08
3.36683e-08
3.36681e-08
3.36682e-08
3.36681e-08
3.36681e-08
3.36682e-08
3.36681e-08
3.36683e-08
3.36683e-08
3.36687e-08
3.36686e-08
3.36692e-08
3.36692e-08
3.36702e-08
3.36703e-08
3.3672e-08
3.36726e-08
3.36752e-08
3.36764e-08
3.36806e-08
3.36825e-08
3.36882e-08
3.36887e-08
3.36908e-08
3.36764e-08
3.36468e-08
3.35799e-08
3.34562e-08
3.33324e-08
3.29029e-08
3.30243e-08
3.31438e-08
3.3208e-08
3.32362e-08
3.32497e-08
3.32471e-08
3.32463e-08
3.32404e-08
3.32383e-08
3.32341e-08
3.32327e-08
3.323e-08
3.32294e-08
3.32277e-08
3.32275e-08
3.32265e-08
3.32265e-08
3.32259e-08
3.3226e-08
3.32256e-08
3.32256e-08
3.32254e-08
3.32254e-08
3.32254e-08
3.32254e-08
3.32254e-08
3.32254e-08
3.32256e-08
3.32256e-08
3.32259e-08
3.32259e-08
3.32265e-08
3.32265e-08
3.32275e-08
3.32277e-08
3.32294e-08
3.323e-08
3.32327e-08
3.32341e-08
3.32383e-08
3.32404e-08
3.32463e-08
3.32471e-08
3.32497e-08
3.32361e-08
3.3208e-08
3.31437e-08
3.30242e-08
3.29028e-08
3.24786e-08
3.25977e-08
3.2713e-08
3.27746e-08
3.28012e-08
3.2814e-08
3.28109e-08
3.28097e-08
3.28036e-08
3.28013e-08
3.2797e-08
3.27955e-08
3.27928e-08
3.2792e-08
3.27904e-08
3.27901e-08
3.27891e-08
3.27891e-08
3.27885e-08
3.27885e-08
3.27881e-08
3.27882e-08
3.2788e-08
3.2788e-08
3.27879e-08
3.27879e-08
3.2788e-08
3.2788e-08
3.27882e-08
3.27881e-08
3.27885e-08
3.27885e-08
3.27891e-08
3.27891e-08
3.27901e-08
3.27904e-08
3.2792e-08
3.27928e-08
3.27955e-08
3.2797e-08
3.28013e-08
3.28036e-08
3.28097e-08
3.28109e-08
3.28139e-08
3.28012e-08
3.27746e-08
3.2713e-08
3.25977e-08
3.24785e-08
3.20581e-08
3.21752e-08
3.22862e-08
3.23452e-08
3.23703e-08
3.23821e-08
3.23785e-08
3.2377e-08
3.23707e-08
3.23682e-08
3.23637e-08
3.23622e-08
3.23593e-08
3.23585e-08
3.23568e-08
3.23565e-08
3.23555e-08
3.23555e-08
3.23549e-08
3.23549e-08
3.23545e-08
3.23546e-08
3.23543e-08
3.23544e-08
3.23543e-08
3.23543e-08
3.23544e-08
3.23543e-08
3.23546e-08
3.23545e-08
3.23549e-08
3.23549e-08
3.23555e-08
3.23555e-08
3.23565e-08
3.23568e-08
3.23586e-08
3.23593e-08
3.23621e-08
3.23637e-08
3.23682e-08
3.23707e-08
3.2377e-08
3.23785e-08
3.2382e-08
3.23702e-08
3.23451e-08
3.22861e-08
3.21752e-08
3.20581e-08
3.16403e-08
3.17554e-08
3.1862e-08
3.19184e-08
3.1942e-08
3.19528e-08
3.19488e-08
3.19469e-08
3.19404e-08
3.19376e-08
3.19331e-08
3.19314e-08
3.19285e-08
3.19277e-08
3.19259e-08
3.19256e-08
3.19245e-08
3.19245e-08
3.19239e-08
3.19239e-08
3.19235e-08
3.19235e-08
3.19233e-08
3.19233e-08
3.19233e-08
3.19233e-08
3.19233e-08
3.19233e-08
3.19235e-08
3.19235e-08
3.19239e-08
3.19239e-08
3.19245e-08
3.19245e-08
3.19256e-08
3.19259e-08
3.19277e-08
3.19285e-08
3.19314e-08
3.19331e-08
3.19376e-08
3.19404e-08
3.19468e-08
3.19488e-08
3.19528e-08
3.19419e-08
3.19184e-08
3.1862e-08
3.17554e-08
3.16403e-08
3.12242e-08
3.13372e-08
3.14394e-08
3.14934e-08
3.15153e-08
3.15252e-08
3.15206e-08
3.15183e-08
3.15116e-08
3.15086e-08
3.15039e-08
3.15021e-08
3.14992e-08
3.14983e-08
3.14965e-08
3.14961e-08
3.14951e-08
3.1495e-08
3.14944e-08
3.14944e-08
3.1494e-08
3.1494e-08
3.14938e-08
3.14938e-08
3.14938e-08
3.14938e-08
3.14938e-08
3.14938e-08
3.1494e-08
3.1494e-08
3.14944e-08
3.14944e-08
3.1495e-08
3.14951e-08
3.14961e-08
3.14965e-08
3.14983e-08
3.14992e-08
3.15021e-08
3.15039e-08
3.15086e-08
3.15116e-08
3.15183e-08
3.15206e-08
3.15252e-08
3.15152e-08
3.14933e-08
3.14394e-08
3.13372e-08
3.12242e-08
3.08088e-08
3.09197e-08
3.10175e-08
3.1069e-08
3.10892e-08
3.10982e-08
3.1093e-08
3.10903e-08
3.10833e-08
3.10802e-08
3.10754e-08
3.10735e-08
3.10705e-08
3.10695e-08
3.10677e-08
3.10673e-08
3.10662e-08
3.10661e-08
3.10655e-08
3.10655e-08
3.10651e-08
3.10651e-08
3.10649e-08
3.10649e-08
3.10648e-08
3.10648e-08
3.10649e-08
3.10649e-08
3.10651e-08
3.10651e-08
3.10655e-08
3.10655e-08
3.10661e-08
3.10662e-08
3.10673e-08
3.10677e-08
3.10695e-08
3.10705e-08
3.10735e-08
3.10754e-08
3.10802e-08
3.10833e-08
3.10903e-08
3.1093e-08
3.10981e-08
3.10892e-08
3.1069e-08
3.10175e-08
3.09197e-08
3.08088e-08
3.03934e-08
3.0502e-08
3.05955e-08
3.06445e-08
3.0663e-08
3.0671e-08
3.06652e-08
3.06621e-08
3.06549e-08
3.06515e-08
3.06466e-08
3.06445e-08
3.06415e-08
3.06404e-08
3.06386e-08
3.06382e-08
3.0637e-08
3.06369e-08
3.06363e-08
3.06363e-08
3.06359e-08
3.06359e-08
3.06357e-08
3.06357e-08
3.06356e-08
3.06356e-08
3.06357e-08
3.06357e-08
3.06359e-08
3.06359e-08
3.06363e-08
3.06363e-08
3.06369e-08
3.0637e-08
3.06382e-08
3.06386e-08
3.06404e-08
3.06415e-08
3.06445e-08
3.06466e-08
3.06515e-08
3.06549e-08
3.06621e-08
3.06652e-08
3.06709e-08
3.0663e-08
3.06445e-08
3.05955e-08
3.0502e-08
3.03934e-08
2.99772e-08
3.00834e-08
3.01726e-08
3.02192e-08
3.0236e-08
3.02428e-08
3.02365e-08
3.02329e-08
3.02255e-08
3.02219e-08
3.02168e-08
3.02146e-08
3.02115e-08
3.02104e-08
3.02085e-08
3.0208e-08
3.02069e-08
3.02068e-08
3.02061e-08
3.02061e-08
3.02057e-08
3.02057e-08
3.02055e-08
3.02055e-08
3.02054e-08
3.02054e-08
3.02055e-08
3.02055e-08
3.02057e-08
3.02057e-08
3.02061e-08
3.02061e-08
3.02068e-08
3.02069e-08
3.0208e-08
3.02085e-08
3.02104e-08
3.02115e-08
3.02146e-08
3.02168e-08
3.02219e-08
3.02254e-08
3.02329e-08
3.02364e-08
3.02428e-08
3.02359e-08
3.02191e-08
3.01725e-08
3.00834e-08
2.99772e-08
2.95597e-08
2.96632e-08
2.97481e-08
2.97923e-08
2.98073e-08
2.98131e-08
2.98061e-08
2.98021e-08
2.97944e-08
2.97906e-08
2.97854e-08
2.97831e-08
2.97799e-08
2.97787e-08
2.97768e-08
2.97763e-08
2.97751e-08
2.9775e-08
2.97743e-08
2.97743e-08
2.97739e-08
2.97739e-08
2.97737e-08
2.97737e-08
2.97736e-08
2.97736e-08
2.97737e-08
2.97737e-08
2.97739e-08
2.97739e-08
2.97743e-08
2.97743e-08
2.9775e-08
2.97751e-08
2.97763e-08
2.97768e-08
2.97787e-08
2.97799e-08
2.97831e-08
2.97854e-08
2.97906e-08
2.97944e-08
2.98021e-08
2.98061e-08
2.98131e-08
2.98073e-08
2.97922e-08
2.97481e-08
2.96632e-08
2.95597e-08
2.91402e-08
2.92409e-08
2.93215e-08
2.93633e-08
2.93765e-08
2.93812e-08
2.93735e-08
2.93691e-08
2.93611e-08
2.93571e-08
2.93517e-08
2.93493e-08
2.9346e-08
2.93448e-08
2.93428e-08
2.93423e-08
2.93411e-08
2.9341e-08
2.93403e-08
2.93402e-08
2.93398e-08
2.93398e-08
2.93396e-08
2.93396e-08
2.93395e-08
2.93395e-08
2.93396e-08
2.93396e-08
2.93398e-08
2.93398e-08
2.93402e-08
2.93403e-08
2.9341e-08
2.93411e-08
2.93423e-08
2.93428e-08
2.93448e-08
2.9346e-08
2.93493e-08
2.93517e-08
2.9357e-08
2.93611e-08
2.9369e-08
2.93735e-08
2.93811e-08
2.93765e-08
2.93632e-08
2.93214e-08
2.92408e-08
2.91402e-08
2.87182e-08
2.88158e-08
2.88922e-08
2.89316e-08
2.8943e-08
2.89465e-08
2.89382e-08
2.89333e-08
2.8925e-08
2.89208e-08
2.89153e-08
2.89128e-08
2.89094e-08
2.89081e-08
2.89061e-08
2.89055e-08
2.89043e-08
2.89042e-08
2.89035e-08
2.89034e-08
2.8903e-08
2.8903e-08
2.89027e-08
2.89028e-08
2.89027e-08
2.89027e-08
2.89028e-08
2.89027e-08
2.8903e-08
2.8903e-08
2.89034e-08
2.89035e-08
2.89042e-08
2.89043e-08
2.89055e-08
2.89061e-08
2.89081e-08
2.89094e-08
2.89128e-08
2.89153e-08
2.89208e-08
2.8925e-08
2.89332e-08
2.89382e-08
2.89465e-08
2.89429e-08
2.89316e-08
2.88921e-08
2.88158e-08
2.87181e-08
2.82931e-08
2.83876e-08
2.84597e-08
2.84968e-08
2.85062e-08
2.85086e-08
2.84996e-08
2.84942e-08
2.84857e-08
2.84812e-08
2.84756e-08
2.84729e-08
2.84695e-08
2.84681e-08
2.84661e-08
2.84655e-08
2.84643e-08
2.84641e-08
2.84633e-08
2.84633e-08
2.84629e-08
2.84629e-08
2.84626e-08
2.84626e-08
2.84626e-08
2.84626e-08
2.84626e-08
2.84626e-08
2.84628e-08
2.84629e-08
2.84633e-08
2.84633e-08
2.84641e-08
2.84643e-08
2.84655e-08
2.84661e-08
2.84681e-08
2.84695e-08
2.84729e-08
2.84756e-08
2.84812e-08
2.84857e-08
2.84942e-08
2.84996e-08
2.85086e-08
2.85062e-08
2.84968e-08
2.84597e-08
2.83875e-08
2.82931e-08
2.78646e-08
2.79557e-08
2.80236e-08
2.80583e-08
2.80658e-08
2.8067e-08
2.80573e-08
2.80514e-08
2.80426e-08
2.80379e-08
2.80321e-08
2.80294e-08
2.80258e-08
2.80244e-08
2.80223e-08
2.80217e-08
2.80204e-08
2.80202e-08
2.80195e-08
2.80194e-08
2.8019e-08
2.8019e-08
2.80187e-08
2.80188e-08
2.80187e-08
2.80187e-08
2.80188e-08
2.80187e-08
2.8019e-08
2.8019e-08
2.80194e-08
2.80195e-08
2.80202e-08
2.80204e-08
2.80217e-08
2.80223e-08
2.80244e-08
2.80258e-08
2.80294e-08
2.80321e-08
2.80379e-08
2.80426e-08
2.80514e-08
2.80573e-08
2.8067e-08
2.80658e-08
2.80583e-08
2.80235e-08
2.79557e-08
2.78645e-08
2.7432e-08
2.75198e-08
2.75834e-08
2.76158e-08
2.76213e-08
2.76212e-08
2.76108e-08
2.76045e-08
2.75954e-08
2.75904e-08
2.75845e-08
2.75816e-08
2.7578e-08
2.75765e-08
2.75744e-08
2.75737e-08
2.75725e-08
2.75722e-08
2.75715e-08
2.75714e-08
2.7571e-08
2.7571e-08
2.75707e-08
2.75707e-08
2.75707e-08
2.75707e-08
2.75707e-08
2.75707e-08
2.7571e-08
2.7571e-08
2.75714e-08
2.75715e-08
2.75722e-08
2.75725e-08
2.75737e-08
2.75744e-08
2.75765e-08
2.7578e-08
2.75816e-08
2.75845e-08
2.75904e-08
2.75954e-08
2.76045e-08
2.76108e-08
2.76212e-08
2.76213e-08
2.76158e-08
2.75833e-08
2.75198e-08
2.74319e-08
2.6995e-08
2.70795e-08
2.71387e-08
2.71688e-08
2.71723e-08
2.7171e-08
2.71598e-08
2.7153e-08
2.71436e-08
2.71384e-08
2.71323e-08
2.71293e-08
2.71257e-08
2.71241e-08
2.71219e-08
2.71212e-08
2.71199e-08
2.71197e-08
2.71189e-08
2.71188e-08
2.71184e-08
2.71184e-08
2.71181e-08
2.71181e-08
2.71181e-08
2.71181e-08
2.71181e-08
2.71181e-08
2.71184e-08
2.71184e-08
2.71188e-08
2.71189e-08
2.71197e-08
2.71199e-08
2.71212e-08
2.71219e-08
2.71241e-08
2.71257e-08
2.71293e-08
2.71323e-08
2.71384e-08
2.71436e-08
2.7153e-08
2.71598e-08
2.71709e-08
2.71723e-08
2.71688e-08
2.71387e-08
2.70794e-08
2.6995e-08
2.65532e-08
2.66342e-08
2.66893e-08
2.67169e-08
2.67184e-08
2.67158e-08
2.67039e-08
2.66965e-08
2.66869e-08
2.66814e-08
2.66752e-08
2.66721e-08
2.66683e-08
2.66667e-08
2.66645e-08
2.66638e-08
2.66624e-08
2.66622e-08
2.66614e-08
2.66613e-08
2.66609e-08
2.66608e-08
2.66606e-08
2.66606e-08
2.66605e-08
2.66605e-08
2.66606e-08
2.66606e-08
2.66608e-08
2.66609e-08
2.66613e-08
2.66614e-08
2.66622e-08
2.66624e-08
2.66638e-08
2.66645e-08
2.66667e-08
2.66683e-08
2.66721e-08
2.66752e-08
2.66814e-08
2.66868e-08
2.66965e-08
2.67039e-08
2.67157e-08
2.67184e-08
2.67169e-08
2.66893e-08
2.66342e-08
2.65532e-08
2.61063e-08
2.61839e-08
2.62347e-08
2.62598e-08
2.62593e-08
2.62553e-08
2.62427e-08
2.62348e-08
2.62248e-08
2.62192e-08
2.62128e-08
2.62096e-08
2.62057e-08
2.62041e-08
2.62018e-08
2.6201e-08
2.61997e-08
2.61994e-08
2.61986e-08
2.61985e-08
2.61981e-08
2.6198e-08
2.61978e-08
2.61978e-08
2.61977e-08
2.61977e-08
2.61978e-08
2.61978e-08
2.6198e-08
2.6198e-08
2.61985e-08
2.61986e-08
2.61994e-08
2.61997e-08
2.6201e-08
2.62018e-08
2.62041e-08
2.62057e-08
2.62096e-08
2.62128e-08
2.62192e-08
2.62248e-08
2.62348e-08
2.62426e-08
2.62553e-08
2.62593e-08
2.62598e-08
2.62347e-08
2.61839e-08
2.61062e-08
2.56538e-08
2.57282e-08
2.57745e-08
2.57972e-08
2.57946e-08
2.57892e-08
2.57758e-08
2.57675e-08
2.57572e-08
2.57513e-08
2.57448e-08
2.57414e-08
2.57375e-08
2.57358e-08
2.57335e-08
2.57327e-08
2.57313e-08
2.5731e-08
2.57302e-08
2.57301e-08
2.57296e-08
2.57296e-08
2.57293e-08
2.57293e-08
2.57293e-08
2.57293e-08
2.57293e-08
2.57293e-08
2.57296e-08
2.57296e-08
2.57301e-08
2.57302e-08
2.5731e-08
2.57313e-08
2.57327e-08
2.57335e-08
2.57358e-08
2.57375e-08
2.57414e-08
2.57448e-08
2.57513e-08
2.57572e-08
2.57674e-08
2.57758e-08
2.57892e-08
2.57946e-08
2.57971e-08
2.57745e-08
2.57281e-08
2.56537e-08
2.51954e-08
2.52666e-08
2.53084e-08
2.53286e-08
2.5324e-08
2.53172e-08
2.53031e-08
2.52942e-08
2.52836e-08
2.52775e-08
2.52708e-08
2.52673e-08
2.52633e-08
2.52616e-08
2.52592e-08
2.52584e-08
2.5257e-08
2.52567e-08
2.52558e-08
2.52557e-08
2.52553e-08
2.52552e-08
2.5255e-08
2.5255e-08
2.52549e-08
2.52549e-08
2.5255e-08
2.5255e-08
2.52552e-08
2.52552e-08
2.52557e-08
2.52558e-08
2.52567e-08
2.5257e-08
2.52584e-08
2.52592e-08
2.52616e-08
2.52633e-08
2.52673e-08
2.52708e-08
2.52775e-08
2.52836e-08
2.52941e-08
2.5303e-08
2.53172e-08
2.5324e-08
2.53285e-08
2.53083e-08
2.52665e-08
2.51954e-08
2.47309e-08
2.47989e-08
2.4836e-08
2.48538e-08
2.48472e-08
2.48389e-08
2.4824e-08
2.48146e-08
2.48037e-08
2.47974e-08
2.47906e-08
2.4787e-08
2.47829e-08
2.47811e-08
2.47787e-08
2.47778e-08
2.47764e-08
2.47761e-08
2.47752e-08
2.47751e-08
2.47746e-08
2.47746e-08
2.47743e-08
2.47743e-08
2.47742e-08
2.47742e-08
2.47743e-08
2.47743e-08
2.47746e-08
2.47746e-08
2.47751e-08
2.47752e-08
2.47761e-08
2.47764e-08
2.47778e-08
2.47787e-08
2.47811e-08
2.47829e-08
2.4787e-08
2.47906e-08
2.47974e-08
2.48037e-08
2.48146e-08
2.4824e-08
2.48388e-08
2.48472e-08
2.48537e-08
2.48359e-08
2.47988e-08
2.47309e-08
2.42599e-08
2.43246e-08
2.4357e-08
2.43724e-08
2.43638e-08
2.43539e-08
2.43383e-08
2.43284e-08
2.43172e-08
2.43106e-08
2.43037e-08
2.43e-08
2.42959e-08
2.4294e-08
2.42915e-08
2.42906e-08
2.42892e-08
2.42889e-08
2.4288e-08
2.42879e-08
2.42874e-08
2.42874e-08
2.42871e-08
2.42871e-08
2.4287e-08
2.4287e-08
2.42871e-08
2.42871e-08
2.42873e-08
2.42874e-08
2.42879e-08
2.4288e-08
2.42888e-08
2.42892e-08
2.42906e-08
2.42915e-08
2.4294e-08
2.42959e-08
2.43e-08
2.43037e-08
2.43106e-08
2.43172e-08
2.43283e-08
2.43382e-08
2.43539e-08
2.43637e-08
2.43723e-08
2.43569e-08
2.43245e-08
2.42598e-08
2.37982e-08
2.38603e-08
2.38879e-08
2.39012e-08
2.38905e-08
2.38792e-08
2.38628e-08
2.38524e-08
2.3841e-08
2.38342e-08
2.38271e-08
2.38233e-08
2.38191e-08
2.38171e-08
2.38146e-08
2.38137e-08
2.38123e-08
2.38119e-08
2.3811e-08
2.38109e-08
2.38104e-08
2.38104e-08
2.38101e-08
2.38101e-08
2.381e-08
2.381e-08
2.38101e-08
2.38101e-08
2.38104e-08
2.38104e-08
2.38109e-08
2.3811e-08
2.38119e-08
2.38122e-08
2.38137e-08
2.38146e-08
2.38171e-08
2.38191e-08
2.38233e-08
2.38271e-08
2.38342e-08
2.3841e-08
2.38524e-08
2.38628e-08
2.38792e-08
2.38905e-08
2.39011e-08
2.38879e-08
2.38602e-08
2.37981e-08
2.33242e-08
2.3384e-08
2.34054e-08
2.34156e-08
2.34018e-08
2.33881e-08
2.33703e-08
2.33591e-08
2.3347e-08
2.33399e-08
2.33325e-08
2.33285e-08
2.33241e-08
2.3322e-08
2.33194e-08
2.33185e-08
2.3317e-08
2.33166e-08
2.33157e-08
2.33156e-08
2.3315e-08
2.3315e-08
2.33147e-08
2.33147e-08
2.33146e-08
2.33146e-08
2.33147e-08
2.33147e-08
2.3315e-08
2.3315e-08
2.33156e-08
2.33157e-08
2.33166e-08
2.3317e-08
2.33185e-08
2.33194e-08
2.3322e-08
2.33241e-08
2.33285e-08
2.33325e-08
2.33398e-08
2.3347e-08
2.3359e-08
2.33703e-08
2.3388e-08
2.34017e-08
2.34155e-08
2.34054e-08
2.33839e-08
2.33241e-08
2.28343e-08
2.28909e-08
2.29075e-08
2.29152e-08
2.28994e-08
2.2884e-08
2.28654e-08
2.28537e-08
2.28414e-08
2.2834e-08
2.28265e-08
2.28224e-08
2.28179e-08
2.28158e-08
2.28132e-08
2.28122e-08
2.28106e-08
2.28103e-08
2.28094e-08
2.28092e-08
2.28087e-08
2.28086e-08
2.28084e-08
2.28084e-08
2.28083e-08
2.28083e-08
2.28084e-08
2.28084e-08
2.28086e-08
2.28087e-08
2.28092e-08
2.28093e-08
2.28103e-08
2.28106e-08
2.28122e-08
2.28132e-08
2.28158e-08
2.28179e-08
2.28224e-08
2.28265e-08
2.28339e-08
2.28414e-08
2.28536e-08
2.28654e-08
2.28839e-08
2.28994e-08
2.29152e-08
2.29075e-08
2.28909e-08
2.28343e-08
2.23375e-08
2.23908e-08
2.24026e-08
2.24079e-08
2.239e-08
2.23727e-08
2.23535e-08
2.23412e-08
2.23287e-08
2.2321e-08
2.23134e-08
2.23092e-08
2.23047e-08
2.23025e-08
2.22999e-08
2.22989e-08
2.22973e-08
2.22969e-08
2.2296e-08
2.22958e-08
2.22953e-08
2.22952e-08
2.2295e-08
2.2295e-08
2.22949e-08
2.22949e-08
2.2295e-08
2.2295e-08
2.22952e-08
2.22953e-08
2.22958e-08
2.2296e-08
2.22969e-08
2.22973e-08
2.22989e-08
2.22999e-08
2.23025e-08
2.23047e-08
2.23092e-08
2.23134e-08
2.2321e-08
2.23286e-08
2.23412e-08
2.23534e-08
2.23727e-08
2.239e-08
2.24078e-08
2.24025e-08
2.23908e-08
2.23374e-08
2.18334e-08
2.18834e-08
2.18905e-08
2.18932e-08
2.18734e-08
2.18542e-08
2.18342e-08
2.18214e-08
2.18087e-08
2.18008e-08
2.17931e-08
2.17888e-08
2.17842e-08
2.1782e-08
2.17793e-08
2.17783e-08
2.17767e-08
2.17763e-08
2.17754e-08
2.17752e-08
2.17747e-08
2.17746e-08
2.17743e-08
2.17743e-08
2.17742e-08
2.17742e-08
2.17743e-08
2.17743e-08
2.17746e-08
2.17747e-08
2.17752e-08
2.17753e-08
2.17763e-08
2.17767e-08
2.17783e-08
2.17793e-08
2.1782e-08
2.17842e-08
2.17888e-08
2.17931e-08
2.18008e-08
2.18086e-08
2.18214e-08
2.18342e-08
2.18541e-08
2.18734e-08
2.18932e-08
2.18904e-08
2.18834e-08
2.18334e-08
2.13219e-08
2.13685e-08
2.13708e-08
2.13711e-08
2.13493e-08
2.1328e-08
2.13074e-08
2.12941e-08
2.12812e-08
2.12731e-08
2.12653e-08
2.12609e-08
2.12563e-08
2.1254e-08
2.12513e-08
2.12502e-08
2.12486e-08
2.12482e-08
2.12473e-08
2.12471e-08
2.12466e-08
2.12465e-08
2.12462e-08
2.12462e-08
2.12461e-08
2.12461e-08
2.12462e-08
2.12462e-08
2.12465e-08
2.12466e-08
2.12471e-08
2.12473e-08
2.12482e-08
2.12486e-08
2.12502e-08
2.12513e-08
2.1254e-08
2.12563e-08
2.12609e-08
2.12653e-08
2.12731e-08
2.12811e-08
2.12941e-08
2.13074e-08
2.1328e-08
2.13493e-08
2.1371e-08
2.13708e-08
2.13684e-08
2.13219e-08
2.082e-08
2.08636e-08
2.08613e-08
2.08592e-08
2.08356e-08
2.08121e-08
2.07909e-08
2.07771e-08
2.07639e-08
2.07557e-08
2.07478e-08
2.07433e-08
2.07386e-08
2.07363e-08
2.07336e-08
2.07325e-08
2.07309e-08
2.07304e-08
2.07295e-08
2.07293e-08
2.07288e-08
2.07287e-08
2.07284e-08
2.07284e-08
2.07283e-08
2.07283e-08
2.07284e-08
2.07284e-08
2.07287e-08
2.07288e-08
2.07293e-08
2.07295e-08
2.07304e-08
2.07309e-08
2.07325e-08
2.07336e-08
2.07363e-08
2.07386e-08
2.07433e-08
2.07478e-08
2.07556e-08
2.07639e-08
2.07771e-08
2.07908e-08
2.08121e-08
2.08356e-08
2.08592e-08
2.08613e-08
2.08635e-08
2.08199e-08
2.03117e-08
2.03524e-08
2.03455e-08
2.03412e-08
2.03157e-08
2.02898e-08
2.0268e-08
2.02535e-08
2.02394e-08
2.02306e-08
2.02222e-08
2.02175e-08
2.02125e-08
2.02101e-08
2.02072e-08
2.02061e-08
2.02044e-08
2.02039e-08
2.02029e-08
2.02027e-08
2.02022e-08
2.02021e-08
2.02018e-08
2.02018e-08
2.02017e-08
2.02017e-08
2.02018e-08
2.02018e-08
2.02021e-08
2.02021e-08
2.02027e-08
2.02029e-08
2.02039e-08
2.02044e-08
2.02061e-08
2.02072e-08
2.02101e-08
2.02125e-08
2.02174e-08
2.02222e-08
2.02306e-08
2.02394e-08
2.02535e-08
2.02679e-08
2.02898e-08
2.03157e-08
2.03411e-08
2.03455e-08
2.03523e-08
2.03116e-08
1.97822e-08
1.982e-08
1.98082e-08
1.98011e-08
1.97734e-08
1.97443e-08
1.97216e-08
1.97065e-08
1.9692e-08
1.96829e-08
1.96744e-08
1.96695e-08
1.96644e-08
1.96619e-08
1.9659e-08
1.96578e-08
1.96561e-08
1.96556e-08
1.96546e-08
1.96544e-08
1.96538e-08
1.96538e-08
1.96535e-08
1.96535e-08
1.96534e-08
1.96534e-08
1.96535e-08
1.96535e-08
1.96538e-08
1.96538e-08
1.96544e-08
1.96546e-08
1.96556e-08
1.96561e-08
1.96578e-08
1.9659e-08
1.96619e-08
1.96644e-08
1.96695e-08
1.96744e-08
1.96829e-08
1.9692e-08
1.97065e-08
1.97216e-08
1.97443e-08
1.97734e-08
1.9801e-08
1.98082e-08
1.98199e-08
1.97822e-08
1.92434e-08
1.92775e-08
1.92614e-08
1.92517e-08
1.92226e-08
1.92086e-08
1.91854e-08
1.91699e-08
1.91552e-08
1.91459e-08
1.91373e-08
1.91323e-08
1.91272e-08
1.91247e-08
1.91217e-08
1.91205e-08
1.91188e-08
1.91183e-08
1.91173e-08
1.91171e-08
1.91165e-08
1.91164e-08
1.91161e-08
1.91161e-08
1.9116e-08
1.9116e-08
1.91161e-08
1.91161e-08
1.91164e-08
1.91165e-08
1.91171e-08
1.91172e-08
1.91183e-08
1.91188e-08
1.91205e-08
1.91217e-08
1.91247e-08
1.91272e-08
1.91323e-08
1.91373e-08
1.91459e-08
1.91552e-08
1.91698e-08
1.91854e-08
1.92085e-08
1.92226e-08
1.92517e-08
1.92614e-08
1.92774e-08
1.92434e-08
1.8715e-08
1.87458e-08
1.87256e-08
1.87136e-08
1.86829e-08
1.86669e-08
1.86433e-08
1.86273e-08
1.86125e-08
1.8603e-08
1.85943e-08
1.85892e-08
1.85841e-08
1.85816e-08
1.85786e-08
1.85774e-08
1.85756e-08
1.85751e-08
1.85741e-08
1.85739e-08
1.85733e-08
1.85733e-08
1.85729e-08
1.85729e-08
1.85728e-08
1.85728e-08
1.85729e-08
1.85729e-08
1.85732e-08
1.85733e-08
1.85739e-08
1.85741e-08
1.85751e-08
1.85756e-08
1.85774e-08
1.85786e-08
1.85816e-08
1.85841e-08
1.85892e-08
1.85943e-08
1.8603e-08
1.86124e-08
1.86273e-08
1.86432e-08
1.86669e-08
1.86828e-08
1.87135e-08
1.87255e-08
1.87458e-08
1.8715e-08
1.81777e-08
1.82067e-08
1.81815e-08
1.81662e-08
1.81322e-08
1.81136e-08
1.80886e-08
1.80717e-08
1.80563e-08
1.80464e-08
1.80374e-08
1.80322e-08
1.80269e-08
1.80243e-08
1.80212e-08
1.80199e-08
1.80181e-08
1.80176e-08
1.80165e-08
1.80163e-08
1.80157e-08
1.80157e-08
1.80153e-08
1.80153e-08
1.80152e-08
1.80152e-08
1.80153e-08
1.80153e-08
1.80157e-08
1.80157e-08
1.80163e-08
1.80165e-08
1.80176e-08
1.80181e-08
1.80199e-08
1.80212e-08
1.80243e-08
1.80269e-08
1.80322e-08
1.80374e-08
1.80464e-08
1.80562e-08
1.80717e-08
1.80886e-08
1.81135e-08
1.81321e-08
1.81661e-08
1.81815e-08
1.82066e-08
1.81776e-08
1.76376e-08
1.76633e-08
1.76342e-08
1.76165e-08
1.75808e-08
1.75606e-08
1.75351e-08
1.75178e-08
1.75022e-08
1.74922e-08
1.74832e-08
1.74779e-08
1.74726e-08
1.74699e-08
1.74668e-08
1.74655e-08
1.74637e-08
1.74632e-08
1.74621e-08
1.74619e-08
1.74613e-08
1.74613e-08
1.74609e-08
1.74609e-08
1.74608e-08
1.74608e-08
1.74609e-08
1.74609e-08
1.74613e-08
1.74613e-08
1.74619e-08
1.74621e-08
1.74632e-08
1.74637e-08
1.74656e-08
1.74668e-08
1.74699e-08
1.74726e-08
1.74779e-08
1.74832e-08
1.74922e-08
1.75022e-08
1.75178e-08
1.75351e-08
1.75605e-08
1.75807e-08
1.76164e-08
1.76341e-08
1.76632e-08
1.76375e-08
1.70922e-08
1.71146e-08
1.70818e-08
1.70617e-08
1.70242e-08
1.70026e-08
1.69767e-08
1.69591e-08
1.69433e-08
1.69332e-08
1.69241e-08
1.69188e-08
1.69134e-08
1.69107e-08
1.69076e-08
1.69063e-08
1.69045e-08
1.6904e-08
1.69029e-08
1.69027e-08
1.69021e-08
1.6902e-08
1.69017e-08
1.69017e-08
1.69016e-08
1.69016e-08
1.69017e-08
1.69017e-08
1.6902e-08
1.69021e-08
1.69027e-08
1.69029e-08
1.6904e-08
1.69045e-08
1.69064e-08
1.69076e-08
1.69107e-08
1.69134e-08
1.69187e-08
1.69241e-08
1.69332e-08
1.69433e-08
1.6959e-08
1.69767e-08
1.70026e-08
1.70242e-08
1.70617e-08
1.70818e-08
1.71145e-08
1.70921e-08
1.63394e-08
1.63392e-08
1.63386e-08
1.63385e-08
1.63382e-08
1.63382e-08
1.63381e-08
1.63381e-08
1.63382e-08
1.63382e-08
1.63385e-08
1.63386e-08
1.63392e-08
1.63394e-08
1.63405e-08
1.6341e-08
1.63428e-08
1.63441e-08
1.63472e-08
1.635e-08
1.63553e-08
1.63607e-08
1.63698e-08
1.638e-08
1.63959e-08
1.64138e-08
1.64401e-08
1.64631e-08
1.65023e-08
1.65247e-08
1.6561e-08
1.6542e-08
1.57713e-08
1.57713e-08
1.57719e-08
1.57721e-08
1.57732e-08
1.57737e-08
1.57756e-08
1.57769e-08
1.578e-08
1.57827e-08
1.57881e-08
1.57935e-08
1.58026e-08
1.58129e-08
1.58288e-08
1.58471e-08
1.58738e-08
1.58979e-08
1.59389e-08
1.59634e-08
1.60033e-08
1.59876e-08
1.52323e-08
1.52427e-08
1.52586e-08
1.52772e-08
1.53042e-08
1.53293e-08
1.5372e-08
1.53986e-08
1.54419e-08
1.54294e-08
)
;

boundaryField
{
    fuel
    {
        type            fixedValue;
        value           nonuniform 0();
    }
    wall
    {
        type            zeroGradient;
    }
    outlet
    {
        type            zeroGradient;
    }
    frontAndBack
    {
        type            empty;
    }
    procBoundary0to1
    {
        type            processor;
        value           nonuniform List<scalar> 
50
(
3.51408e-08
3.5277e-08
3.54183e-08
3.54958e-08
3.55306e-08
3.55483e-08
3.55475e-08
3.55484e-08
3.55431e-08
3.55421e-08
3.55382e-08
3.55375e-08
3.55349e-08
3.55346e-08
3.55331e-08
3.5533e-08
3.55321e-08
3.55322e-08
3.55316e-08
3.55317e-08
3.55314e-08
3.55314e-08
3.55312e-08
3.55313e-08
3.55312e-08
3.55312e-08
3.55313e-08
3.55312e-08
3.55314e-08
3.55314e-08
3.55317e-08
3.55316e-08
3.55322e-08
3.55321e-08
3.5533e-08
3.55331e-08
3.55346e-08
3.55349e-08
3.55374e-08
3.55382e-08
3.55421e-08
3.55431e-08
3.55484e-08
3.55474e-08
3.55483e-08
3.55306e-08
3.54958e-08
3.54183e-08
3.5277e-08
3.51408e-08
)
;
    }
    procBoundary0to2
    {
        type            processor;
        value           nonuniform List<scalar> 
53
(
1.6542e-08
1.65611e-08
1.65247e-08
1.65023e-08
1.64631e-08
1.64402e-08
1.64139e-08
1.63959e-08
1.63801e-08
1.63698e-08
1.63607e-08
1.63553e-08
1.63499e-08
1.63472e-08
1.63441e-08
1.63428e-08
1.6341e-08
1.63405e-08
1.63405e-08
1.57721e-08
1.57719e-08
1.57713e-08
1.57713e-08
1.57709e-08
1.57709e-08
1.57708e-08
1.57708e-08
1.57709e-08
1.57709e-08
1.57709e-08
1.52009e-08
1.5201e-08
1.52016e-08
1.52018e-08
1.52029e-08
1.52034e-08
1.52053e-08
1.52065e-08
1.52097e-08
1.52124e-08
1.52177e-08
1.52232e-08
1.52232e-08
1.46596e-08
1.46701e-08
1.4686e-08
1.47048e-08
1.47321e-08
1.4758e-08
1.48024e-08
1.48309e-08
1.48775e-08
1.48683e-08
)
;
    }
}


// ************************************************************************* //
