/*--------------------------------*- C++ -*----------------------------------*\
| =========                 |                                                 |
| \\      /  F ield         | OpenFOAM: The Open Source CFD Toolbox           |
|  \\    /   O peration     | Version:  dev                                   |
|   \\  /    A nd           | Web:      www.OpenFOAM.org                      |
|    \\/     M anipulation  |                                                 |
\*---------------------------------------------------------------------------*/
FoamFile
{
    version     2.0;
    format      ascii;
    class       volScalarField;
    location    "0.08";
    object      CH2OH;
}
// * * * * * * * * * * * * * * * * * * * * * * * * * * * * * * * * * * * * * //

dimensions      [0 0 0 0 0 0 0];

internalField   nonuniform List<scalar> 
2014
(
1.95137e-08
1.95852e-08
1.96582e-08
1.96976e-08
1.97149e-08
1.97238e-08
1.9723e-08
1.97234e-08
1.97205e-08
1.972e-08
1.97179e-08
1.97175e-08
1.97162e-08
1.97161e-08
1.97152e-08
1.97152e-08
1.97147e-08
1.97148e-08
1.97145e-08
1.97146e-08
1.97144e-08
1.97144e-08
1.97143e-08
1.97143e-08
1.97143e-08
1.97143e-08
1.97143e-08
1.97143e-08
1.97144e-08
1.97144e-08
1.97146e-08
1.97145e-08
1.97148e-08
1.97147e-08
1.97152e-08
1.97152e-08
1.97161e-08
1.97162e-08
1.97175e-08
1.97179e-08
1.972e-08
1.97205e-08
1.97234e-08
1.97229e-08
1.97238e-08
1.97149e-08
1.96976e-08
1.96582e-08
1.95852e-08
1.95137e-08
1.92495e-08
1.93192e-08
1.93899e-08
1.94279e-08
1.94446e-08
1.94531e-08
1.94521e-08
1.94523e-08
1.94494e-08
1.94487e-08
1.94466e-08
1.94462e-08
1.94449e-08
1.94447e-08
1.94439e-08
1.94439e-08
1.94433e-08
1.94434e-08
1.94431e-08
1.94432e-08
1.9443e-08
1.9443e-08
1.94429e-08
1.94429e-08
1.94429e-08
1.94429e-08
1.94429e-08
1.94429e-08
1.9443e-08
1.9443e-08
1.94432e-08
1.94431e-08
1.94434e-08
1.94433e-08
1.94439e-08
1.94439e-08
1.94447e-08
1.94449e-08
1.94462e-08
1.94466e-08
1.94487e-08
1.94494e-08
1.94523e-08
1.9452e-08
1.94531e-08
1.94446e-08
1.94279e-08
1.93899e-08
1.93192e-08
1.92495e-08
1.89931e-08
1.90613e-08
1.91296e-08
1.91663e-08
1.91823e-08
1.91904e-08
1.91892e-08
1.91893e-08
1.91863e-08
1.91856e-08
1.91834e-08
1.91829e-08
1.91816e-08
1.91814e-08
1.91805e-08
1.91805e-08
1.918e-08
1.918e-08
1.91797e-08
1.91798e-08
1.91796e-08
1.91796e-08
1.91795e-08
1.91795e-08
1.91795e-08
1.91795e-08
1.91795e-08
1.91795e-08
1.91796e-08
1.91796e-08
1.91798e-08
1.91797e-08
1.918e-08
1.918e-08
1.91805e-08
1.91805e-08
1.91814e-08
1.91816e-08
1.91829e-08
1.91834e-08
1.91856e-08
1.91863e-08
1.91893e-08
1.91892e-08
1.91904e-08
1.91823e-08
1.91663e-08
1.91296e-08
1.90613e-08
1.89931e-08
1.87432e-08
1.88101e-08
1.8876e-08
1.89114e-08
1.89267e-08
1.89343e-08
1.8933e-08
1.89329e-08
1.89298e-08
1.8929e-08
1.89268e-08
1.89263e-08
1.89249e-08
1.89247e-08
1.89238e-08
1.89238e-08
1.89232e-08
1.89233e-08
1.8923e-08
1.8923e-08
1.89228e-08
1.89229e-08
1.89227e-08
1.89228e-08
1.89227e-08
1.89227e-08
1.89228e-08
1.89227e-08
1.89229e-08
1.89228e-08
1.8923e-08
1.8923e-08
1.89233e-08
1.89232e-08
1.89238e-08
1.89238e-08
1.89247e-08
1.89249e-08
1.89263e-08
1.89268e-08
1.8929e-08
1.89298e-08
1.89329e-08
1.8933e-08
1.89343e-08
1.89267e-08
1.89114e-08
1.8876e-08
1.88101e-08
1.87432e-08
1.84987e-08
1.85643e-08
1.8628e-08
1.86619e-08
1.86765e-08
1.86837e-08
1.86822e-08
1.86819e-08
1.86788e-08
1.86778e-08
1.86756e-08
1.8675e-08
1.86736e-08
1.86734e-08
1.86725e-08
1.86724e-08
1.86719e-08
1.86719e-08
1.86716e-08
1.86717e-08
1.86715e-08
1.86715e-08
1.86714e-08
1.86714e-08
1.86714e-08
1.86714e-08
1.86714e-08
1.86714e-08
1.86715e-08
1.86715e-08
1.86717e-08
1.86716e-08
1.86719e-08
1.86719e-08
1.86724e-08
1.86725e-08
1.86734e-08
1.86736e-08
1.8675e-08
1.86756e-08
1.86778e-08
1.86788e-08
1.86819e-08
1.86822e-08
1.86837e-08
1.86765e-08
1.86619e-08
1.8628e-08
1.85643e-08
1.84987e-08
1.82585e-08
1.83229e-08
1.83844e-08
1.8417e-08
1.84308e-08
1.84376e-08
1.84358e-08
1.84354e-08
1.84322e-08
1.84311e-08
1.84289e-08
1.84282e-08
1.84268e-08
1.84265e-08
1.84256e-08
1.84255e-08
1.8425e-08
1.8425e-08
1.84247e-08
1.84247e-08
1.84245e-08
1.84246e-08
1.84244e-08
1.84245e-08
1.84244e-08
1.84244e-08
1.84245e-08
1.84244e-08
1.84246e-08
1.84245e-08
1.84247e-08
1.84247e-08
1.8425e-08
1.8425e-08
1.84255e-08
1.84256e-08
1.84265e-08
1.84268e-08
1.84282e-08
1.84289e-08
1.84311e-08
1.84322e-08
1.84354e-08
1.84358e-08
1.84376e-08
1.84308e-08
1.84169e-08
1.83844e-08
1.83229e-08
1.82585e-08
1.80219e-08
1.80852e-08
1.81444e-08
1.81756e-08
1.81887e-08
1.8195e-08
1.8193e-08
1.81924e-08
1.81891e-08
1.81879e-08
1.81856e-08
1.81849e-08
1.81835e-08
1.81831e-08
1.81822e-08
1.81821e-08
1.81816e-08
1.81816e-08
1.81813e-08
1.81813e-08
1.81811e-08
1.81812e-08
1.8181e-08
1.81811e-08
1.8181e-08
1.8181e-08
1.81811e-08
1.8181e-08
1.81812e-08
1.81811e-08
1.81813e-08
1.81813e-08
1.81816e-08
1.81816e-08
1.81821e-08
1.81822e-08
1.81831e-08
1.81835e-08
1.81849e-08
1.81856e-08
1.81879e-08
1.81891e-08
1.81924e-08
1.8193e-08
1.8195e-08
1.81886e-08
1.81756e-08
1.81443e-08
1.80852e-08
1.80219e-08
1.77881e-08
1.78503e-08
1.79072e-08
1.79371e-08
1.79494e-08
1.79552e-08
1.7953e-08
1.79522e-08
1.79488e-08
1.79476e-08
1.79452e-08
1.79444e-08
1.7943e-08
1.79426e-08
1.79417e-08
1.79416e-08
1.7941e-08
1.7941e-08
1.79407e-08
1.79407e-08
1.79405e-08
1.79406e-08
1.79404e-08
1.79405e-08
1.79404e-08
1.79404e-08
1.79405e-08
1.79404e-08
1.79406e-08
1.79405e-08
1.79407e-08
1.79407e-08
1.7941e-08
1.7941e-08
1.79416e-08
1.79417e-08
1.79426e-08
1.7943e-08
1.79444e-08
1.79452e-08
1.79476e-08
1.79488e-08
1.79522e-08
1.7953e-08
1.79552e-08
1.79494e-08
1.79371e-08
1.79072e-08
1.78503e-08
1.77881e-08
1.75566e-08
1.76177e-08
1.76723e-08
1.77009e-08
1.77123e-08
1.77177e-08
1.77152e-08
1.77142e-08
1.77107e-08
1.77094e-08
1.7707e-08
1.77061e-08
1.77046e-08
1.77042e-08
1.77033e-08
1.77032e-08
1.77026e-08
1.77026e-08
1.77023e-08
1.77023e-08
1.77021e-08
1.77021e-08
1.7702e-08
1.7702e-08
1.7702e-08
1.7702e-08
1.7702e-08
1.7702e-08
1.77021e-08
1.77021e-08
1.77023e-08
1.77023e-08
1.77026e-08
1.77026e-08
1.77032e-08
1.77033e-08
1.77042e-08
1.77046e-08
1.77061e-08
1.7707e-08
1.77094e-08
1.77107e-08
1.77142e-08
1.77152e-08
1.77177e-08
1.77123e-08
1.77008e-08
1.76722e-08
1.76177e-08
1.75565e-08
1.73267e-08
1.73867e-08
1.7439e-08
1.74663e-08
1.74769e-08
1.74818e-08
1.74791e-08
1.74779e-08
1.74743e-08
1.74728e-08
1.74704e-08
1.74695e-08
1.74679e-08
1.74675e-08
1.74666e-08
1.74664e-08
1.74659e-08
1.74658e-08
1.74655e-08
1.74655e-08
1.74653e-08
1.74653e-08
1.74652e-08
1.74652e-08
1.74652e-08
1.74652e-08
1.74652e-08
1.74652e-08
1.74653e-08
1.74653e-08
1.74655e-08
1.74655e-08
1.74658e-08
1.74659e-08
1.74664e-08
1.74666e-08
1.74675e-08
1.74679e-08
1.74695e-08
1.74704e-08
1.74728e-08
1.74743e-08
1.74779e-08
1.74791e-08
1.74818e-08
1.74769e-08
1.74663e-08
1.7439e-08
1.73867e-08
1.73267e-08
1.70981e-08
1.71569e-08
1.72069e-08
1.72329e-08
1.72427e-08
1.72471e-08
1.72441e-08
1.72427e-08
1.7239e-08
1.72374e-08
1.72349e-08
1.72339e-08
1.72324e-08
1.72319e-08
1.7231e-08
1.72308e-08
1.72302e-08
1.72302e-08
1.72299e-08
1.72299e-08
1.72297e-08
1.72297e-08
1.72296e-08
1.72296e-08
1.72295e-08
1.72295e-08
1.72296e-08
1.72296e-08
1.72297e-08
1.72297e-08
1.72299e-08
1.72299e-08
1.72302e-08
1.72302e-08
1.72308e-08
1.7231e-08
1.72319e-08
1.72324e-08
1.72339e-08
1.72349e-08
1.72374e-08
1.7239e-08
1.72427e-08
1.72441e-08
1.72471e-08
1.72427e-08
1.72329e-08
1.72069e-08
1.71569e-08
1.70981e-08
1.68703e-08
1.69278e-08
1.69755e-08
1.70003e-08
1.70092e-08
1.70131e-08
1.70098e-08
1.70082e-08
1.70044e-08
1.70027e-08
1.70001e-08
1.69991e-08
1.69975e-08
1.6997e-08
1.69961e-08
1.69959e-08
1.69953e-08
1.69953e-08
1.69949e-08
1.69949e-08
1.69947e-08
1.69947e-08
1.69946e-08
1.69946e-08
1.69946e-08
1.69946e-08
1.69946e-08
1.69946e-08
1.69947e-08
1.69947e-08
1.69949e-08
1.69949e-08
1.69953e-08
1.69953e-08
1.69959e-08
1.69961e-08
1.6997e-08
1.69975e-08
1.69991e-08
1.70001e-08
1.70027e-08
1.70044e-08
1.70082e-08
1.70098e-08
1.70131e-08
1.70092e-08
1.70003e-08
1.69755e-08
1.69278e-08
1.68703e-08
1.6643e-08
1.66991e-08
1.67446e-08
1.67681e-08
1.67762e-08
1.67795e-08
1.67759e-08
1.6774e-08
1.67701e-08
1.67683e-08
1.67657e-08
1.67646e-08
1.6763e-08
1.67625e-08
1.67615e-08
1.67613e-08
1.67607e-08
1.67607e-08
1.67603e-08
1.67603e-08
1.67601e-08
1.67601e-08
1.676e-08
1.676e-08
1.676e-08
1.676e-08
1.676e-08
1.676e-08
1.67601e-08
1.67601e-08
1.67603e-08
1.67603e-08
1.67607e-08
1.67607e-08
1.67613e-08
1.67615e-08
1.67625e-08
1.6763e-08
1.67646e-08
1.67657e-08
1.67683e-08
1.67701e-08
1.6774e-08
1.67759e-08
1.67794e-08
1.67761e-08
1.67681e-08
1.67445e-08
1.66991e-08
1.6643e-08
1.64158e-08
1.64703e-08
1.65136e-08
1.65359e-08
1.65431e-08
1.65458e-08
1.6542e-08
1.65399e-08
1.65358e-08
1.65339e-08
1.65312e-08
1.65301e-08
1.65285e-08
1.65279e-08
1.65269e-08
1.65267e-08
1.65261e-08
1.6526e-08
1.65257e-08
1.65257e-08
1.65255e-08
1.65255e-08
1.65253e-08
1.65254e-08
1.65253e-08
1.65253e-08
1.65254e-08
1.65253e-08
1.65255e-08
1.65254e-08
1.65257e-08
1.65257e-08
1.6526e-08
1.65261e-08
1.65267e-08
1.65269e-08
1.65279e-08
1.65285e-08
1.65301e-08
1.65312e-08
1.65339e-08
1.65358e-08
1.65399e-08
1.65419e-08
1.65458e-08
1.65431e-08
1.65359e-08
1.65136e-08
1.64703e-08
1.64158e-08
1.61884e-08
1.62412e-08
1.62823e-08
1.63035e-08
1.63097e-08
1.63119e-08
1.63077e-08
1.63054e-08
1.63012e-08
1.62992e-08
1.62964e-08
1.62953e-08
1.62936e-08
1.6293e-08
1.6292e-08
1.62917e-08
1.62911e-08
1.6291e-08
1.62907e-08
1.62907e-08
1.62905e-08
1.62905e-08
1.62903e-08
1.62904e-08
1.62903e-08
1.62903e-08
1.62904e-08
1.62903e-08
1.62905e-08
1.62905e-08
1.62907e-08
1.62907e-08
1.6291e-08
1.62911e-08
1.62917e-08
1.6292e-08
1.6293e-08
1.62936e-08
1.62953e-08
1.62964e-08
1.62992e-08
1.63012e-08
1.63054e-08
1.63077e-08
1.63119e-08
1.63097e-08
1.63034e-08
1.62823e-08
1.62412e-08
1.61884e-08
1.59604e-08
1.60116e-08
1.60505e-08
1.60704e-08
1.60757e-08
1.60773e-08
1.60728e-08
1.60703e-08
1.6066e-08
1.60638e-08
1.6061e-08
1.60598e-08
1.6058e-08
1.60574e-08
1.60564e-08
1.60561e-08
1.60555e-08
1.60554e-08
1.60551e-08
1.60551e-08
1.60548e-08
1.60548e-08
1.60547e-08
1.60547e-08
1.60547e-08
1.60547e-08
1.60547e-08
1.60547e-08
1.60548e-08
1.60548e-08
1.60551e-08
1.60551e-08
1.60554e-08
1.60555e-08
1.60561e-08
1.60564e-08
1.60574e-08
1.6058e-08
1.60598e-08
1.6061e-08
1.60638e-08
1.6066e-08
1.60702e-08
1.60728e-08
1.60773e-08
1.60757e-08
1.60704e-08
1.60505e-08
1.60116e-08
1.59604e-08
1.57317e-08
1.5781e-08
1.58178e-08
1.58365e-08
1.58408e-08
1.58418e-08
1.5837e-08
1.58342e-08
1.58298e-08
1.58276e-08
1.58247e-08
1.58234e-08
1.58216e-08
1.58209e-08
1.58199e-08
1.58196e-08
1.5819e-08
1.58189e-08
1.58185e-08
1.58185e-08
1.58183e-08
1.58183e-08
1.58182e-08
1.58182e-08
1.58181e-08
1.58181e-08
1.58182e-08
1.58182e-08
1.58183e-08
1.58183e-08
1.58185e-08
1.58185e-08
1.58189e-08
1.5819e-08
1.58196e-08
1.58199e-08
1.58209e-08
1.58216e-08
1.58234e-08
1.58247e-08
1.58275e-08
1.58298e-08
1.58342e-08
1.5837e-08
1.58418e-08
1.58408e-08
1.58365e-08
1.58177e-08
1.5781e-08
1.57317e-08
1.55019e-08
1.55494e-08
1.55839e-08
1.56015e-08
1.56048e-08
1.56052e-08
1.56e-08
1.5597e-08
1.55925e-08
1.55901e-08
1.55872e-08
1.55858e-08
1.5584e-08
1.55833e-08
1.55822e-08
1.55819e-08
1.55813e-08
1.55812e-08
1.55808e-08
1.55808e-08
1.55806e-08
1.55806e-08
1.55805e-08
1.55805e-08
1.55804e-08
1.55804e-08
1.55805e-08
1.55805e-08
1.55806e-08
1.55806e-08
1.55808e-08
1.55808e-08
1.55812e-08
1.55813e-08
1.55819e-08
1.55822e-08
1.55833e-08
1.5584e-08
1.55858e-08
1.55872e-08
1.55901e-08
1.55925e-08
1.5597e-08
1.56e-08
1.56052e-08
1.56048e-08
1.56015e-08
1.55839e-08
1.55494e-08
1.55018e-08
1.52707e-08
1.53164e-08
1.53487e-08
1.53651e-08
1.53674e-08
1.53672e-08
1.53617e-08
1.53584e-08
1.53537e-08
1.53513e-08
1.53482e-08
1.53468e-08
1.5345e-08
1.53443e-08
1.53432e-08
1.53429e-08
1.53422e-08
1.53421e-08
1.53417e-08
1.53417e-08
1.53415e-08
1.53415e-08
1.53413e-08
1.53414e-08
1.53413e-08
1.53413e-08
1.53414e-08
1.53413e-08
1.53415e-08
1.53415e-08
1.53417e-08
1.53417e-08
1.53421e-08
1.53422e-08
1.53429e-08
1.53432e-08
1.53443e-08
1.5345e-08
1.53468e-08
1.53482e-08
1.53513e-08
1.53537e-08
1.53584e-08
1.53617e-08
1.53672e-08
1.53674e-08
1.53651e-08
1.53487e-08
1.53164e-08
1.52706e-08
1.50379e-08
1.50818e-08
1.5112e-08
1.51271e-08
1.51284e-08
1.51276e-08
1.51217e-08
1.51182e-08
1.51134e-08
1.51108e-08
1.51077e-08
1.51062e-08
1.51043e-08
1.51036e-08
1.51025e-08
1.51021e-08
1.51015e-08
1.51014e-08
1.5101e-08
1.5101e-08
1.51007e-08
1.51007e-08
1.51006e-08
1.51006e-08
1.51006e-08
1.51006e-08
1.51006e-08
1.51006e-08
1.51007e-08
1.51007e-08
1.5101e-08
1.5101e-08
1.51014e-08
1.51015e-08
1.51021e-08
1.51025e-08
1.51036e-08
1.51043e-08
1.51062e-08
1.51077e-08
1.51108e-08
1.51134e-08
1.51182e-08
1.51217e-08
1.51275e-08
1.51284e-08
1.51271e-08
1.5112e-08
1.50818e-08
1.50379e-08
1.48033e-08
1.48454e-08
1.48734e-08
1.48873e-08
1.48876e-08
1.48861e-08
1.48798e-08
1.48761e-08
1.48711e-08
1.48684e-08
1.48653e-08
1.48637e-08
1.48618e-08
1.4861e-08
1.48599e-08
1.48596e-08
1.48589e-08
1.48588e-08
1.48584e-08
1.48584e-08
1.48581e-08
1.48581e-08
1.4858e-08
1.4858e-08
1.48579e-08
1.48579e-08
1.4858e-08
1.4858e-08
1.48581e-08
1.48581e-08
1.48583e-08
1.48584e-08
1.48588e-08
1.48589e-08
1.48596e-08
1.48599e-08
1.4861e-08
1.48618e-08
1.48637e-08
1.48653e-08
1.48684e-08
1.48711e-08
1.48761e-08
1.48798e-08
1.48861e-08
1.48876e-08
1.48872e-08
1.48734e-08
1.48454e-08
1.48033e-08
1.45667e-08
1.46071e-08
1.46328e-08
1.46454e-08
1.46447e-08
1.46425e-08
1.46359e-08
1.46319e-08
1.46268e-08
1.4624e-08
1.46208e-08
1.46192e-08
1.46172e-08
1.46164e-08
1.46153e-08
1.46149e-08
1.46142e-08
1.46141e-08
1.46137e-08
1.46137e-08
1.46134e-08
1.46134e-08
1.46133e-08
1.46133e-08
1.46133e-08
1.46133e-08
1.46133e-08
1.46133e-08
1.46134e-08
1.46134e-08
1.46137e-08
1.46137e-08
1.46141e-08
1.46142e-08
1.46149e-08
1.46153e-08
1.46164e-08
1.46172e-08
1.46192e-08
1.46208e-08
1.4624e-08
1.46268e-08
1.46319e-08
1.46359e-08
1.46425e-08
1.46447e-08
1.46454e-08
1.46328e-08
1.4607e-08
1.45667e-08
1.43279e-08
1.43665e-08
1.43899e-08
1.44013e-08
1.43996e-08
1.43967e-08
1.43897e-08
1.43855e-08
1.43803e-08
1.43773e-08
1.4374e-08
1.43724e-08
1.43704e-08
1.43695e-08
1.43684e-08
1.4368e-08
1.43673e-08
1.43672e-08
1.43668e-08
1.43667e-08
1.43665e-08
1.43665e-08
1.43663e-08
1.43664e-08
1.43663e-08
1.43663e-08
1.43664e-08
1.43663e-08
1.43665e-08
1.43665e-08
1.43667e-08
1.43668e-08
1.43672e-08
1.43673e-08
1.4368e-08
1.43684e-08
1.43695e-08
1.43704e-08
1.43724e-08
1.4374e-08
1.43773e-08
1.43803e-08
1.43855e-08
1.43897e-08
1.43967e-08
1.43996e-08
1.44013e-08
1.43899e-08
1.43665e-08
1.43279e-08
1.40867e-08
1.41236e-08
1.41446e-08
1.41547e-08
1.4152e-08
1.41484e-08
1.41411e-08
1.41366e-08
1.41312e-08
1.41282e-08
1.41248e-08
1.41231e-08
1.41211e-08
1.41202e-08
1.4119e-08
1.41186e-08
1.41179e-08
1.41178e-08
1.41173e-08
1.41173e-08
1.41171e-08
1.4117e-08
1.41169e-08
1.41169e-08
1.41169e-08
1.41169e-08
1.41169e-08
1.41169e-08
1.4117e-08
1.41171e-08
1.41173e-08
1.41173e-08
1.41178e-08
1.41179e-08
1.41186e-08
1.4119e-08
1.41202e-08
1.41211e-08
1.41231e-08
1.41248e-08
1.41281e-08
1.41312e-08
1.41366e-08
1.41411e-08
1.41484e-08
1.4152e-08
1.41547e-08
1.41446e-08
1.41235e-08
1.40866e-08
1.38428e-08
1.3878e-08
1.38966e-08
1.39055e-08
1.39018e-08
1.38974e-08
1.38897e-08
1.3885e-08
1.38795e-08
1.38763e-08
1.38729e-08
1.38711e-08
1.38691e-08
1.38682e-08
1.38669e-08
1.38665e-08
1.38658e-08
1.38657e-08
1.38652e-08
1.38652e-08
1.3865e-08
1.38649e-08
1.38648e-08
1.38648e-08
1.38648e-08
1.38648e-08
1.38648e-08
1.38648e-08
1.38649e-08
1.3865e-08
1.38652e-08
1.38652e-08
1.38657e-08
1.38658e-08
1.38665e-08
1.38669e-08
1.38682e-08
1.38691e-08
1.38711e-08
1.38729e-08
1.38763e-08
1.38795e-08
1.3885e-08
1.38897e-08
1.38974e-08
1.39018e-08
1.39055e-08
1.38966e-08
1.38779e-08
1.38427e-08
1.36045e-08
1.36383e-08
1.36545e-08
1.36623e-08
1.36576e-08
1.36525e-08
1.36444e-08
1.36394e-08
1.36338e-08
1.36305e-08
1.3627e-08
1.36252e-08
1.36231e-08
1.36222e-08
1.36209e-08
1.36205e-08
1.36198e-08
1.36196e-08
1.36192e-08
1.36192e-08
1.36189e-08
1.36189e-08
1.36188e-08
1.36188e-08
1.36187e-08
1.36187e-08
1.36188e-08
1.36188e-08
1.36189e-08
1.36189e-08
1.36192e-08
1.36192e-08
1.36196e-08
1.36198e-08
1.36205e-08
1.36209e-08
1.36222e-08
1.36231e-08
1.36252e-08
1.3627e-08
1.36305e-08
1.36338e-08
1.36394e-08
1.36444e-08
1.36524e-08
1.36576e-08
1.36623e-08
1.36545e-08
1.36383e-08
1.36045e-08
1.33604e-08
1.3393e-08
1.3406e-08
1.34123e-08
1.3406e-08
1.33996e-08
1.33909e-08
1.33855e-08
1.33795e-08
1.3376e-08
1.33724e-08
1.33705e-08
1.33683e-08
1.33673e-08
1.3366e-08
1.33656e-08
1.33648e-08
1.33647e-08
1.33642e-08
1.33642e-08
1.33639e-08
1.33639e-08
1.33638e-08
1.33638e-08
1.33637e-08
1.33637e-08
1.33638e-08
1.33638e-08
1.33639e-08
1.33639e-08
1.33642e-08
1.33642e-08
1.33647e-08
1.33648e-08
1.33656e-08
1.3366e-08
1.33673e-08
1.33683e-08
1.33705e-08
1.33724e-08
1.3376e-08
1.33795e-08
1.33854e-08
1.33909e-08
1.33996e-08
1.3406e-08
1.34123e-08
1.3406e-08
1.3393e-08
1.33604e-08
1.31086e-08
1.31396e-08
1.315e-08
1.31551e-08
1.31478e-08
1.31405e-08
1.31314e-08
1.31257e-08
1.31197e-08
1.31161e-08
1.31124e-08
1.31104e-08
1.31082e-08
1.31072e-08
1.31059e-08
1.31054e-08
1.31046e-08
1.31045e-08
1.3104e-08
1.3104e-08
1.31037e-08
1.31037e-08
1.31035e-08
1.31035e-08
1.31035e-08
1.31035e-08
1.31035e-08
1.31035e-08
1.31037e-08
1.31037e-08
1.3104e-08
1.3104e-08
1.31045e-08
1.31046e-08
1.31054e-08
1.31059e-08
1.31072e-08
1.31082e-08
1.31104e-08
1.31123e-08
1.3116e-08
1.31196e-08
1.31257e-08
1.31314e-08
1.31405e-08
1.31478e-08
1.31551e-08
1.315e-08
1.31396e-08
1.31086e-08
1.28537e-08
1.28829e-08
1.28909e-08
1.28948e-08
1.28864e-08
1.28782e-08
1.28687e-08
1.28628e-08
1.28566e-08
1.28529e-08
1.28491e-08
1.28471e-08
1.28448e-08
1.28438e-08
1.28425e-08
1.2842e-08
1.28412e-08
1.28411e-08
1.28406e-08
1.28405e-08
1.28403e-08
1.28403e-08
1.28401e-08
1.28401e-08
1.28401e-08
1.28401e-08
1.28401e-08
1.28401e-08
1.28403e-08
1.28403e-08
1.28405e-08
1.28406e-08
1.28411e-08
1.28412e-08
1.2842e-08
1.28425e-08
1.28438e-08
1.28448e-08
1.28471e-08
1.28491e-08
1.28529e-08
1.28566e-08
1.28628e-08
1.28687e-08
1.28781e-08
1.28864e-08
1.28947e-08
1.28909e-08
1.28829e-08
1.28536e-08
1.25954e-08
1.26229e-08
1.26285e-08
1.2631e-08
1.26217e-08
1.26125e-08
1.26026e-08
1.25964e-08
1.25901e-08
1.25863e-08
1.25825e-08
1.25804e-08
1.25781e-08
1.25771e-08
1.25758e-08
1.25753e-08
1.25745e-08
1.25743e-08
1.25738e-08
1.25738e-08
1.25735e-08
1.25735e-08
1.25733e-08
1.25733e-08
1.25733e-08
1.25733e-08
1.25733e-08
1.25733e-08
1.25735e-08
1.25735e-08
1.25738e-08
1.25738e-08
1.25743e-08
1.25745e-08
1.25753e-08
1.25758e-08
1.25771e-08
1.25781e-08
1.25804e-08
1.25825e-08
1.25863e-08
1.25901e-08
1.25964e-08
1.26026e-08
1.26124e-08
1.26217e-08
1.2631e-08
1.26284e-08
1.26229e-08
1.25954e-08
1.23337e-08
1.23594e-08
1.23625e-08
1.23638e-08
1.23535e-08
1.23432e-08
1.23331e-08
1.23266e-08
1.23202e-08
1.23163e-08
1.23124e-08
1.23103e-08
1.2308e-08
1.23069e-08
1.23055e-08
1.2305e-08
1.23042e-08
1.2304e-08
1.23036e-08
1.23035e-08
1.23032e-08
1.23032e-08
1.23031e-08
1.23031e-08
1.2303e-08
1.2303e-08
1.23031e-08
1.23031e-08
1.23032e-08
1.23032e-08
1.23035e-08
1.23036e-08
1.2304e-08
1.23042e-08
1.2305e-08
1.23055e-08
1.23069e-08
1.2308e-08
1.23102e-08
1.23124e-08
1.23162e-08
1.23202e-08
1.23266e-08
1.2333e-08
1.23432e-08
1.23535e-08
1.23638e-08
1.23625e-08
1.23594e-08
1.23336e-08
1.20772e-08
1.21014e-08
1.21022e-08
1.21023e-08
1.2091e-08
1.20795e-08
1.20691e-08
1.20624e-08
1.20558e-08
1.20518e-08
1.20479e-08
1.20457e-08
1.20434e-08
1.20423e-08
1.20409e-08
1.20404e-08
1.20396e-08
1.20394e-08
1.20389e-08
1.20389e-08
1.20386e-08
1.20386e-08
1.20384e-08
1.20384e-08
1.20384e-08
1.20384e-08
1.20384e-08
1.20384e-08
1.20386e-08
1.20386e-08
1.20389e-08
1.20389e-08
1.20394e-08
1.20396e-08
1.20404e-08
1.20409e-08
1.20423e-08
1.20434e-08
1.20457e-08
1.20479e-08
1.20518e-08
1.20558e-08
1.20623e-08
1.2069e-08
1.20795e-08
1.2091e-08
1.21023e-08
1.21021e-08
1.21014e-08
1.20772e-08
1.18177e-08
1.18404e-08
1.18388e-08
1.18377e-08
1.18255e-08
1.18128e-08
1.1802e-08
1.17949e-08
1.17879e-08
1.17836e-08
1.17795e-08
1.17771e-08
1.17747e-08
1.17735e-08
1.17721e-08
1.17715e-08
1.17707e-08
1.17705e-08
1.177e-08
1.17699e-08
1.17696e-08
1.17696e-08
1.17694e-08
1.17694e-08
1.17694e-08
1.17694e-08
1.17694e-08
1.17694e-08
1.17696e-08
1.17696e-08
1.17699e-08
1.177e-08
1.17705e-08
1.17707e-08
1.17715e-08
1.17721e-08
1.17735e-08
1.17747e-08
1.17771e-08
1.17794e-08
1.17836e-08
1.17879e-08
1.17949e-08
1.1802e-08
1.18128e-08
1.18255e-08
1.18377e-08
1.18387e-08
1.18403e-08
1.18177e-08
1.15473e-08
1.15685e-08
1.15643e-08
1.15619e-08
1.15485e-08
1.15342e-08
1.15229e-08
1.15155e-08
1.15083e-08
1.15038e-08
1.14996e-08
1.14972e-08
1.14946e-08
1.14934e-08
1.1492e-08
1.14914e-08
1.14905e-08
1.14903e-08
1.14898e-08
1.14897e-08
1.14894e-08
1.14894e-08
1.14893e-08
1.14893e-08
1.14892e-08
1.14892e-08
1.14893e-08
1.14893e-08
1.14894e-08
1.14894e-08
1.14897e-08
1.14898e-08
1.14903e-08
1.14905e-08
1.14914e-08
1.1492e-08
1.14934e-08
1.14946e-08
1.14972e-08
1.14996e-08
1.15038e-08
1.15083e-08
1.15155e-08
1.15229e-08
1.15341e-08
1.15485e-08
1.15618e-08
1.15643e-08
1.15685e-08
1.15473e-08
1.12721e-08
1.12914e-08
1.12849e-08
1.12812e-08
1.12671e-08
1.12606e-08
1.12491e-08
1.12414e-08
1.12341e-08
1.12295e-08
1.12252e-08
1.12228e-08
1.12202e-08
1.1219e-08
1.12175e-08
1.12169e-08
1.12161e-08
1.12158e-08
1.12153e-08
1.12152e-08
1.12149e-08
1.12149e-08
1.12148e-08
1.12148e-08
1.12147e-08
1.12147e-08
1.12148e-08
1.12148e-08
1.12149e-08
1.12149e-08
1.12152e-08
1.12153e-08
1.12158e-08
1.12161e-08
1.12169e-08
1.12175e-08
1.1219e-08
1.12202e-08
1.12228e-08
1.12252e-08
1.12295e-08
1.12341e-08
1.12414e-08
1.12491e-08
1.12605e-08
1.12671e-08
1.12812e-08
1.12849e-08
1.12913e-08
1.12721e-08
1.10023e-08
1.10198e-08
1.10112e-08
1.10062e-08
1.09913e-08
1.09838e-08
1.09721e-08
1.09642e-08
1.09568e-08
1.09521e-08
1.09478e-08
1.09453e-08
1.09427e-08
1.09415e-08
1.09399e-08
1.09394e-08
1.09385e-08
1.09383e-08
1.09377e-08
1.09377e-08
1.09374e-08
1.09373e-08
1.09372e-08
1.09372e-08
1.09371e-08
1.09371e-08
1.09372e-08
1.09372e-08
1.09373e-08
1.09373e-08
1.09377e-08
1.09377e-08
1.09383e-08
1.09385e-08
1.09394e-08
1.09399e-08
1.09415e-08
1.09427e-08
1.09453e-08
1.09478e-08
1.09521e-08
1.09568e-08
1.09642e-08
1.09721e-08
1.09838e-08
1.09913e-08
1.10062e-08
1.10112e-08
1.10198e-08
1.10022e-08
1.07277e-08
1.07443e-08
1.07331e-08
1.07264e-08
1.07098e-08
1.07009e-08
1.06884e-08
1.06801e-08
1.06723e-08
1.06674e-08
1.06629e-08
1.06603e-08
1.06577e-08
1.06563e-08
1.06548e-08
1.06542e-08
1.06533e-08
1.0653e-08
1.06525e-08
1.06524e-08
1.06521e-08
1.06521e-08
1.06519e-08
1.06519e-08
1.06519e-08
1.06519e-08
1.06519e-08
1.06519e-08
1.06521e-08
1.06521e-08
1.06524e-08
1.06525e-08
1.0653e-08
1.06533e-08
1.06542e-08
1.06548e-08
1.06564e-08
1.06577e-08
1.06603e-08
1.06629e-08
1.06674e-08
1.06723e-08
1.06801e-08
1.06884e-08
1.07009e-08
1.07097e-08
1.07264e-08
1.07331e-08
1.07443e-08
1.07277e-08
1.04515e-08
1.04664e-08
1.04531e-08
1.04451e-08
1.04276e-08
1.04178e-08
1.04051e-08
1.03965e-08
1.03887e-08
1.03837e-08
1.03791e-08
1.03765e-08
1.03738e-08
1.03725e-08
1.03709e-08
1.03703e-08
1.03694e-08
1.03691e-08
1.03686e-08
1.03685e-08
1.03682e-08
1.03682e-08
1.0368e-08
1.0368e-08
1.0368e-08
1.0368e-08
1.0368e-08
1.0368e-08
1.03682e-08
1.03682e-08
1.03685e-08
1.03686e-08
1.03691e-08
1.03694e-08
1.03703e-08
1.03709e-08
1.03725e-08
1.03738e-08
1.03765e-08
1.03791e-08
1.03837e-08
1.03886e-08
1.03965e-08
1.04051e-08
1.04178e-08
1.04275e-08
1.04451e-08
1.0453e-08
1.04664e-08
1.04514e-08
1.01722e-08
1.01853e-08
1.017e-08
1.01608e-08
1.01423e-08
1.01318e-08
1.01188e-08
1.011e-08
1.01021e-08
1.0097e-08
1.00924e-08
1.00897e-08
1.00871e-08
1.00857e-08
1.00841e-08
1.00835e-08
1.00826e-08
1.00823e-08
1.00818e-08
1.00817e-08
1.00814e-08
1.00814e-08
1.00812e-08
1.00812e-08
1.00811e-08
1.00811e-08
1.00812e-08
1.00812e-08
1.00814e-08
1.00814e-08
1.00817e-08
1.00818e-08
1.00823e-08
1.00826e-08
1.00835e-08
1.00841e-08
1.00857e-08
1.00871e-08
1.00897e-08
1.00924e-08
1.0097e-08
1.01021e-08
1.011e-08
1.01188e-08
1.01318e-08
1.01423e-08
1.01608e-08
1.017e-08
1.01853e-08
1.01721e-08
9.79223e-09
9.79215e-09
9.79183e-09
9.79181e-09
9.79164e-09
9.79164e-09
9.79158e-09
9.79158e-09
9.79164e-09
9.79163e-09
9.79181e-09
9.79182e-09
9.79215e-09
9.79223e-09
9.79279e-09
9.79304e-09
9.79398e-09
9.7946e-09
9.79619e-09
9.79754e-09
9.80024e-09
9.80294e-09
9.80756e-09
9.81271e-09
9.82072e-09
9.82972e-09
9.84298e-09
9.85421e-09
9.87368e-09
9.88409e-09
9.90136e-09
9.88989e-09
9.49966e-09
9.49968e-09
9.5e-09
9.50009e-09
9.50065e-09
9.5009e-09
9.50184e-09
9.50247e-09
9.50407e-09
9.50543e-09
9.50815e-09
9.51087e-09
9.51551e-09
9.52073e-09
9.5288e-09
9.538e-09
9.5515e-09
9.56339e-09
9.58382e-09
9.59541e-09
9.6146e-09
9.60487e-09
9.22107e-09
9.22635e-09
9.23447e-09
9.24384e-09
9.25756e-09
9.27003e-09
9.29145e-09
9.30416e-09
9.32524e-09
9.31723e-09
)
;

boundaryField
{
    fuel
    {
        type            fixedValue;
        value           nonuniform 0();
    }
    wall
    {
        type            zeroGradient;
    }
    outlet
    {
        type            zeroGradient;
    }
    frontAndBack
    {
        type            empty;
    }
    procBoundary0to1
    {
        type            processor;
        value           nonuniform List<scalar> 
50
(
1.97876e-08
1.9861e-08
1.99363e-08
1.99772e-08
1.99951e-08
2.00044e-08
2.00036e-08
2.00043e-08
2.00014e-08
2.0001e-08
1.99989e-08
1.99986e-08
1.99973e-08
1.99972e-08
1.99964e-08
1.99964e-08
1.99959e-08
1.9996e-08
1.99957e-08
1.99958e-08
1.99956e-08
1.99956e-08
1.99955e-08
1.99955e-08
1.99955e-08
1.99955e-08
1.99955e-08
1.99955e-08
1.99956e-08
1.99956e-08
1.99958e-08
1.99957e-08
1.9996e-08
1.99959e-08
1.99964e-08
1.99964e-08
1.99972e-08
1.99973e-08
1.99986e-08
1.99989e-08
2.0001e-08
2.00014e-08
2.00043e-08
2.00036e-08
2.00044e-08
1.99951e-08
1.99772e-08
1.99363e-08
1.9861e-08
1.97876e-08
)
;
    }
    procBoundary0to2
    {
        type            processor;
        value           nonuniform List<scalar> 
53
(
9.88992e-09
9.90138e-09
9.88411e-09
9.8737e-09
9.85423e-09
9.84299e-09
9.82974e-09
9.82073e-09
9.81272e-09
9.80757e-09
9.80295e-09
9.80024e-09
9.79753e-09
9.79618e-09
9.79459e-09
9.79397e-09
9.79303e-09
9.79278e-09
9.79278e-09
9.50009e-09
9.50001e-09
9.49968e-09
9.49966e-09
9.49949e-09
9.4995e-09
9.49944e-09
9.49944e-09
9.49949e-09
9.49949e-09
9.49949e-09
9.20515e-09
9.20517e-09
9.20549e-09
9.20558e-09
9.20614e-09
9.20639e-09
9.20734e-09
9.20797e-09
9.20958e-09
9.21095e-09
9.21367e-09
9.21641e-09
9.21641e-09
8.92448e-09
8.92981e-09
8.93796e-09
8.94749e-09
8.96141e-09
8.97439e-09
8.9968e-09
9.01057e-09
9.0335e-09
9.02722e-09
)
;
    }
}


// ************************************************************************* //
