/*--------------------------------*- C++ -*----------------------------------*\
| =========                 |                                                 |
| \\      /  F ield         | OpenFOAM: The Open Source CFD Toolbox           |
|  \\    /   O peration     | Version:  dev                                   |
|   \\  /    A nd           | Web:      www.OpenFOAM.org                      |
|    \\/     M anipulation  |                                                 |
\*---------------------------------------------------------------------------*/
FoamFile
{
    version     2.0;
    format      ascii;
    class       volScalarField;
    location    "0.08";
    object      CH3O;
}
// * * * * * * * * * * * * * * * * * * * * * * * * * * * * * * * * * * * * * //

dimensions      [0 0 0 0 0 0 0];

internalField   nonuniform List<scalar> 
2014
(
6.7325e-10
6.7579e-10
6.78381e-10
6.79777e-10
6.80386e-10
6.80701e-10
6.80668e-10
6.80685e-10
6.80581e-10
6.80564e-10
6.8049e-10
6.80479e-10
6.80431e-10
6.80427e-10
6.80398e-10
6.80399e-10
6.8038e-10
6.80384e-10
6.80373e-10
6.80376e-10
6.80368e-10
6.8037e-10
6.80366e-10
6.80367e-10
6.80366e-10
6.80366e-10
6.80367e-10
6.80366e-10
6.8037e-10
6.80368e-10
6.80375e-10
6.80373e-10
6.80384e-10
6.8038e-10
6.80399e-10
6.80398e-10
6.80427e-10
6.80431e-10
6.80479e-10
6.8049e-10
6.80564e-10
6.80581e-10
6.80685e-10
6.80667e-10
6.80701e-10
6.80386e-10
6.79777e-10
6.7838e-10
6.7579e-10
6.7325e-10
6.63675e-10
6.66151e-10
6.68658e-10
6.70003e-10
6.7059e-10
6.7089e-10
6.70852e-10
6.70863e-10
6.70758e-10
6.70737e-10
6.70662e-10
6.70649e-10
6.70601e-10
6.70595e-10
6.70566e-10
6.70566e-10
6.70547e-10
6.70551e-10
6.7054e-10
6.70542e-10
6.70535e-10
6.70537e-10
6.70532e-10
6.70533e-10
6.70532e-10
6.70532e-10
6.70533e-10
6.70532e-10
6.70537e-10
6.70535e-10
6.70542e-10
6.7054e-10
6.70551e-10
6.70547e-10
6.70566e-10
6.70566e-10
6.70595e-10
6.70601e-10
6.70649e-10
6.70662e-10
6.70737e-10
6.70758e-10
6.70863e-10
6.70851e-10
6.70889e-10
6.70589e-10
6.70002e-10
6.68658e-10
6.66151e-10
6.63675e-10
6.5442e-10
6.5684e-10
6.5926e-10
6.60556e-10
6.6112e-10
6.61405e-10
6.61362e-10
6.61367e-10
6.6126e-10
6.61235e-10
6.61159e-10
6.61144e-10
6.61095e-10
6.61089e-10
6.61059e-10
6.61059e-10
6.6104e-10
6.61043e-10
6.61032e-10
6.61034e-10
6.61027e-10
6.61028e-10
6.61024e-10
6.61025e-10
6.61024e-10
6.61024e-10
6.61025e-10
6.61024e-10
6.61028e-10
6.61027e-10
6.61034e-10
6.61032e-10
6.61043e-10
6.6104e-10
6.61059e-10
6.61059e-10
6.61089e-10
6.61095e-10
6.61144e-10
6.61159e-10
6.61235e-10
6.6126e-10
6.61366e-10
6.61361e-10
6.61404e-10
6.61119e-10
6.60556e-10
6.5926e-10
6.5684e-10
6.5442e-10
6.45428e-10
6.478e-10
6.50131e-10
6.5138e-10
6.5192e-10
6.5219e-10
6.5214e-10
6.52139e-10
6.52031e-10
6.52002e-10
6.51925e-10
6.51908e-10
6.51859e-10
6.51851e-10
6.51821e-10
6.5182e-10
6.51801e-10
6.51803e-10
6.51792e-10
6.51794e-10
6.51787e-10
6.51789e-10
6.51784e-10
6.51785e-10
6.51784e-10
6.51784e-10
6.51785e-10
6.51785e-10
6.51789e-10
6.51787e-10
6.51794e-10
6.51792e-10
6.51803e-10
6.51801e-10
6.5182e-10
6.51821e-10
6.51851e-10
6.51859e-10
6.51908e-10
6.51925e-10
6.52002e-10
6.52031e-10
6.52139e-10
6.5214e-10
6.52189e-10
6.51919e-10
6.5138e-10
6.5013e-10
6.478e-10
6.45428e-10
6.36653e-10
6.38978e-10
6.4123e-10
6.42428e-10
6.42941e-10
6.43196e-10
6.43141e-10
6.43133e-10
6.43023e-10
6.4299e-10
6.42912e-10
6.42893e-10
6.42843e-10
6.42834e-10
6.42804e-10
6.42802e-10
6.42783e-10
6.42785e-10
6.42774e-10
6.42776e-10
6.42769e-10
6.4277e-10
6.42766e-10
6.42767e-10
6.42766e-10
6.42766e-10
6.42767e-10
6.42766e-10
6.4277e-10
6.42769e-10
6.42776e-10
6.42774e-10
6.42785e-10
6.42783e-10
6.42802e-10
6.42804e-10
6.42834e-10
6.42843e-10
6.42893e-10
6.42912e-10
6.4299e-10
6.43023e-10
6.43133e-10
6.43141e-10
6.43196e-10
6.42941e-10
6.42428e-10
6.41229e-10
6.38978e-10
6.36653e-10
6.28058e-10
6.3034e-10
6.32511e-10
6.3366e-10
6.34146e-10
6.34386e-10
6.34324e-10
6.34309e-10
6.34196e-10
6.3416e-10
6.34081e-10
6.34059e-10
6.34009e-10
6.33999e-10
6.33968e-10
6.33966e-10
6.33947e-10
6.33948e-10
6.33937e-10
6.33939e-10
6.33931e-10
6.33933e-10
6.33929e-10
6.33929e-10
6.33928e-10
6.33928e-10
6.33929e-10
6.33929e-10
6.33933e-10
6.33931e-10
6.33939e-10
6.33937e-10
6.33948e-10
6.33947e-10
6.33966e-10
6.33968e-10
6.33999e-10
6.34009e-10
6.34059e-10
6.34081e-10
6.3416e-10
6.34196e-10
6.34309e-10
6.34323e-10
6.34385e-10
6.34146e-10
6.33659e-10
6.3251e-10
6.30339e-10
6.28058e-10
6.19611e-10
6.21851e-10
6.23941e-10
6.25042e-10
6.25501e-10
6.25725e-10
6.25655e-10
6.25634e-10
6.25518e-10
6.25479e-10
6.25398e-10
6.25374e-10
6.25323e-10
6.25312e-10
6.25281e-10
6.25277e-10
6.25258e-10
6.2526e-10
6.25248e-10
6.2525e-10
6.25242e-10
6.25243e-10
6.25239e-10
6.2524e-10
6.25239e-10
6.25239e-10
6.2524e-10
6.25239e-10
6.25243e-10
6.25242e-10
6.2525e-10
6.25248e-10
6.25259e-10
6.25258e-10
6.25277e-10
6.25281e-10
6.25312e-10
6.25323e-10
6.25374e-10
6.25398e-10
6.25478e-10
6.25518e-10
6.25634e-10
6.25654e-10
6.25724e-10
6.255e-10
6.25041e-10
6.2394e-10
6.21851e-10
6.1961e-10
6.11284e-10
6.13484e-10
6.15492e-10
6.16546e-10
6.16977e-10
6.17184e-10
6.17106e-10
6.17079e-10
6.1696e-10
6.16917e-10
6.16835e-10
6.16809e-10
6.16757e-10
6.16744e-10
6.16713e-10
6.16709e-10
6.1669e-10
6.16691e-10
6.16679e-10
6.1668e-10
6.16673e-10
6.16674e-10
6.1667e-10
6.16671e-10
6.1667e-10
6.1667e-10
6.16671e-10
6.1667e-10
6.16674e-10
6.16673e-10
6.1668e-10
6.16679e-10
6.16691e-10
6.1669e-10
6.16709e-10
6.16713e-10
6.16744e-10
6.16757e-10
6.16809e-10
6.16835e-10
6.16917e-10
6.1696e-10
6.17079e-10
6.17106e-10
6.17184e-10
6.16976e-10
6.16545e-10
6.15491e-10
6.13484e-10
6.11283e-10
6.03054e-10
6.05215e-10
6.0714e-10
6.08147e-10
6.08549e-10
6.0874e-10
6.08654e-10
6.0862e-10
6.08498e-10
6.08451e-10
6.08367e-10
6.08339e-10
6.08286e-10
6.08273e-10
6.08241e-10
6.08236e-10
6.08217e-10
6.08217e-10
6.08206e-10
6.08207e-10
6.082e-10
6.082e-10
6.08196e-10
6.08197e-10
6.08196e-10
6.08196e-10
6.08197e-10
6.08196e-10
6.082e-10
6.082e-10
6.08207e-10
6.08206e-10
6.08217e-10
6.08217e-10
6.08236e-10
6.08241e-10
6.08273e-10
6.08286e-10
6.08339e-10
6.08367e-10
6.08451e-10
6.08498e-10
6.0862e-10
6.08654e-10
6.0874e-10
6.08549e-10
6.08147e-10
6.07139e-10
6.05214e-10
6.03053e-10
5.94901e-10
5.9702e-10
5.98863e-10
5.99825e-10
6.00198e-10
6.00372e-10
6.00277e-10
6.00236e-10
6.00111e-10
6.0006e-10
5.99974e-10
5.99944e-10
5.99891e-10
5.99876e-10
5.99844e-10
5.99838e-10
5.99819e-10
5.99819e-10
5.99807e-10
5.99808e-10
5.99801e-10
5.99801e-10
5.99797e-10
5.99798e-10
5.99797e-10
5.99797e-10
5.99798e-10
5.99797e-10
5.99801e-10
5.99801e-10
5.99808e-10
5.99807e-10
5.99819e-10
5.99819e-10
5.99838e-10
5.99844e-10
5.99876e-10
5.99891e-10
5.99944e-10
5.99974e-10
6.0006e-10
6.0011e-10
6.00235e-10
6.00277e-10
6.00372e-10
6.00198e-10
5.99825e-10
5.98863e-10
5.9702e-10
5.949e-10
5.86808e-10
5.88883e-10
5.90645e-10
5.91561e-10
5.91905e-10
5.92061e-10
5.91957e-10
5.91908e-10
5.9178e-10
5.91725e-10
5.91638e-10
5.91606e-10
5.91551e-10
5.91535e-10
5.91502e-10
5.91497e-10
5.91477e-10
5.91476e-10
5.91465e-10
5.91465e-10
5.91458e-10
5.91459e-10
5.91454e-10
5.91455e-10
5.91454e-10
5.91454e-10
5.91455e-10
5.91454e-10
5.91459e-10
5.91458e-10
5.91465e-10
5.91465e-10
5.91476e-10
5.91477e-10
5.91497e-10
5.91503e-10
5.91535e-10
5.91551e-10
5.91606e-10
5.91638e-10
5.91725e-10
5.91779e-10
5.91908e-10
5.91956e-10
5.92061e-10
5.91905e-10
5.91561e-10
5.90644e-10
5.88883e-10
5.86807e-10
5.78758e-10
5.80787e-10
5.82468e-10
5.8334e-10
5.83654e-10
5.83791e-10
5.83677e-10
5.83622e-10
5.83489e-10
5.83431e-10
5.83342e-10
5.83308e-10
5.83252e-10
5.83235e-10
5.83202e-10
5.83195e-10
5.83175e-10
5.83174e-10
5.83162e-10
5.83163e-10
5.83156e-10
5.83156e-10
5.83152e-10
5.83153e-10
5.83151e-10
5.83151e-10
5.83153e-10
5.83152e-10
5.83156e-10
5.83155e-10
5.83163e-10
5.83162e-10
5.83174e-10
5.83175e-10
5.83195e-10
5.83202e-10
5.83235e-10
5.83252e-10
5.83308e-10
5.83342e-10
5.83431e-10
5.83489e-10
5.83621e-10
5.83677e-10
5.83791e-10
5.83654e-10
5.83339e-10
5.82467e-10
5.80786e-10
5.78758e-10
5.7074e-10
5.72716e-10
5.74318e-10
5.75146e-10
5.7543e-10
5.75548e-10
5.75424e-10
5.75361e-10
5.75225e-10
5.75163e-10
5.75072e-10
5.75036e-10
5.74979e-10
5.74961e-10
5.74927e-10
5.7492e-10
5.749e-10
5.74898e-10
5.74886e-10
5.74887e-10
5.74879e-10
5.7488e-10
5.74875e-10
5.74876e-10
5.74875e-10
5.74875e-10
5.74876e-10
5.74875e-10
5.7488e-10
5.74879e-10
5.74887e-10
5.74886e-10
5.74898e-10
5.749e-10
5.7492e-10
5.74927e-10
5.74961e-10
5.74979e-10
5.75035e-10
5.75072e-10
5.75163e-10
5.75225e-10
5.75361e-10
5.75424e-10
5.75548e-10
5.7543e-10
5.75146e-10
5.74318e-10
5.72716e-10
5.70739e-10
5.62738e-10
5.64659e-10
5.66183e-10
5.66968e-10
5.6722e-10
5.67319e-10
5.67185e-10
5.67114e-10
5.66974e-10
5.66908e-10
5.66815e-10
5.66777e-10
5.66719e-10
5.667e-10
5.66665e-10
5.66658e-10
5.66637e-10
5.66636e-10
5.66623e-10
5.66623e-10
5.66616e-10
5.66616e-10
5.66612e-10
5.66613e-10
5.66611e-10
5.66611e-10
5.66613e-10
5.66612e-10
5.66616e-10
5.66616e-10
5.66623e-10
5.66623e-10
5.66635e-10
5.66637e-10
5.66658e-10
5.66665e-10
5.667e-10
5.66719e-10
5.66777e-10
5.66815e-10
5.66908e-10
5.66974e-10
5.67114e-10
5.67185e-10
5.67319e-10
5.6722e-10
5.66967e-10
5.66182e-10
5.64658e-10
5.62737e-10
5.54742e-10
5.56603e-10
5.5805e-10
5.58793e-10
5.59013e-10
5.59092e-10
5.58947e-10
5.58869e-10
5.58725e-10
5.58655e-10
5.5856e-10
5.58519e-10
5.5846e-10
5.5844e-10
5.58405e-10
5.58397e-10
5.58376e-10
5.58374e-10
5.58362e-10
5.58362e-10
5.58354e-10
5.58354e-10
5.5835e-10
5.58351e-10
5.58349e-10
5.58349e-10
5.58351e-10
5.5835e-10
5.58354e-10
5.58354e-10
5.58362e-10
5.58361e-10
5.58374e-10
5.58376e-10
5.58397e-10
5.58405e-10
5.5844e-10
5.5846e-10
5.58519e-10
5.5856e-10
5.58655e-10
5.58724e-10
5.58869e-10
5.58947e-10
5.59092e-10
5.59012e-10
5.58792e-10
5.5805e-10
5.56603e-10
5.54741e-10
5.4674e-10
5.4854e-10
5.4991e-10
5.5061e-10
5.50797e-10
5.50857e-10
5.50701e-10
5.50615e-10
5.50466e-10
5.50393e-10
5.50295e-10
5.50253e-10
5.50193e-10
5.50171e-10
5.50136e-10
5.50127e-10
5.50105e-10
5.50103e-10
5.50091e-10
5.50091e-10
5.50083e-10
5.50083e-10
5.50079e-10
5.50079e-10
5.50078e-10
5.50078e-10
5.50079e-10
5.50079e-10
5.50083e-10
5.50083e-10
5.5009e-10
5.50091e-10
5.50103e-10
5.50105e-10
5.50127e-10
5.50136e-10
5.50171e-10
5.50193e-10
5.50253e-10
5.50295e-10
5.50393e-10
5.50466e-10
5.50614e-10
5.507e-10
5.50856e-10
5.50796e-10
5.5061e-10
5.49909e-10
5.4854e-10
5.46739e-10
5.38722e-10
5.40459e-10
5.41751e-10
5.4241e-10
5.42563e-10
5.42603e-10
5.42436e-10
5.42341e-10
5.42188e-10
5.42111e-10
5.42011e-10
5.41967e-10
5.41906e-10
5.41883e-10
5.41847e-10
5.41838e-10
5.41816e-10
5.41813e-10
5.41801e-10
5.418e-10
5.41792e-10
5.41793e-10
5.41788e-10
5.41789e-10
5.41787e-10
5.41787e-10
5.41789e-10
5.41788e-10
5.41793e-10
5.41792e-10
5.418e-10
5.418e-10
5.41813e-10
5.41816e-10
5.41838e-10
5.41847e-10
5.41883e-10
5.41906e-10
5.41967e-10
5.42011e-10
5.42111e-10
5.42188e-10
5.42341e-10
5.42435e-10
5.42602e-10
5.42563e-10
5.4241e-10
5.41751e-10
5.40458e-10
5.38721e-10
5.30679e-10
5.32351e-10
5.33566e-10
5.34183e-10
5.34302e-10
5.34321e-10
5.34142e-10
5.3404e-10
5.33882e-10
5.33801e-10
5.33699e-10
5.33653e-10
5.3359e-10
5.33567e-10
5.3353e-10
5.3352e-10
5.33498e-10
5.33495e-10
5.33482e-10
5.33482e-10
5.33474e-10
5.33474e-10
5.3347e-10
5.3347e-10
5.33469e-10
5.33469e-10
5.3347e-10
5.3347e-10
5.33474e-10
5.33474e-10
5.33482e-10
5.33482e-10
5.33495e-10
5.33498e-10
5.3352e-10
5.3353e-10
5.33567e-10
5.3359e-10
5.33653e-10
5.33699e-10
5.33801e-10
5.33882e-10
5.34039e-10
5.34142e-10
5.3432e-10
5.34302e-10
5.34183e-10
5.33565e-10
5.3235e-10
5.30678e-10
5.226e-10
5.24207e-10
5.25345e-10
5.2592e-10
5.26005e-10
5.26002e-10
5.25812e-10
5.25701e-10
5.25539e-10
5.25455e-10
5.2535e-10
5.25302e-10
5.25238e-10
5.25214e-10
5.25176e-10
5.25165e-10
5.25143e-10
5.2514e-10
5.25127e-10
5.25126e-10
5.25118e-10
5.25118e-10
5.25114e-10
5.25114e-10
5.25113e-10
5.25113e-10
5.25114e-10
5.25114e-10
5.25118e-10
5.25118e-10
5.25126e-10
5.25126e-10
5.2514e-10
5.25143e-10
5.25165e-10
5.25176e-10
5.25214e-10
5.25238e-10
5.25301e-10
5.2535e-10
5.25454e-10
5.25539e-10
5.25701e-10
5.25811e-10
5.26001e-10
5.26005e-10
5.2592e-10
5.25345e-10
5.24206e-10
5.22599e-10
5.14477e-10
5.16018e-10
5.17083e-10
5.17614e-10
5.17664e-10
5.17639e-10
5.17436e-10
5.17318e-10
5.17151e-10
5.17062e-10
5.16956e-10
5.16905e-10
5.1684e-10
5.16815e-10
5.16776e-10
5.16765e-10
5.16743e-10
5.16739e-10
5.16726e-10
5.16725e-10
5.16717e-10
5.16717e-10
5.16712e-10
5.16713e-10
5.16711e-10
5.16711e-10
5.16713e-10
5.16712e-10
5.16717e-10
5.16717e-10
5.16725e-10
5.16726e-10
5.16739e-10
5.16743e-10
5.16765e-10
5.16776e-10
5.16815e-10
5.1684e-10
5.16905e-10
5.16956e-10
5.17062e-10
5.17151e-10
5.17317e-10
5.17436e-10
5.17638e-10
5.17664e-10
5.17613e-10
5.17082e-10
5.16018e-10
5.14476e-10
5.06303e-10
5.0778e-10
5.08768e-10
5.09255e-10
5.09271e-10
5.09222e-10
5.09008e-10
5.08881e-10
5.0871e-10
5.08617e-10
5.08508e-10
5.08456e-10
5.0839e-10
5.08363e-10
5.08324e-10
5.08312e-10
5.08289e-10
5.08286e-10
5.08272e-10
5.08271e-10
5.08263e-10
5.08263e-10
5.08258e-10
5.08258e-10
5.08257e-10
5.08257e-10
5.08258e-10
5.08258e-10
5.08263e-10
5.08263e-10
5.08271e-10
5.08272e-10
5.08285e-10
5.08289e-10
5.08312e-10
5.08324e-10
5.08363e-10
5.0839e-10
5.08455e-10
5.08508e-10
5.08617e-10
5.08709e-10
5.0888e-10
5.09008e-10
5.09222e-10
5.0927e-10
5.09254e-10
5.08767e-10
5.07779e-10
5.06302e-10
4.98069e-10
4.99484e-10
5.00392e-10
5.00836e-10
5.00818e-10
5.00745e-10
5.00519e-10
5.00383e-10
5.00208e-10
5.00111e-10
5e-10
4.99945e-10
4.99878e-10
4.99851e-10
4.99811e-10
4.99799e-10
4.99775e-10
4.99771e-10
4.99757e-10
4.99756e-10
4.99748e-10
4.99748e-10
4.99743e-10
4.99744e-10
4.99742e-10
4.99742e-10
4.99744e-10
4.99743e-10
4.99748e-10
4.99748e-10
4.99756e-10
4.99757e-10
4.99771e-10
4.99775e-10
4.99799e-10
4.99811e-10
4.99851e-10
4.99878e-10
4.99945e-10
5e-10
5.00111e-10
5.00207e-10
5.00383e-10
5.00519e-10
5.00745e-10
5.00817e-10
5.00836e-10
5.00392e-10
4.99483e-10
4.98068e-10
4.89768e-10
4.91122e-10
4.91949e-10
4.92351e-10
4.92297e-10
4.922e-10
4.91962e-10
4.91818e-10
4.91638e-10
4.91537e-10
4.91424e-10
4.91367e-10
4.91299e-10
4.9127e-10
4.9123e-10
4.91217e-10
4.91193e-10
4.91189e-10
4.91175e-10
4.91174e-10
4.91165e-10
4.91165e-10
4.91161e-10
4.91161e-10
4.91159e-10
4.91159e-10
4.91161e-10
4.91161e-10
4.91165e-10
4.91165e-10
4.91174e-10
4.91175e-10
4.91189e-10
4.91193e-10
4.91217e-10
4.9123e-10
4.9127e-10
4.91299e-10
4.91367e-10
4.91424e-10
4.91537e-10
4.91637e-10
4.91817e-10
4.91962e-10
4.922e-10
4.92297e-10
4.9235e-10
4.91949e-10
4.91121e-10
4.89767e-10
4.81394e-10
4.82687e-10
4.83432e-10
4.83791e-10
4.83703e-10
4.8358e-10
4.8333e-10
4.83177e-10
4.82992e-10
4.82888e-10
4.82773e-10
4.82714e-10
4.82645e-10
4.82615e-10
4.82574e-10
4.82561e-10
4.82536e-10
4.82532e-10
4.82518e-10
4.82516e-10
4.82508e-10
4.82508e-10
4.82503e-10
4.82503e-10
4.82502e-10
4.82502e-10
4.82503e-10
4.82503e-10
4.82508e-10
4.82508e-10
4.82516e-10
4.82517e-10
4.82532e-10
4.82536e-10
4.82561e-10
4.82574e-10
4.82615e-10
4.82644e-10
4.82714e-10
4.82772e-10
4.82888e-10
4.82992e-10
4.83177e-10
4.83329e-10
4.8358e-10
4.83702e-10
4.8379e-10
4.83431e-10
4.82687e-10
4.81393e-10
4.72939e-10
4.74172e-10
4.74832e-10
4.75149e-10
4.75027e-10
4.74878e-10
4.74616e-10
4.74454e-10
4.74265e-10
4.74157e-10
4.74039e-10
4.73979e-10
4.73908e-10
4.73878e-10
4.73836e-10
4.73822e-10
4.73798e-10
4.73793e-10
4.73779e-10
4.73777e-10
4.73768e-10
4.73768e-10
4.73764e-10
4.73764e-10
4.73762e-10
4.73762e-10
4.73764e-10
4.73764e-10
4.73768e-10
4.73768e-10
4.73777e-10
4.73778e-10
4.73793e-10
4.73798e-10
4.73822e-10
4.73836e-10
4.73878e-10
4.73908e-10
4.73979e-10
4.74039e-10
4.74157e-10
4.74265e-10
4.74454e-10
4.74615e-10
4.74878e-10
4.75026e-10
4.75149e-10
4.74831e-10
4.74172e-10
4.72938e-10
4.64689e-10
4.65874e-10
4.66449e-10
4.66729e-10
4.66572e-10
4.66397e-10
4.66122e-10
4.65952e-10
4.65759e-10
4.65647e-10
4.65527e-10
4.65465e-10
4.65393e-10
4.65362e-10
4.65319e-10
4.65305e-10
4.6528e-10
4.65275e-10
4.6526e-10
4.65259e-10
4.6525e-10
4.6525e-10
4.65245e-10
4.65245e-10
4.65244e-10
4.65244e-10
4.65245e-10
4.65245e-10
4.6525e-10
4.6525e-10
4.65259e-10
4.6526e-10
4.65275e-10
4.6528e-10
4.65305e-10
4.65319e-10
4.65362e-10
4.65393e-10
4.65465e-10
4.65527e-10
4.65647e-10
4.65758e-10
4.65952e-10
4.66122e-10
4.66397e-10
4.66571e-10
4.66728e-10
4.66448e-10
4.65873e-10
4.64688e-10
4.56248e-10
4.5739e-10
4.57854e-10
4.5808e-10
4.57868e-10
4.57652e-10
4.57353e-10
4.57168e-10
4.56965e-10
4.56846e-10
4.56721e-10
4.56655e-10
4.56581e-10
4.56547e-10
4.56503e-10
4.56488e-10
4.56462e-10
4.56457e-10
4.56442e-10
4.5644e-10
4.56431e-10
4.56431e-10
4.56426e-10
4.56426e-10
4.56425e-10
4.56425e-10
4.56426e-10
4.56426e-10
4.56431e-10
4.56431e-10
4.5644e-10
4.56442e-10
4.56457e-10
4.56462e-10
4.56488e-10
4.56503e-10
4.56547e-10
4.5658e-10
4.56655e-10
4.56721e-10
4.56845e-10
4.56964e-10
4.57168e-10
4.57352e-10
4.57651e-10
4.57867e-10
4.5808e-10
4.57853e-10
4.57389e-10
4.56247e-10
4.47549e-10
4.48633e-10
4.4901e-10
4.49194e-10
4.48947e-10
4.487e-10
4.48388e-10
4.48195e-10
4.47987e-10
4.47864e-10
4.47737e-10
4.4767e-10
4.47594e-10
4.4756e-10
4.47515e-10
4.475e-10
4.47474e-10
4.47468e-10
4.47452e-10
4.47451e-10
4.47441e-10
4.47441e-10
4.47436e-10
4.47436e-10
4.47435e-10
4.47435e-10
4.47436e-10
4.47436e-10
4.47441e-10
4.47441e-10
4.47451e-10
4.47452e-10
4.47468e-10
4.47474e-10
4.475e-10
4.47515e-10
4.4756e-10
4.47594e-10
4.4767e-10
4.47737e-10
4.47864e-10
4.47986e-10
4.48194e-10
4.48388e-10
4.48699e-10
4.48946e-10
4.49193e-10
4.49009e-10
4.48632e-10
4.47548e-10
4.38751e-10
4.39775e-10
4.40065e-10
4.40207e-10
4.39925e-10
4.39646e-10
4.39322e-10
4.3912e-10
4.38908e-10
4.38782e-10
4.38653e-10
4.38583e-10
4.38507e-10
4.38471e-10
4.38426e-10
4.3841e-10
4.38384e-10
4.38378e-10
4.38362e-10
4.3836e-10
4.38351e-10
4.38351e-10
4.38346e-10
4.38346e-10
4.38344e-10
4.38344e-10
4.38346e-10
4.38346e-10
4.38351e-10
4.38351e-10
4.3836e-10
4.38362e-10
4.38378e-10
4.38384e-10
4.3841e-10
4.38426e-10
4.38471e-10
4.38506e-10
4.38583e-10
4.38652e-10
4.38781e-10
4.38907e-10
4.39119e-10
4.39322e-10
4.39645e-10
4.39924e-10
4.40206e-10
4.40065e-10
4.39774e-10
4.3875e-10
4.29847e-10
4.30811e-10
4.31016e-10
4.31114e-10
4.30799e-10
4.30484e-10
4.30149e-10
4.29938e-10
4.29722e-10
4.29592e-10
4.29462e-10
4.2939e-10
4.29313e-10
4.29277e-10
4.29231e-10
4.29215e-10
4.29188e-10
4.29182e-10
4.29166e-10
4.29164e-10
4.29155e-10
4.29154e-10
4.29149e-10
4.29149e-10
4.29148e-10
4.29148e-10
4.29149e-10
4.29149e-10
4.29154e-10
4.29154e-10
4.29164e-10
4.29166e-10
4.29182e-10
4.29188e-10
4.29215e-10
4.29231e-10
4.29277e-10
4.29313e-10
4.2939e-10
4.29461e-10
4.29592e-10
4.29722e-10
4.29937e-10
4.30149e-10
4.30483e-10
4.30798e-10
4.31114e-10
4.31015e-10
4.3081e-10
4.29846e-10
4.20834e-10
4.21734e-10
4.21857e-10
4.21911e-10
4.21562e-10
4.2121e-10
4.20864e-10
4.20644e-10
4.20425e-10
4.20291e-10
4.20159e-10
4.20086e-10
4.20008e-10
4.19971e-10
4.19925e-10
4.19908e-10
4.19881e-10
4.19875e-10
4.19859e-10
4.19857e-10
4.19847e-10
4.19847e-10
4.19842e-10
4.19842e-10
4.1984e-10
4.1984e-10
4.19842e-10
4.19842e-10
4.19847e-10
4.19847e-10
4.19856e-10
4.19859e-10
4.19875e-10
4.19881e-10
4.19908e-10
4.19925e-10
4.19971e-10
4.20008e-10
4.20086e-10
4.20159e-10
4.20291e-10
4.20425e-10
4.20644e-10
4.20863e-10
4.21209e-10
4.21561e-10
4.2191e-10
4.21856e-10
4.21733e-10
4.20833e-10
4.1201e-10
4.12858e-10
4.12898e-10
4.12911e-10
4.1253e-10
4.12139e-10
4.11781e-10
4.11553e-10
4.11331e-10
4.11194e-10
4.1106e-10
4.10985e-10
4.10906e-10
4.10869e-10
4.10822e-10
4.10805e-10
4.10777e-10
4.10771e-10
4.10755e-10
4.10752e-10
4.10743e-10
4.10742e-10
4.10737e-10
4.10737e-10
4.10736e-10
4.10736e-10
4.10737e-10
4.10737e-10
4.10742e-10
4.10743e-10
4.10752e-10
4.10755e-10
4.10771e-10
4.10777e-10
4.10805e-10
4.10822e-10
4.10869e-10
4.10906e-10
4.10985e-10
4.1106e-10
4.11193e-10
4.1133e-10
4.11553e-10
4.11781e-10
4.12138e-10
4.12529e-10
4.12911e-10
4.12897e-10
4.12857e-10
4.12009e-10
4.0309e-10
4.03884e-10
4.03843e-10
4.03817e-10
4.03404e-10
4.0297e-10
4.02602e-10
4.02362e-10
4.02122e-10
4.01975e-10
4.01833e-10
4.01754e-10
4.0167e-10
4.0163e-10
4.0158e-10
4.01562e-10
4.01533e-10
4.01526e-10
4.01509e-10
4.01507e-10
4.01497e-10
4.01496e-10
4.01491e-10
4.01491e-10
4.01489e-10
4.01489e-10
4.01491e-10
4.01491e-10
4.01496e-10
4.01497e-10
4.01507e-10
4.01509e-10
4.01526e-10
4.01533e-10
4.01562e-10
4.0158e-10
4.0163e-10
4.0167e-10
4.01754e-10
4.01833e-10
4.01975e-10
4.02122e-10
4.02361e-10
4.02601e-10
4.02969e-10
4.03403e-10
4.03816e-10
4.03842e-10
4.03883e-10
4.03089e-10
3.93805e-10
3.94546e-10
3.94417e-10
3.94342e-10
3.9389e-10
3.934e-10
3.93017e-10
3.92765e-10
3.92519e-10
3.92366e-10
3.92221e-10
3.92139e-10
3.92053e-10
3.92012e-10
3.91961e-10
3.91943e-10
3.91913e-10
3.91906e-10
3.91888e-10
3.91886e-10
3.91875e-10
3.91875e-10
3.91869e-10
3.91869e-10
3.91868e-10
3.91868e-10
3.91869e-10
3.91869e-10
3.91875e-10
3.91875e-10
3.91886e-10
3.91888e-10
3.91905e-10
3.91913e-10
3.91943e-10
3.91962e-10
3.92012e-10
3.92053e-10
3.92139e-10
3.9222e-10
3.92366e-10
3.92518e-10
3.92764e-10
3.93017e-10
3.93399e-10
3.93889e-10
3.94341e-10
3.94416e-10
3.94545e-10
3.93804e-10
3.84361e-10
3.85035e-10
3.84829e-10
3.84709e-10
3.84232e-10
3.84012e-10
3.8362e-10
3.8336e-10
3.8311e-10
3.82955e-10
3.82807e-10
3.82724e-10
3.82637e-10
3.82595e-10
3.82544e-10
3.82525e-10
3.82495e-10
3.82488e-10
3.8247e-10
3.82468e-10
3.82457e-10
3.82457e-10
3.82451e-10
3.82451e-10
3.8245e-10
3.8245e-10
3.82451e-10
3.82451e-10
3.82457e-10
3.82457e-10
3.82467e-10
3.8247e-10
3.82488e-10
3.82495e-10
3.82525e-10
3.82544e-10
3.82595e-10
3.82637e-10
3.82724e-10
3.82807e-10
3.82954e-10
3.8311e-10
3.8336e-10
3.8362e-10
3.84011e-10
3.84231e-10
3.84708e-10
3.84828e-10
3.85034e-10
3.8436e-10
3.75109e-10
3.75725e-10
3.75443e-10
3.75282e-10
3.74776e-10
3.74524e-10
3.74124e-10
3.73856e-10
3.73603e-10
3.73444e-10
3.73295e-10
3.7321e-10
3.73123e-10
3.7308e-10
3.73029e-10
3.73009e-10
3.72979e-10
3.72971e-10
3.72953e-10
3.72951e-10
3.7294e-10
3.7294e-10
3.72934e-10
3.72934e-10
3.72933e-10
3.72933e-10
3.72934e-10
3.72934e-10
3.7294e-10
3.7294e-10
3.72951e-10
3.72953e-10
3.72971e-10
3.72979e-10
3.73009e-10
3.73029e-10
3.7308e-10
3.73123e-10
3.7321e-10
3.73295e-10
3.73443e-10
3.73602e-10
3.73855e-10
3.74123e-10
3.74523e-10
3.74776e-10
3.75281e-10
3.75442e-10
3.75724e-10
3.75108e-10
3.65702e-10
3.66285e-10
3.65914e-10
3.65693e-10
3.65129e-10
3.6483e-10
3.64406e-10
3.64121e-10
3.63857e-10
3.6369e-10
3.63536e-10
3.63448e-10
3.63357e-10
3.63313e-10
3.6326e-10
3.63239e-10
3.63208e-10
3.632e-10
3.63182e-10
3.63179e-10
3.63168e-10
3.63168e-10
3.63162e-10
3.63162e-10
3.6316e-10
3.6316e-10
3.63162e-10
3.63162e-10
3.63167e-10
3.63168e-10
3.63179e-10
3.63182e-10
3.632e-10
3.63208e-10
3.63239e-10
3.6326e-10
3.63313e-10
3.63357e-10
3.63447e-10
3.63536e-10
3.6369e-10
3.63856e-10
3.64121e-10
3.64405e-10
3.64829e-10
3.65128e-10
3.65693e-10
3.65914e-10
3.66284e-10
3.65701e-10
3.56246e-10
3.5677e-10
3.56326e-10
3.56063e-10
3.55467e-10
3.55139e-10
3.54706e-10
3.54414e-10
3.54146e-10
3.53976e-10
3.53821e-10
3.53731e-10
3.5364e-10
3.53595e-10
3.53541e-10
3.53521e-10
3.53489e-10
3.53481e-10
3.53463e-10
3.5346e-10
3.53449e-10
3.53448e-10
3.53443e-10
3.53443e-10
3.53441e-10
3.53441e-10
3.53443e-10
3.53443e-10
3.53448e-10
3.53449e-10
3.5346e-10
3.53463e-10
3.53481e-10
3.53489e-10
3.53521e-10
3.53542e-10
3.53595e-10
3.5364e-10
3.53731e-10
3.53821e-10
3.53976e-10
3.54146e-10
3.54413e-10
3.54705e-10
3.55139e-10
3.55467e-10
3.56063e-10
3.56326e-10
3.56769e-10
3.56244e-10
3.46691e-10
3.47155e-10
3.46643e-10
3.46337e-10
3.45709e-10
3.45354e-10
3.44912e-10
3.44612e-10
3.44342e-10
3.44169e-10
3.44013e-10
3.43922e-10
3.4383e-10
3.43785e-10
3.43731e-10
3.4371e-10
3.43678e-10
3.4367e-10
3.43651e-10
3.43648e-10
3.43637e-10
3.43637e-10
3.43631e-10
3.43631e-10
3.43629e-10
3.43629e-10
3.43631e-10
3.43631e-10
3.43637e-10
3.43637e-10
3.43648e-10
3.43651e-10
3.4367e-10
3.43678e-10
3.4371e-10
3.43731e-10
3.43785e-10
3.4383e-10
3.43922e-10
3.44012e-10
3.44169e-10
3.44341e-10
3.44612e-10
3.44911e-10
3.45354e-10
3.45709e-10
3.46337e-10
3.46643e-10
3.47154e-10
3.4669e-10
3.33751e-10
3.33749e-10
3.33738e-10
3.33737e-10
3.33731e-10
3.33731e-10
3.3373e-10
3.3373e-10
3.33731e-10
3.33731e-10
3.33737e-10
3.33738e-10
3.33749e-10
3.33751e-10
3.3377e-10
3.33779e-10
3.33811e-10
3.33832e-10
3.33886e-10
3.33932e-10
3.34024e-10
3.34116e-10
3.34273e-10
3.34448e-10
3.34721e-10
3.35027e-10
3.35478e-10
3.35858e-10
3.36519e-10
3.36866e-10
3.37445e-10
3.37041e-10
3.23755e-10
3.23756e-10
3.23767e-10
3.23769e-10
3.23788e-10
3.23797e-10
3.23829e-10
3.2385e-10
3.23905e-10
3.23951e-10
3.24044e-10
3.24136e-10
3.24294e-10
3.24472e-10
3.24747e-10
3.25059e-10
3.25518e-10
3.25921e-10
3.26614e-10
3.27002e-10
3.27647e-10
3.27302e-10
3.14239e-10
3.14418e-10
3.14695e-10
3.15013e-10
3.1548e-10
3.15902e-10
3.16628e-10
3.17055e-10
3.17765e-10
3.17479e-10
)
;

boundaryField
{
    fuel
    {
        type            fixedValue;
        value           nonuniform 0();
    }
    wall
    {
        type            zeroGradient;
    }
    outlet
    {
        type            zeroGradient;
    }
    frontAndBack
    {
        type            empty;
    }
    procBoundary0to1
    {
        type            processor;
        value           nonuniform List<scalar> 
50
(
6.83211e-10
6.85824e-10
6.88498e-10
6.89947e-10
6.90579e-10
6.90908e-10
6.90878e-10
6.90902e-10
6.90799e-10
6.90786e-10
6.90712e-10
6.90704e-10
6.90656e-10
6.90653e-10
6.90624e-10
6.90626e-10
6.90607e-10
6.90611e-10
6.906e-10
6.90603e-10
6.90596e-10
6.90598e-10
6.90593e-10
6.90595e-10
6.90594e-10
6.90594e-10
6.90595e-10
6.90593e-10
6.90598e-10
6.90596e-10
6.90603e-10
6.906e-10
6.90611e-10
6.90607e-10
6.90626e-10
6.90624e-10
6.90653e-10
6.90656e-10
6.90703e-10
6.90712e-10
6.90786e-10
6.90799e-10
6.90902e-10
6.90878e-10
6.90907e-10
6.90578e-10
6.89947e-10
6.88498e-10
6.85824e-10
6.8321e-10
)
;
    }
    procBoundary0to2
    {
        type            processor;
        value           nonuniform List<scalar> 
53
(
3.37042e-10
3.37446e-10
3.36867e-10
3.36519e-10
3.35859e-10
3.35479e-10
3.35028e-10
3.34722e-10
3.34449e-10
3.34274e-10
3.34116e-10
3.34024e-10
3.33932e-10
3.33886e-10
3.33832e-10
3.33811e-10
3.33779e-10
3.3377e-10
3.3377e-10
3.23769e-10
3.23767e-10
3.23756e-10
3.23755e-10
3.23749e-10
3.23749e-10
3.23747e-10
3.23747e-10
3.23749e-10
3.23749e-10
3.23749e-10
3.13697e-10
3.13698e-10
3.13709e-10
3.13712e-10
3.13731e-10
3.1374e-10
3.13772e-10
3.13793e-10
3.13848e-10
3.13894e-10
3.13987e-10
3.1408e-10
3.1408e-10
3.04115e-10
3.04297e-10
3.04574e-10
3.04898e-10
3.05371e-10
3.0581e-10
3.06571e-10
3.07033e-10
3.07806e-10
3.0758e-10
)
;
    }
}


// ************************************************************************* //
