/*--------------------------------*- C++ -*----------------------------------*\
| =========                 |                                                 |
| \\      /  F ield         | OpenFOAM: The Open Source CFD Toolbox           |
|  \\    /   O peration     | Version:  dev                                   |
|   \\  /    A nd           | Web:      www.OpenFOAM.org                      |
|    \\/     M anipulation  |                                                 |
\*---------------------------------------------------------------------------*/
FoamFile
{
    version     2.0;
    format      ascii;
    class       volScalarField;
    location    "0.08";
    object      CH3OH;
}
// * * * * * * * * * * * * * * * * * * * * * * * * * * * * * * * * * * * * * //

dimensions      [0 0 0 0 0 0 0];

internalField   nonuniform List<scalar> 
250
(
1.68292e-07
1.68523e-07
1.68249e-07
1.68776e-07
1.68821e-07
1.69524e-07
1.7215e-07
1.72848e-07
1.7129e-07
1.38854e-07
1.63123e-07
1.63379e-07
1.6308e-07
1.63643e-07
1.63684e-07
1.64389e-07
1.67138e-07
1.6754e-07
1.67989e-07
1.41032e-07
2.09937e-07
1.69176e-07
1.6593e-07
1.59005e-07
1.60769e-07
1.57245e-07
1.58874e-07
1.57256e-07
1.58174e-07
1.57404e-07
1.57675e-07
1.57959e-07
1.57631e-07
1.58235e-07
1.58271e-07
1.58984e-07
1.61794e-07
1.62298e-07
1.6414e-07
1.42533e-07
1.99453e-07
1.62478e-07
1.59967e-07
1.53154e-07
1.55095e-07
1.51412e-07
1.53141e-07
1.51423e-07
1.52408e-07
1.51603e-07
1.51868e-07
1.52183e-07
1.51822e-07
1.52471e-07
1.52501e-07
1.5323e-07
1.56088e-07
1.56642e-07
1.59209e-07
1.42951e-07
1.88343e-07
1.55333e-07
1.5364e-07
1.46862e-07
1.49028e-07
1.45131e-07
1.46982e-07
1.45145e-07
1.46208e-07
1.45359e-07
1.45621e-07
1.45971e-07
1.45574e-07
1.46272e-07
1.46293e-07
1.47046e-07
1.49945e-07
1.50486e-07
1.54214e-07
1.42071e-07
1.76578e-07
1.47801e-07
1.46864e-07
1.40058e-07
1.42499e-07
1.38331e-07
1.40325e-07
1.3835e-07
1.39501e-07
1.38598e-07
1.38861e-07
1.39249e-07
1.38812e-07
1.39562e-07
1.39574e-07
1.40363e-07
1.43284e-07
1.43758e-07
1.48514e-07
1.39764e-07
1.64312e-07
1.39299e-07
1.39579e-07
1.3267e-07
1.35455e-07
1.30957e-07
1.33116e-07
1.30984e-07
1.32229e-07
1.31266e-07
1.31532e-07
1.3196e-07
1.31482e-07
1.32283e-07
1.32284e-07
1.33123e-07
1.36032e-07
1.36411e-07
1.42039e-07
1.35983e-07
1.5147e-07
1.30822e-07
1.31751e-07
1.24572e-07
1.27168e-07
1.22983e-07
1.25332e-07
1.23022e-07
1.24361e-07
1.23337e-07
1.23608e-07
1.24075e-07
1.23556e-07
1.24407e-07
1.24394e-07
1.25291e-07
1.28078e-07
1.28442e-07
1.34748e-07
1.30752e-07
1.38063e-07
1.21847e-07
1.23389e-07
1.15968e-07
1.18834e-07
1.14431e-07
1.16799e-07
1.14484e-07
1.15909e-07
1.14827e-07
1.15103e-07
1.15607e-07
1.15051e-07
1.15943e-07
1.15916e-07
1.16543e-07
1.19568e-07
1.19501e-07
1.26637e-07
1.24157e-07
1.25576e-07
1.11887e-07
1.13857e-07
1.06868e-07
1.09948e-07
1.05374e-07
1.07879e-07
1.05438e-07
1.06935e-07
1.05805e-07
1.06086e-07
1.0662e-07
1.06033e-07
1.06955e-07
1.06913e-07
1.07533e-07
1.10518e-07
1.10313e-07
1.17772e-07
1.16342e-07
1.1308e-07
1.02051e-07
1.04403e-07
9.73798e-08
1.00608e-07
9.59375e-08
9.853e-08
9.60126e-08
9.75556e-08
9.63957e-08
9.66762e-08
9.72332e-08
9.66245e-08
9.75609e-08
9.75053e-08
9.8105e-08
1.01028e-07
1.0067e-07
1.08262e-07
1.07516e-07
1.00948e-07
9.20429e-08
9.46257e-08
8.76683e-08
9.09697e-08
8.62976e-08
8.89167e-08
8.63818e-08
8.79397e-08
8.67725e-08
8.70486e-08
8.76165e-08
8.69986e-08
8.79304e-08
8.78631e-08
8.84349e-08
9.12533e-08
9.07529e-08
9.82777e-08
9.78882e-08
8.92997e-08
8.2016e-08
8.47347e-08
7.79335e-08
8.12402e-08
7.66634e-08
7.92476e-08
7.67572e-08
7.82931e-08
7.71462e-08
7.74116e-08
7.79784e-08
7.73644e-08
7.8272e-08
7.81954e-08
7.87281e-08
8.14013e-08
8.0784e-08
8.80483e-08
8.78554e-08
6.79866e-08
6.85415e-08
6.79434e-08
6.88097e-08
6.87249e-08
6.92221e-08
7.1689e-08
7.1e-08
7.78217e-08
7.77039e-08
)
;

boundaryField
{
    fuel
    {
        type            fixedValue;
        value           nonuniform 0();
    }
    wall
    {
        type            zeroGradient;
    }
    outlet
    {
        type            zeroGradient;
    }
    frontAndBack
    {
        type            empty;
    }
    procBoundary0to1
    {
        type            processor;
        value           nonuniform List<scalar> 
21
(
7.8263e-08
7.22226e-08
7.49216e-08
6.84243e-08
7.16347e-08
6.72636e-08
6.97487e-08
6.73614e-08
6.88408e-08
6.77388e-08
6.77388e-08
5.89875e-08
5.95176e-08
5.89494e-08
5.9756e-08
5.96681e-08
6.01214e-08
6.2353e-08
6.16305e-08
6.78786e-08
6.77608e-08
)
;
    }
    procBoundary0to2
    {
        type            processor;
        value           nonuniform List<scalar> 
12
(
1.67995e-07
2.19373e-07
1.76638e-07
1.71619e-07
1.64512e-07
1.66119e-07
1.62714e-07
1.64262e-07
1.62726e-07
1.6359e-07
1.62841e-07
1.62841e-07
)
;
    }
    procBoundary0to3
    {
        type            processor;
        value           nonuniform List<scalar> 10(1.7326e-07 1.73468e-07 1.73217e-07 1.7371e-07 1.7376e-07 1.74462e-07 1.7722e-07 1.77467e-07 1.74226e-07 1.36457e-07);
    }
}


// ************************************************************************* //
