/*--------------------------------*- C++ -*----------------------------------*\
| =========                 |                                                 |
| \\      /  F ield         | OpenFOAM: The Open Source CFD Toolbox           |
|  \\    /   O peration     | Version:  dev                                   |
|   \\  /    A nd           | Web:      www.OpenFOAM.org                      |
|    \\/     M anipulation  |                                                 |
\*---------------------------------------------------------------------------*/
FoamFile
{
    version     2.0;
    format      ascii;
    class       volScalarField;
    location    "0.08";
    object      H2O;
}
// * * * * * * * * * * * * * * * * * * * * * * * * * * * * * * * * * * * * * //

dimensions      [0 0 0 0 0 0 0];

internalField   nonuniform List<scalar> 
2014
(
0.0629745
0.0629966
0.0630176
0.0630283
0.0630324
0.0630347
0.0630341
0.0630344
0.0630336
0.0630337
0.0630331
0.0630332
0.0630328
0.0630329
0.0630327
0.0630328
0.0630326
0.0630327
0.0630326
0.0630327
0.0630326
0.0630326
0.0630326
0.0630326
0.0630326
0.0630326
0.0630326
0.0630326
0.0630326
0.0630326
0.0630327
0.0630326
0.0630327
0.0630326
0.0630328
0.0630327
0.0630329
0.0630328
0.0630332
0.0630331
0.0630337
0.0630336
0.0630344
0.0630341
0.0630347
0.0630324
0.0630283
0.0630176
0.0629966
0.0629745
0.0628733
0.0628953
0.0629159
0.0629265
0.0629305
0.0629328
0.0629322
0.0629325
0.0629316
0.0629317
0.0629311
0.0629312
0.0629308
0.0629309
0.0629307
0.0629308
0.0629306
0.0629307
0.0629306
0.0629307
0.0629306
0.0629306
0.0629306
0.0629306
0.0629306
0.0629306
0.0629306
0.0629306
0.0629306
0.0629306
0.0629307
0.0629306
0.0629307
0.0629306
0.0629308
0.0629307
0.0629309
0.0629308
0.0629312
0.0629311
0.0629317
0.0629316
0.0629325
0.0629322
0.0629328
0.0629305
0.0629264
0.0629159
0.0628953
0.0628733
0.0627741
0.062796
0.0628163
0.0628266
0.0628306
0.0628329
0.0628323
0.0628325
0.0628317
0.0628317
0.0628311
0.0628312
0.0628309
0.0628309
0.0628307
0.0628308
0.0628306
0.0628307
0.0628306
0.0628307
0.0628306
0.0628306
0.0628306
0.0628306
0.0628306
0.0628306
0.0628306
0.0628306
0.0628306
0.0628306
0.0628307
0.0628306
0.0628307
0.0628306
0.0628308
0.0628307
0.0628309
0.0628309
0.0628312
0.0628311
0.0628317
0.0628317
0.0628325
0.0628323
0.0628329
0.0628306
0.0628266
0.0628163
0.062796
0.0627741
0.062677
0.0626988
0.0627186
0.0627288
0.0627327
0.0627349
0.0627343
0.0627345
0.0627336
0.0627337
0.0627331
0.0627332
0.0627328
0.0627329
0.0627326
0.0627327
0.0627326
0.0627326
0.0627326
0.0627326
0.0627325
0.0627326
0.0627325
0.0627326
0.0627326
0.0627326
0.0627326
0.0627325
0.0627326
0.0627325
0.0627326
0.0627326
0.0627326
0.0627326
0.0627327
0.0627326
0.0627329
0.0627328
0.0627332
0.0627331
0.0627337
0.0627336
0.0627345
0.0627343
0.0627349
0.0627327
0.0627288
0.0627186
0.0626988
0.062677
0.0625817
0.0626034
0.0626229
0.0626328
0.0626366
0.0626388
0.0626381
0.0626383
0.0626375
0.0626375
0.0626369
0.062637
0.0626366
0.0626367
0.0626364
0.0626365
0.0626364
0.0626364
0.0626364
0.0626364
0.0626363
0.0626364
0.0626363
0.0626364
0.0626363
0.0626363
0.0626364
0.0626363
0.0626364
0.0626363
0.0626364
0.0626364
0.0626364
0.0626364
0.0626365
0.0626364
0.0626367
0.0626366
0.062637
0.0626369
0.0626375
0.0626375
0.0626383
0.0626381
0.0626388
0.0626366
0.0626328
0.0626229
0.0626034
0.0625817
0.0624884
0.0625099
0.062529
0.0625387
0.0625424
0.0625445
0.0625438
0.062544
0.0625431
0.0625431
0.0625425
0.0625426
0.0625422
0.0625423
0.0625421
0.0625421
0.062542
0.062542
0.062542
0.062542
0.0625419
0.062542
0.0625419
0.062542
0.0625419
0.0625419
0.062542
0.0625419
0.062542
0.0625419
0.062542
0.062542
0.062542
0.062542
0.0625421
0.0625421
0.0625423
0.0625422
0.0625426
0.0625425
0.0625431
0.0625431
0.062544
0.0625438
0.0625445
0.0625424
0.0625387
0.062529
0.0625099
0.0624884
0.0623968
0.0624182
0.0624369
0.0624463
0.0624499
0.0624519
0.0624512
0.0624514
0.0624505
0.0624505
0.0624499
0.0624499
0.0624496
0.0624496
0.0624494
0.0624495
0.0624493
0.0624494
0.0624493
0.0624493
0.0624493
0.0624493
0.0624493
0.0624493
0.0624493
0.0624493
0.0624493
0.0624493
0.0624493
0.0624493
0.0624493
0.0624493
0.0624494
0.0624493
0.0624495
0.0624494
0.0624496
0.0624496
0.0624499
0.0624499
0.0624505
0.0624505
0.0624514
0.0624512
0.0624519
0.0624499
0.0624463
0.0624369
0.0624182
0.0623968
0.0623069
0.0623282
0.0623464
0.0623556
0.062359
0.062361
0.0623603
0.0623604
0.0623596
0.0623595
0.0623589
0.062359
0.0623586
0.0623586
0.0623584
0.0623585
0.0623583
0.0623584
0.0623583
0.0623584
0.0623583
0.0623583
0.0623583
0.0623583
0.0623583
0.0623583
0.0623583
0.0623583
0.0623583
0.0623583
0.0623584
0.0623583
0.0623584
0.0623583
0.0623585
0.0623584
0.0623586
0.0623586
0.062359
0.0623589
0.0623595
0.0623596
0.0623604
0.0623603
0.062361
0.062359
0.0623556
0.0623464
0.0623282
0.0623069
0.0622187
0.0622399
0.0622576
0.0622665
0.0622698
0.0622717
0.062271
0.0622711
0.0622702
0.0622702
0.0622696
0.0622696
0.0622693
0.0622693
0.0622691
0.0622691
0.062269
0.0622691
0.062269
0.062269
0.062269
0.062269
0.062269
0.062269
0.062269
0.062269
0.062269
0.062269
0.062269
0.062269
0.062269
0.062269
0.0622691
0.062269
0.0622691
0.0622691
0.0622693
0.0622693
0.0622696
0.0622696
0.0622702
0.0622702
0.0622711
0.062271
0.0622717
0.0622698
0.0622665
0.0622576
0.0622399
0.0622187
0.0621322
0.0621532
0.0621704
0.062179
0.0621822
0.0621841
0.0621833
0.0621834
0.0621825
0.0621824
0.0621819
0.0621819
0.0621815
0.0621815
0.0621813
0.0621814
0.0621812
0.0621813
0.0621812
0.0621813
0.0621812
0.0621812
0.0621812
0.0621812
0.0621812
0.0621812
0.0621812
0.0621812
0.0621812
0.0621812
0.0621813
0.0621812
0.0621813
0.0621812
0.0621814
0.0621813
0.0621815
0.0621815
0.0621819
0.0621819
0.0621824
0.0621825
0.0621834
0.0621833
0.0621841
0.0621822
0.062179
0.0621704
0.0621532
0.0621322
0.0620472
0.062068
0.0620847
0.0620931
0.0620962
0.0620979
0.0620972
0.0620972
0.0620963
0.0620962
0.0620957
0.0620957
0.0620953
0.0620953
0.0620951
0.0620952
0.062095
0.0620951
0.062095
0.062095
0.062095
0.062095
0.062095
0.062095
0.062095
0.062095
0.062095
0.062095
0.062095
0.062095
0.062095
0.062095
0.0620951
0.062095
0.0620952
0.0620951
0.0620953
0.0620953
0.0620957
0.0620957
0.0620962
0.0620963
0.0620972
0.0620972
0.0620979
0.0620962
0.0620931
0.0620847
0.062068
0.0620472
0.0619639
0.0619843
0.0620005
0.0620087
0.0620116
0.0620133
0.0620125
0.0620125
0.0620117
0.0620115
0.062011
0.0620109
0.0620106
0.0620106
0.0620104
0.0620104
0.0620103
0.0620104
0.0620103
0.0620103
0.0620103
0.0620103
0.0620103
0.0620103
0.0620103
0.0620103
0.0620103
0.0620103
0.0620103
0.0620103
0.0620103
0.0620103
0.0620104
0.0620103
0.0620105
0.0620104
0.0620106
0.0620106
0.0620109
0.062011
0.0620115
0.0620117
0.0620125
0.0620125
0.0620133
0.0620116
0.0620087
0.0620005
0.0619843
0.0619639
0.061882
0.0619021
0.0619178
0.0619257
0.0619285
0.0619301
0.0619293
0.0619293
0.0619284
0.0619283
0.0619277
0.0619277
0.0619274
0.0619274
0.0619272
0.0619272
0.0619271
0.0619271
0.061927
0.0619271
0.061927
0.061927
0.061927
0.061927
0.061927
0.061927
0.061927
0.061927
0.061927
0.061927
0.0619271
0.061927
0.0619271
0.0619271
0.0619272
0.0619272
0.0619274
0.0619274
0.0619277
0.0619277
0.0619283
0.0619284
0.0619293
0.0619293
0.0619301
0.0619285
0.0619257
0.0619178
0.0619021
0.061882
0.0618016
0.0618213
0.0618366
0.0618442
0.0618468
0.0618484
0.0618476
0.0618475
0.0618466
0.0618465
0.0618459
0.0618459
0.0618455
0.0618455
0.0618453
0.0618454
0.0618452
0.0618453
0.0618452
0.0618452
0.0618452
0.0618452
0.0618452
0.0618452
0.0618452
0.0618452
0.0618452
0.0618452
0.0618452
0.0618452
0.0618452
0.0618452
0.0618453
0.0618452
0.0618454
0.0618453
0.0618455
0.0618455
0.0618459
0.0618459
0.0618465
0.0618466
0.0618475
0.0618476
0.0618484
0.0618468
0.0618442
0.0618366
0.0618213
0.0618016
0.0617227
0.0617419
0.0617567
0.061764
0.0617666
0.061768
0.0617672
0.0617671
0.0617662
0.0617661
0.0617655
0.0617654
0.0617651
0.0617651
0.0617649
0.0617649
0.0617648
0.0617648
0.0617648
0.0617648
0.0617647
0.0617648
0.0617647
0.0617647
0.0617647
0.0617647
0.0617647
0.0617647
0.0617648
0.0617647
0.0617648
0.0617648
0.0617648
0.0617648
0.0617649
0.0617649
0.0617651
0.0617651
0.0617654
0.0617655
0.0617661
0.0617662
0.0617671
0.0617672
0.061768
0.0617666
0.061764
0.0617567
0.0617419
0.0617227
0.0616451
0.0616638
0.0616782
0.0616853
0.0616876
0.061689
0.0616882
0.061688
0.0616872
0.061687
0.0616864
0.0616864
0.061686
0.061686
0.0616858
0.0616858
0.0616857
0.0616858
0.0616857
0.0616857
0.0616857
0.0616857
0.0616856
0.0616857
0.0616856
0.0616856
0.0616857
0.0616856
0.0616857
0.0616857
0.0616857
0.0616857
0.0616858
0.0616857
0.0616858
0.0616858
0.061686
0.061686
0.0616864
0.0616864
0.061687
0.0616872
0.061688
0.0616881
0.061689
0.0616876
0.0616853
0.0616782
0.0616638
0.0616451
0.0615689
0.0615871
0.061601
0.0616078
0.06161
0.0616113
0.0616104
0.0616103
0.0616094
0.0616092
0.0616087
0.0616086
0.0616083
0.0616083
0.061608
0.0616081
0.0616079
0.061608
0.0616079
0.0616079
0.0616079
0.0616079
0.0616079
0.0616079
0.0616079
0.0616079
0.0616079
0.0616079
0.0616079
0.0616079
0.0616079
0.0616079
0.061608
0.0616079
0.0616081
0.061608
0.0616083
0.0616083
0.0616086
0.0616087
0.0616092
0.0616094
0.0616103
0.0616104
0.0616113
0.06161
0.0616078
0.061601
0.0615871
0.0615689
0.061494
0.0615116
0.0615251
0.0615317
0.0615337
0.0615349
0.061534
0.0615339
0.061533
0.0615328
0.0615322
0.0615321
0.0615318
0.0615318
0.0615316
0.0615316
0.0615315
0.0615315
0.0615314
0.0615315
0.0615314
0.0615314
0.0615314
0.0615314
0.0615314
0.0615314
0.0615314
0.0615314
0.0615314
0.0615314
0.0615315
0.0615314
0.0615315
0.0615315
0.0615316
0.0615316
0.0615318
0.0615318
0.0615321
0.0615322
0.0615328
0.061533
0.0615339
0.061534
0.0615349
0.0615337
0.0615317
0.0615251
0.0615116
0.061494
0.0614204
0.0614375
0.0614504
0.0614568
0.0614587
0.0614597
0.0614589
0.0614587
0.0614578
0.0614576
0.061457
0.0614569
0.0614566
0.0614566
0.0614564
0.0614564
0.0614563
0.0614563
0.0614562
0.0614563
0.0614562
0.0614562
0.0614562
0.0614562
0.0614562
0.0614562
0.0614562
0.0614562
0.0614562
0.0614562
0.0614563
0.0614562
0.0614563
0.0614563
0.0614564
0.0614564
0.0614566
0.0614566
0.0614569
0.061457
0.0614576
0.0614578
0.0614587
0.0614589
0.0614597
0.0614587
0.0614568
0.0614504
0.0614375
0.0614204
0.061348
0.0613645
0.061377
0.0613831
0.0613849
0.0613858
0.0613849
0.0613847
0.0613839
0.0613836
0.0613831
0.061383
0.0613826
0.0613826
0.0613824
0.0613824
0.0613823
0.0613824
0.0613823
0.0613823
0.0613823
0.0613823
0.0613822
0.0613823
0.0613823
0.0613823
0.0613823
0.0613822
0.0613823
0.0613823
0.0613823
0.0613823
0.0613824
0.0613823
0.0613824
0.0613824
0.0613826
0.0613826
0.061383
0.0613831
0.0613836
0.0613839
0.0613847
0.0613849
0.0613858
0.0613849
0.0613831
0.061377
0.0613645
0.061348
0.0612768
0.0612927
0.0613048
0.0613107
0.0613123
0.0613131
0.0613122
0.061312
0.0613111
0.0613109
0.0613103
0.0613102
0.0613099
0.0613099
0.0613097
0.0613097
0.0613096
0.0613096
0.0613095
0.0613095
0.0613095
0.0613095
0.0613095
0.0613095
0.0613095
0.0613095
0.0613095
0.0613095
0.0613095
0.0613095
0.0613095
0.0613095
0.0613096
0.0613096
0.0613097
0.0613097
0.0613099
0.0613099
0.0613102
0.0613103
0.0613109
0.0613111
0.061312
0.0613122
0.0613131
0.0613122
0.0613107
0.0613048
0.0612927
0.0612768
0.0612068
0.0612222
0.0612338
0.0612394
0.0612408
0.0612416
0.0612407
0.0612404
0.0612396
0.0612393
0.0612388
0.0612386
0.0612383
0.0612383
0.0612381
0.0612381
0.061238
0.061238
0.0612379
0.061238
0.0612379
0.0612379
0.0612379
0.0612379
0.0612379
0.0612379
0.0612379
0.0612379
0.0612379
0.0612379
0.061238
0.0612379
0.061238
0.061238
0.0612381
0.0612381
0.0612383
0.0612383
0.0612386
0.0612388
0.0612393
0.0612396
0.0612404
0.0612407
0.0612416
0.0612408
0.0612394
0.0612338
0.0612222
0.0612068
0.0611379
0.0611528
0.0611639
0.0611692
0.0611706
0.0611712
0.0611703
0.06117
0.0611691
0.0611689
0.0611683
0.0611682
0.0611679
0.0611679
0.0611677
0.0611677
0.0611676
0.0611676
0.0611675
0.0611675
0.0611675
0.0611675
0.0611675
0.0611675
0.0611675
0.0611675
0.0611675
0.0611675
0.0611675
0.0611675
0.0611675
0.0611675
0.0611676
0.0611676
0.0611677
0.0611677
0.0611679
0.0611679
0.0611682
0.0611683
0.0611689
0.0611691
0.06117
0.0611703
0.0611712
0.0611706
0.0611692
0.0611639
0.0611528
0.0611379
0.0610702
0.0610845
0.0610951
0.0611002
0.0611014
0.061102
0.061101
0.0611007
0.0610999
0.0610996
0.061099
0.0610989
0.0610986
0.0610986
0.0610984
0.0610984
0.0610983
0.0610983
0.0610982
0.0610983
0.0610982
0.0610982
0.0610982
0.0610982
0.0610982
0.0610982
0.0610982
0.0610982
0.0610982
0.0610982
0.0610983
0.0610982
0.0610983
0.0610983
0.0610984
0.0610984
0.0610986
0.0610986
0.0610989
0.061099
0.0610996
0.0610999
0.0611007
0.061101
0.061102
0.0611014
0.0611002
0.0610951
0.0610845
0.0610702
0.0610035
0.0610173
0.0610274
0.0610323
0.0610334
0.0610338
0.0610328
0.0610325
0.0610317
0.0610314
0.0610309
0.0610307
0.0610304
0.0610304
0.0610302
0.0610302
0.0610301
0.0610301
0.06103
0.0610301
0.06103
0.06103
0.06103
0.06103
0.06103
0.06103
0.06103
0.06103
0.06103
0.06103
0.0610301
0.06103
0.0610301
0.0610301
0.0610302
0.0610302
0.0610304
0.0610304
0.0610307
0.0610309
0.0610314
0.0610317
0.0610325
0.0610328
0.0610338
0.0610334
0.0610323
0.0610274
0.0610173
0.0610035
0.0609401
0.0609536
0.0609631
0.0609678
0.0609687
0.0609691
0.0609681
0.0609677
0.0609669
0.0609666
0.0609661
0.0609659
0.0609656
0.0609656
0.0609654
0.0609654
0.0609653
0.0609653
0.0609653
0.0609653
0.0609652
0.0609653
0.0609652
0.0609652
0.0609652
0.0609652
0.0609652
0.0609652
0.0609653
0.0609652
0.0609653
0.0609653
0.0609653
0.0609653
0.0609654
0.0609654
0.0609656
0.0609656
0.0609659
0.0609661
0.0609666
0.0609669
0.0609677
0.0609681
0.0609691
0.0609687
0.0609678
0.0609631
0.0609536
0.0609401
0.060877
0.0608901
0.0608989
0.0609033
0.0609039
0.0609041
0.060903
0.0609026
0.0609017
0.0609014
0.0609008
0.0609007
0.0609003
0.0609003
0.0609001
0.0609001
0.0609
0.0609
0.0608999
0.0609
0.0608999
0.0608999
0.0608999
0.0608999
0.0608999
0.0608999
0.0608999
0.0608999
0.0608999
0.0608999
0.0609
0.0608999
0.0609
0.0609
0.0609001
0.0609001
0.0609003
0.0609003
0.0609007
0.0609008
0.0609014
0.0609017
0.0609026
0.060903
0.0609041
0.0609039
0.0609033
0.0608989
0.0608901
0.060877
0.0608137
0.0608263
0.0608346
0.0608388
0.0608393
0.0608393
0.0608382
0.0608377
0.0608369
0.0608365
0.060836
0.0608358
0.0608355
0.0608355
0.0608353
0.0608353
0.0608352
0.0608352
0.0608351
0.0608351
0.0608351
0.0608351
0.0608351
0.0608351
0.0608351
0.0608351
0.0608351
0.0608351
0.0608351
0.0608351
0.0608351
0.0608351
0.0608352
0.0608352
0.0608353
0.0608353
0.0608355
0.0608355
0.0608358
0.060836
0.0608365
0.0608369
0.0608377
0.0608382
0.0608393
0.0608393
0.0608388
0.0608346
0.0608263
0.0608137
0.0607514
0.0607636
0.0607713
0.0607753
0.0607757
0.0607755
0.0607744
0.0607739
0.0607731
0.0607727
0.0607722
0.060772
0.0607717
0.0607717
0.0607715
0.0607715
0.0607714
0.0607714
0.0607713
0.0607713
0.0607713
0.0607713
0.0607713
0.0607713
0.0607713
0.0607713
0.0607713
0.0607713
0.0607713
0.0607713
0.0607713
0.0607713
0.0607714
0.0607714
0.0607715
0.0607715
0.0607717
0.0607717
0.060772
0.0607722
0.0607727
0.0607731
0.0607739
0.0607744
0.0607755
0.0607757
0.0607753
0.0607713
0.0607636
0.0607514
0.0606901
0.0607018
0.0607089
0.0607128
0.060713
0.0607127
0.0607116
0.0607111
0.0607102
0.0607099
0.0607094
0.0607092
0.0607089
0.0607088
0.0607086
0.0607086
0.0607085
0.0607086
0.0607085
0.0607085
0.0607085
0.0607085
0.0607085
0.0607085
0.0607085
0.0607085
0.0607085
0.0607085
0.0607085
0.0607085
0.0607085
0.0607085
0.0607086
0.0607085
0.0607086
0.0607086
0.0607088
0.0607089
0.0607092
0.0607094
0.0607099
0.0607102
0.0607111
0.0607116
0.0607127
0.060713
0.0607128
0.0607089
0.0607018
0.0606901
0.0606297
0.0606409
0.0606476
0.0606512
0.0606513
0.0606508
0.0606497
0.0606492
0.0606484
0.060648
0.0606475
0.0606473
0.060647
0.060647
0.0606468
0.0606468
0.0606467
0.0606467
0.0606466
0.0606466
0.0606466
0.0606466
0.0606466
0.0606466
0.0606466
0.0606466
0.0606466
0.0606466
0.0606466
0.0606466
0.0606466
0.0606466
0.0606467
0.0606467
0.0606468
0.0606468
0.060647
0.060647
0.0606473
0.0606475
0.060648
0.0606484
0.0606492
0.0606497
0.0606508
0.0606513
0.0606512
0.0606476
0.0606409
0.0606297
0.0605723
0.060583
0.0605892
0.0605926
0.0605926
0.060592
0.0605908
0.0605903
0.0605895
0.0605891
0.0605886
0.0605884
0.0605881
0.0605881
0.0605879
0.0605879
0.0605878
0.0605878
0.0605877
0.0605878
0.0605877
0.0605877
0.0605877
0.0605877
0.0605877
0.0605877
0.0605877
0.0605877
0.0605877
0.0605877
0.0605878
0.0605877
0.0605878
0.0605878
0.0605879
0.0605879
0.0605881
0.0605881
0.0605884
0.0605886
0.0605891
0.0605895
0.0605903
0.0605908
0.0605919
0.0605926
0.0605926
0.0605892
0.060583
0.0605723
0.0605158
0.0605261
0.0605318
0.060535
0.060535
0.0605341
0.0605329
0.0605324
0.0605315
0.0605311
0.0605305
0.0605303
0.06053
0.0605299
0.0605297
0.0605297
0.0605296
0.0605296
0.0605296
0.0605296
0.0605296
0.0605296
0.0605295
0.0605296
0.0605295
0.0605295
0.0605296
0.0605295
0.0605296
0.0605296
0.0605296
0.0605296
0.0605296
0.0605296
0.0605297
0.0605297
0.0605299
0.06053
0.0605303
0.0605305
0.0605311
0.0605315
0.0605324
0.0605329
0.0605341
0.060535
0.060535
0.0605318
0.0605261
0.0605158
0.0604586
0.0604685
0.0604737
0.0604767
0.0604765
0.0604753
0.0604741
0.0604735
0.0604726
0.0604722
0.0604717
0.0604715
0.0604711
0.0604711
0.0604709
0.0604709
0.0604707
0.0604708
0.0604707
0.0604707
0.0604707
0.0604707
0.0604707
0.0604707
0.0604707
0.0604707
0.0604707
0.0604707
0.0604707
0.0604707
0.0604707
0.0604707
0.0604708
0.0604707
0.0604709
0.0604709
0.0604711
0.0604711
0.0604715
0.0604717
0.0604722
0.0604726
0.0604735
0.0604741
0.0604753
0.0604765
0.0604767
0.0604737
0.0604685
0.0604586
0.060402
0.0604114
0.0604162
0.060419
0.0604187
0.0604192
0.0604181
0.0604174
0.0604165
0.0604161
0.0604156
0.0604154
0.060415
0.060415
0.0604148
0.0604148
0.0604146
0.0604147
0.0604146
0.0604146
0.0604146
0.0604146
0.0604146
0.0604146
0.0604146
0.0604146
0.0604146
0.0604146
0.0604146
0.0604146
0.0604146
0.0604146
0.0604147
0.0604146
0.0604148
0.0604148
0.060415
0.060415
0.0604154
0.0604156
0.0604161
0.0604165
0.0604174
0.0604181
0.0604192
0.0604187
0.060419
0.0604162
0.0604114
0.060402
0.0603481
0.060357
0.0603614
0.060364
0.0603637
0.0603641
0.0603629
0.0603623
0.0603614
0.0603609
0.0603604
0.0603602
0.0603599
0.0603598
0.0603596
0.0603596
0.0603595
0.0603595
0.0603594
0.0603595
0.0603594
0.0603594
0.0603594
0.0603594
0.0603594
0.0603594
0.0603594
0.0603594
0.0603594
0.0603594
0.0603595
0.0603594
0.0603595
0.0603595
0.0603596
0.0603596
0.0603598
0.0603599
0.0603602
0.0603604
0.0603609
0.0603614
0.0603623
0.0603629
0.0603641
0.0603637
0.060364
0.0603614
0.060357
0.0603481
0.0602947
0.0603034
0.0603073
0.0603096
0.0603091
0.0603092
0.060308
0.0603072
0.0603063
0.0603059
0.0603053
0.0603051
0.0603048
0.0603047
0.0603045
0.0603045
0.0603043
0.0603044
0.0603043
0.0603043
0.0603043
0.0603043
0.0603043
0.0603043
0.0603043
0.0603043
0.0603043
0.0603043
0.0603043
0.0603043
0.0603043
0.0603043
0.0603044
0.0603043
0.0603045
0.0603045
0.0603047
0.0603048
0.0603051
0.0603053
0.0603059
0.0603063
0.0603072
0.060308
0.0603092
0.0603091
0.0603096
0.0603073
0.0603034
0.0602947
0.0602425
0.0602508
0.0602543
0.0602564
0.0602558
0.0602558
0.0602546
0.0602538
0.0602529
0.0602524
0.0602519
0.0602517
0.0602513
0.0602512
0.060251
0.060251
0.0602509
0.0602509
0.0602509
0.0602509
0.0602508
0.0602509
0.0602508
0.0602508
0.0602508
0.0602508
0.0602508
0.0602508
0.0602509
0.0602508
0.0602509
0.0602509
0.0602509
0.0602509
0.060251
0.060251
0.0602512
0.0602513
0.0602517
0.0602519
0.0602524
0.0602529
0.0602538
0.0602546
0.0602558
0.0602558
0.0602564
0.0602543
0.0602508
0.0602425
0.0601912
0.0601991
0.0602021
0.0602041
0.0602034
0.0602033
0.060202
0.0602013
0.0602003
0.0601999
0.0601993
0.0601991
0.0601988
0.0601987
0.0601985
0.0601985
0.0601984
0.0601984
0.0601983
0.0601983
0.0601983
0.0601983
0.0601983
0.0601983
0.0601983
0.0601983
0.0601983
0.0601983
0.0601983
0.0601983
0.0601983
0.0601983
0.0601984
0.0601984
0.0601985
0.0601985
0.0601987
0.0601988
0.0601991
0.0601993
0.0601999
0.0602003
0.0602012
0.060202
0.0602033
0.0602034
0.0602041
0.0602021
0.0601991
0.0601912
0.0601466
0.0601466
0.0601466
0.0601466
0.0601466
0.0601466
0.0601466
0.0601466
0.0601466
0.0601466
0.0601466
0.0601466
0.0601466
0.0601466
0.0601467
0.0601466
0.0601468
0.0601468
0.060147
0.0601471
0.0601474
0.0601476
0.0601481
0.0601486
0.0601495
0.0601503
0.0601516
0.0601518
0.0601526
0.0601507
0.0601481
0.0601406
0.0600957
0.0600957
0.0600957
0.0600957
0.0600958
0.0600958
0.0600959
0.0600959
0.0600961
0.0600962
0.0600965
0.0600967
0.0600973
0.0600977
0.0600986
0.0600994
0.0601007
0.060101
0.0601019
0.0601002
0.060098
0.0600909
0.0600472
0.0600477
0.0600485
0.0600493
0.0600506
0.060051
0.060052
0.0600505
0.0600486
0.0600419
)
;

boundaryField
{
    fuel
    {
        type            fixedValue;
        value           nonuniform 0();
    }
    wall
    {
        type            zeroGradient;
    }
    outlet
    {
        type            zeroGradient;
    }
    frontAndBack
    {
        type            empty;
    }
    procBoundary0to1
    {
        type            processor;
        value           nonuniform List<scalar> 
50
(
0.0630778
0.0631001
0.0631213
0.0631322
0.0631364
0.0631388
0.0631381
0.0631385
0.0631376
0.0631377
0.0631372
0.0631373
0.0631369
0.063137
0.0631368
0.0631369
0.0631367
0.0631368
0.0631367
0.0631368
0.0631367
0.0631367
0.0631367
0.0631367
0.0631367
0.0631367
0.0631367
0.0631367
0.0631367
0.0631367
0.0631368
0.0631367
0.0631368
0.0631367
0.0631369
0.0631368
0.063137
0.0631369
0.0631373
0.0631372
0.0631377
0.0631376
0.0631385
0.0631381
0.0631388
0.0631364
0.0631322
0.0631213
0.0631001
0.0630778
)
;
    }
    procBoundary0to2
    {
        type            processor;
        value           nonuniform List<scalar> 
53
(
0.0601406
0.0601481
0.0601507
0.0601526
0.0601518
0.0601516
0.0601503
0.0601495
0.0601486
0.0601482
0.0601476
0.0601474
0.0601471
0.060147
0.0601468
0.0601468
0.0601466
0.0601467
0.0601467
0.0600957
0.0600957
0.0600957
0.0600957
0.0600957
0.0600957
0.0600957
0.0600957
0.0600957
0.0600957
0.0600957
0.0600456
0.0600456
0.0600456
0.0600456
0.0600457
0.0600457
0.0600458
0.0600458
0.060046
0.0600461
0.0600464
0.0600466
0.0600466
0.0599979
0.0599984
0.0599992
0.0600001
0.0600013
0.0600018
0.0600029
0.0600015
0.0600001
0.0599937
)
;
    }
}


// ************************************************************************* //
