/*--------------------------------*- C++ -*----------------------------------*\
| =========                 |                                                 |
| \\      /  F ield         | OpenFOAM: The Open Source CFD Toolbox           |
|  \\    /   O peration     | Version:  dev                                   |
|   \\  /    A nd           | Web:      www.OpenFOAM.org                      |
|    \\/     M anipulation  |                                                 |
\*---------------------------------------------------------------------------*/
FoamFile
{
    version     2.0;
    format      ascii;
    class       volScalarField;
    location    "0.08";
    object      n-A1C2H2;
}
// * * * * * * * * * * * * * * * * * * * * * * * * * * * * * * * * * * * * * //

dimensions      [0 0 0 0 0 0 0];

internalField   nonuniform List<scalar> 
250
(
1.29141e-11
1.29173e-11
1.28987e-11
1.2911e-11
1.29332e-11
1.31354e-11
1.39919e-11
1.84669e-11
4.33675e-11
2.15804e-10
1.2588e-11
1.25878e-11
1.25724e-11
1.25804e-11
1.26025e-11
1.2788e-11
1.35801e-11
1.76077e-11
3.8751e-11
1.72228e-10
7.65042e-11
3.61059e-11
1.6852e-11
1.33963e-11
1.25772e-11
1.24147e-11
1.23849e-11
1.23804e-11
1.23907e-11
1.24056e-11
1.23906e-11
1.23868e-11
1.23748e-11
1.23783e-11
1.24006e-11
1.25697e-11
1.33037e-11
1.69087e-11
3.4795e-11
1.38932e-10
6.38435e-11
3.21398e-11
1.62905e-11
1.32258e-11
1.24888e-11
1.23344e-11
1.23065e-11
1.23062e-11
1.23119e-11
1.23295e-11
1.23168e-11
1.23092e-11
1.23008e-11
1.22997e-11
1.23223e-11
1.24758e-11
1.31556e-11
1.63665e-11
3.14338e-11
1.12343e-10
5.40942e-11
2.87893e-11
1.5892e-11
1.31776e-11
1.25175e-11
1.23707e-11
1.23445e-11
1.23484e-11
1.23497e-11
1.237e-11
1.23593e-11
1.23479e-11
1.23432e-11
1.23376e-11
1.23608e-11
1.24996e-11
1.31275e-11
1.59746e-11
2.86011e-11
9.23221e-11
4.64915e-11
2.63684e-11
1.56435e-11
1.32421e-11
1.26528e-11
1.25132e-11
1.24885e-11
1.24961e-11
1.24934e-11
1.25163e-11
1.25072e-11
1.24924e-11
1.24912e-11
1.24814e-11
1.25054e-11
1.26307e-11
1.32087e-11
1.57226e-11
2.64566e-11
7.68293e-11
4.05045e-11
2.43863e-11
1.55248e-11
1.3404e-11
1.28788e-11
1.27462e-11
1.27228e-11
1.27335e-11
1.27273e-11
1.27524e-11
1.27446e-11
1.27268e-11
1.27287e-11
1.27156e-11
1.27402e-11
1.28534e-11
1.33835e-11
1.55934e-11
2.45777e-11
6.29729e-11
3.57702e-11
2.28555e-11
1.55108e-11
1.36461e-11
1.31736e-11
1.30484e-11
1.3026e-11
1.30388e-11
1.30299e-11
1.30563e-11
1.30497e-11
1.30297e-11
1.3034e-11
1.30186e-11
1.30436e-11
1.31463e-11
1.36359e-11
1.55662e-11
2.31312e-11
5.3221e-11
3.20207e-11
2.16536e-11
1.55729e-11
1.39332e-11
1.35144e-11
1.33995e-11
1.33785e-11
1.33925e-11
1.33817e-11
1.34084e-11
1.3403e-11
1.33815e-11
1.33877e-11
1.33712e-11
1.33959e-11
1.34859e-11
1.39248e-11
1.56156e-11
2.1955e-11
4.48584e-11
2.90498e-11
2.07106e-11
1.56752e-11
1.4242e-11
1.38622e-11
1.37542e-11
1.37334e-11
1.37464e-11
1.37358e-11
1.3761e-11
1.37562e-11
1.37351e-11
1.37415e-11
1.37259e-11
1.37503e-11
1.38342e-11
1.42306e-11
1.56988e-11
2.09245e-11
3.87e-11
2.66969e-11
1.99687e-11
1.57999e-11
1.45499e-11
1.42027e-11
1.41018e-11
1.40813e-11
1.40923e-11
1.40828e-11
1.41057e-11
1.41013e-11
1.40813e-11
1.40871e-11
1.40736e-11
1.40972e-11
1.41762e-11
1.45321e-11
1.58059e-11
2.01236e-11
3.38438e-11
2.48435e-11
1.93906e-11
1.59381e-11
1.48509e-11
1.45329e-11
1.44399e-11
1.44198e-11
1.44287e-11
1.44203e-11
1.4441e-11
1.44368e-11
1.44181e-11
1.44232e-11
1.4412e-11
1.44345e-11
1.45086e-11
1.48258e-11
1.59276e-11
1.94714e-11
3.00367e-11
2.34188e-11
1.89744e-11
1.61123e-11
1.51699e-11
1.48824e-11
1.47983e-11
1.4779e-11
1.47869e-11
1.47785e-11
1.47988e-11
1.47945e-11
1.47759e-11
1.47814e-11
1.47712e-11
1.47929e-11
1.486e-11
1.51404e-11
1.60858e-11
1.89787e-11
2.70997e-11
1.52586e-11
1.52369e-11
1.52458e-11
1.52331e-11
1.5255e-11
1.53105e-11
1.55555e-11
1.63517e-11
1.87079e-11
2.49311e-11
)
;

boundaryField
{
    fuel
    {
        type            fixedValue;
        value           nonuniform 0();
    }
    wall
    {
        type            zeroGradient;
    }
    outlet
    {
        type            zeroGradient;
    }
    frontAndBack
    {
        type            empty;
    }
    procBoundary0to1
    {
        type            processor;
        value           nonuniform List<scalar> 
21
(
2.24126e-11
1.87667e-11
1.6396e-11
1.55809e-11
1.53308e-11
1.52574e-11
1.52394e-11
1.52493e-11
1.52377e-11
1.52618e-11
1.52618e-11
1.5988e-11
1.59576e-11
1.59752e-11
1.59538e-11
1.59787e-11
1.60141e-11
1.62262e-11
1.68668e-11
1.87936e-11
2.35252e-11
)
;
    }
    procBoundary0to2
    {
        type            processor;
        value           nonuniform List<scalar> 
12
(
1.29345e-11
9.3438e-11
4.0458e-11
1.75861e-11
1.36952e-11
1.27896e-11
1.26185e-11
1.25867e-11
1.25781e-11
1.25928e-11
1.26056e-11
1.26056e-11
)
;
    }
    procBoundary0to3
    {
        type            processor;
        value           nonuniform List<scalar> 10(1.33734e-11 1.33797e-11 1.33583e-11 1.33745e-11 1.33971e-11 1.36163e-11 1.45344e-11 1.96435e-11 4.86682e-11 2.69314e-10);
    }
}


// ************************************************************************* //
