/*--------------------------------*- C++ -*----------------------------------*\
| =========                 |                                                 |
| \\      /  F ield         | OpenFOAM: The Open Source CFD Toolbox           |
|  \\    /   O peration     | Version:  dev                                   |
|   \\  /    A nd           | Web:      www.OpenFOAM.org                      |
|    \\/     M anipulation  |                                                 |
\*---------------------------------------------------------------------------*/
FoamFile
{
    version     2.0;
    format      ascii;
    class       volScalarField;
    location    "0.08";
    object      N2;
}
// * * * * * * * * * * * * * * * * * * * * * * * * * * * * * * * * * * * * * //

dimensions      [0 0 0 0 0 0 0];

internalField   nonuniform List<scalar> 
2014
(
1.05117e-05
1.03471e-05
1.02229e-05
1.01662e-05
1.01632e-05
1.01716e-05
1.02005e-05
1.02185e-05
1.02419e-05
1.02549e-05
1.02698e-05
1.02776e-05
1.02868e-05
1.02911e-05
1.02967e-05
1.02989e-05
1.03022e-05
1.03032e-05
1.0305e-05
1.03055e-05
1.03067e-05
1.0307e-05
1.03077e-05
1.03079e-05
1.03081e-05
1.03082e-05
1.03079e-05
1.03078e-05
1.03069e-05
1.03065e-05
1.03052e-05
1.03047e-05
1.03027e-05
1.03016e-05
1.02983e-05
1.02962e-05
1.02907e-05
1.02864e-05
1.02773e-05
1.02696e-05
1.02547e-05
1.02418e-05
1.02184e-05
1.02005e-05
1.01717e-05
1.01634e-05
1.01665e-05
1.02233e-05
1.03477e-05
1.05123e-05
1.13276e-05
1.11553e-05
1.10291e-05
1.0972e-05
1.09713e-05
1.09817e-05
1.10133e-05
1.10331e-05
1.10583e-05
1.10723e-05
1.10884e-05
1.10967e-05
1.11067e-05
1.11113e-05
1.11173e-05
1.11197e-05
1.11233e-05
1.11243e-05
1.11263e-05
1.11268e-05
1.11281e-05
1.11284e-05
1.11292e-05
1.11294e-05
1.11296e-05
1.11297e-05
1.11294e-05
1.11292e-05
1.11283e-05
1.11279e-05
1.11265e-05
1.11259e-05
1.11237e-05
1.11227e-05
1.11191e-05
1.11167e-05
1.11109e-05
1.11063e-05
1.10965e-05
1.10882e-05
1.10721e-05
1.10581e-05
1.10329e-05
1.10133e-05
1.09817e-05
1.09715e-05
1.09723e-05
1.10295e-05
1.11559e-05
1.13282e-05
1.22016e-05
1.2021e-05
1.18937e-05
1.18363e-05
1.18383e-05
1.18509e-05
1.18856e-05
1.19071e-05
1.19344e-05
1.19495e-05
1.19668e-05
1.19758e-05
1.19865e-05
1.19915e-05
1.1998e-05
1.20006e-05
1.20044e-05
1.20054e-05
1.20076e-05
1.20081e-05
1.20095e-05
1.20099e-05
1.20107e-05
1.20109e-05
1.20112e-05
1.20112e-05
1.2011e-05
1.20107e-05
1.20098e-05
1.20093e-05
1.20078e-05
1.20072e-05
1.20049e-05
1.20037e-05
1.19998e-05
1.19973e-05
1.1991e-05
1.19861e-05
1.19756e-05
1.19666e-05
1.19493e-05
1.19342e-05
1.1907e-05
1.18855e-05
1.1851e-05
1.18385e-05
1.18366e-05
1.18942e-05
1.20216e-05
1.22023e-05
1.31375e-05
1.29482e-05
1.28207e-05
1.27631e-05
1.27683e-05
1.27834e-05
1.28213e-05
1.28449e-05
1.28742e-05
1.28906e-05
1.29092e-05
1.29189e-05
1.29304e-05
1.29358e-05
1.29427e-05
1.29455e-05
1.29496e-05
1.29508e-05
1.2953e-05
1.29536e-05
1.29551e-05
1.29555e-05
1.29564e-05
1.29566e-05
1.29569e-05
1.2957e-05
1.29567e-05
1.29564e-05
1.29554e-05
1.29549e-05
1.29533e-05
1.29526e-05
1.29501e-05
1.29488e-05
1.29447e-05
1.2942e-05
1.29352e-05
1.293e-05
1.29187e-05
1.2909e-05
1.28904e-05
1.2874e-05
1.28447e-05
1.28213e-05
1.27835e-05
1.27685e-05
1.27635e-05
1.28212e-05
1.29489e-05
1.31383e-05
1.41397e-05
1.39413e-05
1.38139e-05
1.37568e-05
1.37656e-05
1.37834e-05
1.38249e-05
1.38506e-05
1.38822e-05
1.39e-05
1.39199e-05
1.39304e-05
1.39427e-05
1.39485e-05
1.3956e-05
1.39589e-05
1.39634e-05
1.39646e-05
1.3967e-05
1.39676e-05
1.39693e-05
1.39697e-05
1.39706e-05
1.39708e-05
1.39712e-05
1.39712e-05
1.39709e-05
1.39707e-05
1.39695e-05
1.3969e-05
1.39673e-05
1.39666e-05
1.39639e-05
1.39625e-05
1.39581e-05
1.39552e-05
1.39479e-05
1.39422e-05
1.39301e-05
1.39197e-05
1.38998e-05
1.3882e-05
1.38505e-05
1.38249e-05
1.37835e-05
1.37658e-05
1.37573e-05
1.38145e-05
1.39421e-05
1.41406e-05
1.52123e-05
1.50045e-05
1.48782e-05
1.48219e-05
1.48347e-05
1.48556e-05
1.4901e-05
1.4929e-05
1.4963e-05
1.49822e-05
1.50036e-05
1.50149e-05
1.50281e-05
1.50344e-05
1.50423e-05
1.50455e-05
1.50503e-05
1.50516e-05
1.50542e-05
1.50548e-05
1.50566e-05
1.5057e-05
1.50581e-05
1.50583e-05
1.50587e-05
1.50587e-05
1.50584e-05
1.50581e-05
1.50569e-05
1.50563e-05
1.50545e-05
1.50537e-05
1.50508e-05
1.50494e-05
1.50446e-05
1.50415e-05
1.50337e-05
1.50276e-05
1.50146e-05
1.50034e-05
1.4982e-05
1.49628e-05
1.49288e-05
1.4901e-05
1.48558e-05
1.4835e-05
1.48224e-05
1.48789e-05
1.50054e-05
1.52133e-05
1.63599e-05
1.61426e-05
1.60183e-05
1.59631e-05
1.59805e-05
1.60048e-05
1.60544e-05
1.60849e-05
1.61215e-05
1.61422e-05
1.61652e-05
1.61774e-05
1.61914e-05
1.61982e-05
1.62067e-05
1.62102e-05
1.62153e-05
1.62167e-05
1.62195e-05
1.62201e-05
1.6222e-05
1.62225e-05
1.62236e-05
1.62238e-05
1.62243e-05
1.62243e-05
1.6224e-05
1.62237e-05
1.62223e-05
1.62217e-05
1.62197e-05
1.62189e-05
1.62159e-05
1.62143e-05
1.62092e-05
1.62059e-05
1.61975e-05
1.6191e-05
1.6177e-05
1.6165e-05
1.6142e-05
1.61213e-05
1.60847e-05
1.60543e-05
1.6005e-05
1.59808e-05
1.59636e-05
1.60191e-05
1.61436e-05
1.63611e-05
1.75876e-05
1.73607e-05
1.72393e-05
1.71855e-05
1.72081e-05
1.72363e-05
1.72903e-05
1.73235e-05
1.73629e-05
1.73852e-05
1.74098e-05
1.74229e-05
1.7438e-05
1.74453e-05
1.74544e-05
1.74582e-05
1.74636e-05
1.74651e-05
1.74681e-05
1.74688e-05
1.74708e-05
1.74713e-05
1.74725e-05
1.74728e-05
1.74732e-05
1.74733e-05
1.74729e-05
1.74726e-05
1.74711e-05
1.74705e-05
1.74684e-05
1.74675e-05
1.74642e-05
1.74625e-05
1.74571e-05
1.74535e-05
1.74446e-05
1.74375e-05
1.74226e-05
1.74096e-05
1.7385e-05
1.73626e-05
1.73233e-05
1.72902e-05
1.72365e-05
1.72085e-05
1.71861e-05
1.72402e-05
1.73617e-05
1.75888e-05
1.89003e-05
1.8664e-05
1.85466e-05
1.84946e-05
1.8523e-05
1.85554e-05
1.86142e-05
1.86503e-05
1.86926e-05
1.87167e-05
1.87431e-05
1.87572e-05
1.87734e-05
1.87812e-05
1.87909e-05
1.87949e-05
1.88008e-05
1.88024e-05
1.88056e-05
1.88063e-05
1.88085e-05
1.8809e-05
1.88103e-05
1.88106e-05
1.8811e-05
1.88111e-05
1.88107e-05
1.88104e-05
1.88088e-05
1.88081e-05
1.88058e-05
1.88049e-05
1.88014e-05
1.87996e-05
1.87938e-05
1.879e-05
1.87804e-05
1.87728e-05
1.87569e-05
1.87429e-05
1.87165e-05
1.86924e-05
1.86502e-05
1.86142e-05
1.85556e-05
1.85234e-05
1.84953e-05
1.85475e-05
1.86651e-05
1.89017e-05
2.03037e-05
2.00581e-05
1.99458e-05
1.9896e-05
1.99309e-05
1.99679e-05
2.00319e-05
2.00712e-05
2.01166e-05
2.01426e-05
2.01709e-05
2.0186e-05
2.02033e-05
2.02117e-05
2.02221e-05
2.02264e-05
2.02326e-05
2.02344e-05
2.02378e-05
2.02386e-05
2.02409e-05
2.02414e-05
2.02428e-05
2.02431e-05
2.02437e-05
2.02437e-05
2.02433e-05
2.0243e-05
2.02413e-05
2.02405e-05
2.02381e-05
2.02371e-05
2.02333e-05
2.02314e-05
2.02252e-05
2.02211e-05
2.02109e-05
2.02027e-05
2.01857e-05
2.01707e-05
2.01424e-05
2.01164e-05
2.00711e-05
2.00319e-05
1.99682e-05
1.99314e-05
1.98968e-05
1.99468e-05
2.00594e-05
2.03052e-05
2.18034e-05
2.15492e-05
2.14429e-05
2.13958e-05
2.14379e-05
2.14801e-05
2.15497e-05
2.15924e-05
2.16411e-05
2.16691e-05
2.16993e-05
2.17156e-05
2.17341e-05
2.1743e-05
2.17542e-05
2.17588e-05
2.17655e-05
2.17674e-05
2.17709e-05
2.17718e-05
2.17743e-05
2.17749e-05
2.17764e-05
2.17767e-05
2.17772e-05
2.17773e-05
2.17769e-05
2.17765e-05
2.17747e-05
2.17738e-05
2.17713e-05
2.17702e-05
2.17662e-05
2.17642e-05
2.17575e-05
2.17531e-05
2.17422e-05
2.17335e-05
2.17153e-05
2.16991e-05
2.16688e-05
2.16408e-05
2.15922e-05
2.15497e-05
2.14804e-05
2.14385e-05
2.13967e-05
2.14441e-05
2.15506e-05
2.18051e-05
2.34058e-05
2.31436e-05
2.30444e-05
2.30004e-05
2.30506e-05
2.30984e-05
2.31739e-05
2.32203e-05
2.32725e-05
2.33027e-05
2.3335e-05
2.33525e-05
2.33722e-05
2.33818e-05
2.33938e-05
2.33987e-05
2.34059e-05
2.34078e-05
2.34117e-05
2.34126e-05
2.34152e-05
2.34159e-05
2.34174e-05
2.34178e-05
2.34184e-05
2.34185e-05
2.3418e-05
2.34176e-05
2.34156e-05
2.34147e-05
2.3412e-05
2.34109e-05
2.34066e-05
2.34044e-05
2.33973e-05
2.33926e-05
2.33809e-05
2.33716e-05
2.33521e-05
2.33348e-05
2.33024e-05
2.32723e-05
2.32201e-05
2.3174e-05
2.30987e-05
2.30512e-05
2.30014e-05
2.30457e-05
2.31451e-05
2.34076e-05
2.51171e-05
2.48479e-05
2.47569e-05
2.47167e-05
2.47757e-05
2.48297e-05
2.49116e-05
2.49619e-05
2.50179e-05
2.50503e-05
2.50849e-05
2.51036e-05
2.51247e-05
2.5135e-05
2.51478e-05
2.51531e-05
2.51607e-05
2.51628e-05
2.51669e-05
2.51678e-05
2.51707e-05
2.51713e-05
2.5173e-05
2.51734e-05
2.51741e-05
2.51742e-05
2.51737e-05
2.51733e-05
2.51711e-05
2.51701e-05
2.51672e-05
2.5166e-05
2.51615e-05
2.51591e-05
2.51516e-05
2.51465e-05
2.5134e-05
2.51241e-05
2.51033e-05
2.50847e-05
2.50501e-05
2.50176e-05
2.49617e-05
2.49117e-05
2.48301e-05
2.47764e-05
2.47178e-05
2.47583e-05
2.48496e-05
2.51192e-05
2.69445e-05
2.66692e-05
2.65877e-05
2.65518e-05
2.66204e-05
2.66813e-05
2.67701e-05
2.68246e-05
2.68846e-05
2.69194e-05
2.69563e-05
2.69764e-05
2.69989e-05
2.70099e-05
2.70236e-05
2.70292e-05
2.70374e-05
2.70396e-05
2.70439e-05
2.70449e-05
2.7048e-05
2.70487e-05
2.70505e-05
2.70509e-05
2.70516e-05
2.70518e-05
2.70513e-05
2.70508e-05
2.70484e-05
2.70474e-05
2.70443e-05
2.7043e-05
2.70382e-05
2.70357e-05
2.70276e-05
2.70222e-05
2.70089e-05
2.69982e-05
2.69761e-05
2.69562e-05
2.69191e-05
2.68842e-05
2.68244e-05
2.67702e-05
2.66817e-05
2.66212e-05
2.65531e-05
2.65892e-05
2.66711e-05
2.69468e-05
2.88953e-05
2.8615e-05
2.85441e-05
2.85134e-05
2.85923e-05
2.86609e-05
2.8757e-05
2.8816e-05
2.88802e-05
2.89176e-05
2.8957e-05
2.89786e-05
2.90025e-05
2.90144e-05
2.90289e-05
2.9035e-05
2.90437e-05
2.90461e-05
2.90506e-05
2.90517e-05
2.90549e-05
2.90557e-05
2.90577e-05
2.90581e-05
2.90588e-05
2.9059e-05
2.90585e-05
2.90579e-05
2.90554e-05
2.90543e-05
2.9051e-05
2.90497e-05
2.90445e-05
2.90418e-05
2.90332e-05
2.90275e-05
2.90133e-05
2.90018e-05
2.89783e-05
2.89569e-05
2.89174e-05
2.88799e-05
2.88158e-05
2.87571e-05
2.86614e-05
2.85933e-05
2.85148e-05
2.85458e-05
2.86171e-05
2.88978e-05
3.09774e-05
3.06929e-05
3.06342e-05
3.06095e-05
3.06996e-05
3.07766e-05
3.08806e-05
3.09444e-05
3.1013e-05
3.10532e-05
3.10953e-05
3.11183e-05
3.11439e-05
3.11565e-05
3.1172e-05
3.11785e-05
3.11878e-05
3.11904e-05
3.11952e-05
3.11963e-05
3.11997e-05
3.12006e-05
3.12026e-05
3.12031e-05
3.12039e-05
3.12041e-05
3.12035e-05
3.1203e-05
3.12002e-05
3.11991e-05
3.11956e-05
3.11942e-05
3.11886e-05
3.11858e-05
3.11766e-05
3.11705e-05
3.11554e-05
3.11431e-05
3.1118e-05
3.10951e-05
3.10529e-05
3.10127e-05
3.09442e-05
3.08807e-05
3.07772e-05
3.07006e-05
3.0611e-05
3.06361e-05
3.06952e-05
3.09801e-05
3.31989e-05
3.29112e-05
3.28664e-05
3.28484e-05
3.29508e-05
3.3037e-05
3.31493e-05
3.32183e-05
3.32917e-05
3.33348e-05
3.33796e-05
3.34043e-05
3.34315e-05
3.3445e-05
3.34615e-05
3.34685e-05
3.34784e-05
3.34811e-05
3.34862e-05
3.34874e-05
3.34911e-05
3.3492e-05
3.34942e-05
3.34947e-05
3.34955e-05
3.34957e-05
3.34951e-05
3.34946e-05
3.34916e-05
3.34904e-05
3.34866e-05
3.34851e-05
3.34792e-05
3.34762e-05
3.34665e-05
3.34599e-05
3.34438e-05
3.34308e-05
3.3404e-05
3.33795e-05
3.33345e-05
3.32913e-05
3.32181e-05
3.31495e-05
3.30377e-05
3.2952e-05
3.28501e-05
3.28685e-05
3.29138e-05
3.32019e-05
3.55687e-05
3.52787e-05
3.52495e-05
3.52392e-05
3.53549e-05
3.54511e-05
3.55724e-05
3.56469e-05
3.57253e-05
3.57715e-05
3.58192e-05
3.58456e-05
3.58746e-05
3.5889e-05
3.59066e-05
3.5914e-05
3.59246e-05
3.59275e-05
3.59328e-05
3.59341e-05
3.5938e-05
3.5939e-05
3.59413e-05
3.59419e-05
3.59428e-05
3.5943e-05
3.59424e-05
3.59418e-05
3.59386e-05
3.59373e-05
3.59333e-05
3.59317e-05
3.59255e-05
3.59222e-05
3.59119e-05
3.59048e-05
3.58877e-05
3.58738e-05
3.58454e-05
3.58192e-05
3.57712e-05
3.57249e-05
3.56467e-05
3.55727e-05
3.54519e-05
3.53562e-05
3.52411e-05
3.52518e-05
3.52815e-05
3.55719e-05
3.80958e-05
3.78045e-05
3.77928e-05
3.77911e-05
3.79214e-05
3.80286e-05
3.81594e-05
3.82398e-05
3.83234e-05
3.83729e-05
3.84237e-05
3.8452e-05
3.84827e-05
3.84981e-05
3.85169e-05
3.85248e-05
3.8536e-05
3.85392e-05
3.85448e-05
3.85461e-05
3.85503e-05
3.85513e-05
3.85538e-05
3.85544e-05
3.85554e-05
3.85556e-05
3.8555e-05
3.85543e-05
3.85509e-05
3.85495e-05
3.85452e-05
3.85436e-05
3.85369e-05
3.85335e-05
3.85225e-05
3.8515e-05
3.84968e-05
3.84819e-05
3.84517e-05
3.84237e-05
3.83726e-05
3.8323e-05
3.82396e-05
3.81597e-05
3.80295e-05
3.79229e-05
3.77932e-05
3.77953e-05
3.78076e-05
3.80994e-05
4.07902e-05
4.04981e-05
4.05062e-05
4.05143e-05
4.06603e-05
4.07795e-05
4.09204e-05
4.1007e-05
4.10962e-05
4.11492e-05
4.12032e-05
4.12334e-05
4.12661e-05
4.12825e-05
4.13024e-05
4.13109e-05
4.13229e-05
4.13263e-05
4.13321e-05
4.13335e-05
4.1338e-05
4.13391e-05
4.13417e-05
4.13423e-05
4.13434e-05
4.13436e-05
4.1343e-05
4.13423e-05
4.13385e-05
4.13371e-05
4.13326e-05
4.13308e-05
4.13238e-05
4.13201e-05
4.13084e-05
4.13004e-05
4.12811e-05
4.12653e-05
4.12331e-05
4.12033e-05
4.11489e-05
4.10957e-05
4.10068e-05
4.09207e-05
4.07805e-05
4.06619e-05
4.05165e-05
4.0509e-05
4.05015e-05
4.07941e-05
4.36618e-05
4.33699e-05
4.34e-05
4.3419e-05
4.35821e-05
4.37144e-05
4.38659e-05
4.39593e-05
4.40542e-05
4.4111e-05
4.41684e-05
4.42006e-05
4.42353e-05
4.42528e-05
4.4274e-05
4.4283e-05
4.42958e-05
4.42994e-05
4.43055e-05
4.4307e-05
4.43118e-05
4.43129e-05
4.43158e-05
4.43164e-05
4.43175e-05
4.43178e-05
4.43171e-05
4.43165e-05
4.43123e-05
4.43108e-05
4.4306e-05
4.43042e-05
4.42967e-05
4.42928e-05
4.42804e-05
4.42719e-05
4.42514e-05
4.42345e-05
4.42004e-05
4.41685e-05
4.41107e-05
4.40537e-05
4.39591e-05
4.38663e-05
4.37155e-05
4.35839e-05
4.34215e-05
4.34031e-05
4.33736e-05
4.36661e-05
4.67215e-05
4.64305e-05
4.64851e-05
4.65163e-05
4.66978e-05
4.68444e-05
4.70073e-05
4.71078e-05
4.72088e-05
4.72695e-05
4.73305e-05
4.73648e-05
4.74017e-05
4.74203e-05
4.74428e-05
4.74524e-05
4.7466e-05
4.74699e-05
4.74762e-05
4.74778e-05
4.74829e-05
4.74841e-05
4.74871e-05
4.74878e-05
4.7489e-05
4.74893e-05
4.74886e-05
4.74879e-05
4.74835e-05
4.74818e-05
4.74768e-05
4.74749e-05
4.74669e-05
4.74627e-05
4.74496e-05
4.74405e-05
4.74188e-05
4.74008e-05
4.73647e-05
4.73307e-05
4.72691e-05
4.72083e-05
4.71076e-05
4.70078e-05
4.68457e-05
4.66999e-05
4.65191e-05
4.64885e-05
4.64347e-05
4.67261e-05
4.99803e-05
4.96916e-05
4.9773e-05
4.98178e-05
5.00192e-05
5.01814e-05
5.03562e-05
5.04642e-05
5.05717e-05
5.06366e-05
5.07012e-05
5.07378e-05
5.07769e-05
5.07968e-05
5.08206e-05
5.08309e-05
5.08453e-05
5.08495e-05
5.08561e-05
5.08578e-05
5.08632e-05
5.08645e-05
5.08677e-05
5.08684e-05
5.08697e-05
5.087e-05
5.08693e-05
5.08686e-05
5.08637e-05
5.0862e-05
5.08567e-05
5.08546e-05
5.08462e-05
5.08418e-05
5.08278e-05
5.08182e-05
5.07952e-05
5.07761e-05
5.07377e-05
5.07015e-05
5.06362e-05
5.05711e-05
5.04641e-05
5.03567e-05
5.01829e-05
5.00214e-05
4.98209e-05
4.97767e-05
4.96961e-05
4.99854e-05
5.34501e-05
5.3165e-05
5.32757e-05
5.33357e-05
5.35583e-05
5.37376e-05
5.3925e-05
5.40411e-05
5.41552e-05
5.42245e-05
5.4293e-05
5.43321e-05
5.43735e-05
5.43946e-05
5.44199e-05
5.44309e-05
5.44462e-05
5.44506e-05
5.44574e-05
5.44593e-05
5.4465e-05
5.44664e-05
5.44698e-05
5.44706e-05
5.44719e-05
5.44723e-05
5.44716e-05
5.44708e-05
5.44655e-05
5.44637e-05
5.44581e-05
5.4456e-05
5.44471e-05
5.44423e-05
5.44276e-05
5.44174e-05
5.43929e-05
5.43726e-05
5.4332e-05
5.42934e-05
5.42241e-05
5.41546e-05
5.40409e-05
5.39256e-05
5.37393e-05
5.35608e-05
5.33391e-05
5.32798e-05
5.317e-05
5.34557e-05
5.71433e-05
5.68635e-05
5.70057e-05
5.70828e-05
5.73281e-05
5.75261e-05
5.77266e-05
5.78513e-05
5.79724e-05
5.80464e-05
5.8119e-05
5.81605e-05
5.82043e-05
5.82268e-05
5.82536e-05
5.82653e-05
5.82816e-05
5.82864e-05
5.82934e-05
5.82953e-05
5.83014e-05
5.83029e-05
5.83065e-05
5.83073e-05
5.83088e-05
5.83092e-05
5.83085e-05
5.83077e-05
5.83019e-05
5.83e-05
5.82941e-05
5.82919e-05
5.82824e-05
5.82774e-05
5.82618e-05
5.82509e-05
5.82251e-05
5.82035e-05
5.81606e-05
5.81195e-05
5.80459e-05
5.79717e-05
5.78512e-05
5.77274e-05
5.75279e-05
5.73309e-05
5.70865e-05
5.70103e-05
5.68689e-05
5.71493e-05
6.0938e-05
6.06612e-05
6.08371e-05
6.09311e-05
6.12006e-05
6.1418e-05
6.16325e-05
6.17659e-05
6.18944e-05
6.1973e-05
6.20498e-05
6.20939e-05
6.21403e-05
6.21641e-05
6.21924e-05
6.22049e-05
6.22222e-05
6.22272e-05
6.22345e-05
6.22365e-05
6.2243e-05
6.22446e-05
6.22484e-05
6.22493e-05
6.22508e-05
6.22513e-05
6.22505e-05
6.22498e-05
6.22434e-05
6.22414e-05
6.22353e-05
6.22329e-05
6.2223e-05
6.22177e-05
6.22011e-05
6.21896e-05
6.21623e-05
6.21394e-05
6.2094e-05
6.20505e-05
6.19724e-05
6.18936e-05
6.17658e-05
6.16335e-05
6.14201e-05
6.12037e-05
6.09353e-05
6.08421e-05
6.06671e-05
6.09446e-05
6.50239e-05
6.47484e-05
6.49727e-05
6.50937e-05
6.53992e-05
6.56452e-05
6.58801e-05
6.6026e-05
6.6165e-05
6.62502e-05
6.6333e-05
6.63806e-05
6.64305e-05
6.64562e-05
6.64867e-05
6.65e-05
6.65187e-05
6.65242e-05
6.65318e-05
6.6534e-05
6.6541e-05
6.65427e-05
6.65468e-05
6.65477e-05
6.65494e-05
6.65499e-05
6.65491e-05
6.65484e-05
6.65414e-05
6.65393e-05
6.65327e-05
6.65302e-05
6.65195e-05
6.65138e-05
6.6496e-05
6.64837e-05
6.64543e-05
6.64297e-05
6.63808e-05
6.63339e-05
6.62496e-05
6.61641e-05
6.60259e-05
6.58812e-05
6.56475e-05
6.54026e-05
6.50982e-05
6.49782e-05
6.47549e-05
6.50311e-05
6.94515e-05
6.91867e-05
6.94508e-05
6.95951e-05
6.99287e-05
7.01996e-05
7.04502e-05
7.06064e-05
7.07535e-05
7.08443e-05
7.09318e-05
7.09824e-05
7.10351e-05
7.10623e-05
7.10945e-05
7.11088e-05
7.11286e-05
7.11346e-05
7.11422e-05
7.11446e-05
7.1152e-05
7.11538e-05
7.11582e-05
7.11592e-05
7.11609e-05
7.11615e-05
7.11607e-05
7.116e-05
7.11523e-05
7.11501e-05
7.11433e-05
7.11406e-05
7.11293e-05
7.11233e-05
7.11045e-05
7.10914e-05
7.10604e-05
7.10342e-05
7.09827e-05
7.09328e-05
7.08436e-05
7.07526e-05
7.06063e-05
7.04514e-05
7.02022e-05
6.99326e-05
6.96001e-05
6.94567e-05
6.91937e-05
6.94593e-05
7.41574e-05
7.39055e-05
7.42126e-05
7.43823e-05
7.47457e-05
7.50438e-05
7.53107e-05
7.54779e-05
7.56335e-05
7.57301e-05
7.58224e-05
7.58762e-05
7.59317e-05
7.59607e-05
7.59947e-05
7.60099e-05
7.60309e-05
7.60373e-05
7.6045e-05
7.60476e-05
7.60554e-05
7.60574e-05
7.6062e-05
7.6063e-05
7.60649e-05
7.60655e-05
7.60647e-05
7.60641e-05
7.60557e-05
7.60534e-05
7.60462e-05
7.60434e-05
7.60315e-05
7.60251e-05
7.60053e-05
7.59914e-05
7.59587e-05
7.59309e-05
7.58766e-05
7.58237e-05
7.57293e-05
7.56324e-05
7.54779e-05
7.53122e-05
7.50468e-05
7.47499e-05
7.43878e-05
7.42191e-05
7.39132e-05
7.41659e-05
7.91571e-05
7.89203e-05
7.92748e-05
7.94715e-05
7.98662e-05
8.01944e-05
8.04782e-05
8.06569e-05
8.08212e-05
8.0924e-05
8.10213e-05
8.10784e-05
8.11369e-05
8.11677e-05
8.12035e-05
8.12197e-05
8.12419e-05
8.12489e-05
8.12566e-05
8.12594e-05
8.12677e-05
8.12698e-05
8.12746e-05
8.12758e-05
8.12778e-05
8.12784e-05
8.12776e-05
8.1277e-05
8.12678e-05
8.12655e-05
8.12579e-05
8.12551e-05
8.12425e-05
8.12357e-05
8.12148e-05
8.12001e-05
8.11656e-05
8.11362e-05
8.1079e-05
8.10229e-05
8.0923e-05
8.082e-05
8.06569e-05
8.04798e-05
8.01976e-05
7.98709e-05
7.94775e-05
7.9282e-05
7.89286e-05
7.91664e-05
8.4467e-05
8.42486e-05
8.46531e-05
8.48796e-05
8.53071e-05
8.56683e-05
8.59696e-05
8.61606e-05
8.63339e-05
8.64432e-05
8.65456e-05
8.66062e-05
8.66678e-05
8.67004e-05
8.67382e-05
8.67554e-05
8.67789e-05
8.67865e-05
8.67941e-05
8.67972e-05
8.68059e-05
8.68081e-05
8.68133e-05
8.68145e-05
8.68166e-05
8.68173e-05
8.68165e-05
8.6816e-05
8.68059e-05
8.68035e-05
8.67957e-05
8.67926e-05
8.67794e-05
8.67722e-05
8.67502e-05
8.67346e-05
8.66983e-05
8.66671e-05
8.6607e-05
8.65475e-05
8.64419e-05
8.63326e-05
8.61607e-05
8.59715e-05
8.5672e-05
8.53123e-05
8.48862e-05
8.4661e-05
8.42577e-05
8.44771e-05
8.99155e-05
8.97117e-05
9.01715e-05
9.04267e-05
9.08886e-05
9.12848e-05
9.16043e-05
9.18077e-05
9.19905e-05
9.21063e-05
9.22142e-05
9.22782e-05
9.23431e-05
9.23775e-05
9.24174e-05
9.24356e-05
9.24605e-05
9.24687e-05
9.24761e-05
9.24795e-05
9.24888e-05
9.24911e-05
9.24965e-05
9.24978e-05
9.25e-05
9.25008e-05
9.25e-05
9.24997e-05
9.24884e-05
9.24861e-05
9.24779e-05
9.24747e-05
9.24608e-05
9.24533e-05
9.24301e-05
9.24136e-05
9.23754e-05
9.23425e-05
9.22792e-05
9.22165e-05
9.21048e-05
9.1989e-05
9.18079e-05
9.16065e-05
9.12889e-05
9.08943e-05
9.04339e-05
9.01801e-05
8.97215e-05
8.99264e-05
9.56858e-05
9.54982e-05
9.60189e-05
9.63042e-05
9.68019e-05
9.72368e-05
9.7575e-05
9.77942e-05
9.79955e-05
9.81227e-05
9.82408e-05
9.83106e-05
9.83816e-05
9.84189e-05
9.84624e-05
9.8482e-05
9.85094e-05
9.85185e-05
9.85261e-05
9.85298e-05
9.85399e-05
9.85424e-05
9.85483e-05
9.85496e-05
9.8552e-05
9.85529e-05
9.85521e-05
9.85519e-05
9.85393e-05
9.85371e-05
9.85282e-05
9.85249e-05
9.85097e-05
9.85016e-05
9.84762e-05
9.84585e-05
9.84167e-05
9.8381e-05
9.83119e-05
9.82435e-05
9.8121e-05
9.79939e-05
9.77945e-05
9.75775e-05
9.72413e-05
9.68083e-05
9.63121e-05
9.60283e-05
9.55089e-05
9.56977e-05
0.000101977
0.000101808
0.000102397
0.000102722
0.000103264
0.000103747
0.000104108
0.000104345
0.000104559
0.000104695
0.000104821
0.000104895
0.000104971
0.000105011
0.000105057
0.000105078
0.000105107
0.000105117
0.000105124
0.000105128
0.000105139
0.000105142
0.000105148
0.00010515
0.000105152
0.000105153
0.000105152
0.000105152
0.000105138
0.000105136
0.000105127
0.000105123
0.000105107
0.000105099
0.000105072
0.000105053
0.000105008
0.00010497
0.000104897
0.000104824
0.000104693
0.000104557
0.000104345
0.000104111
0.000103752
0.000103271
0.000102731
0.000102408
0.00010182
0.00010199
0.000108676
0.000108537
0.000109194
0.000109557
0.000110137
0.000110437
0.000110818
0.000111069
0.000111295
0.000111439
0.000111571
0.00011165
0.000111729
0.000111771
0.00011182
0.000111842
0.000111873
0.000111884
0.00011189
0.000111895
0.000111906
0.000111909
0.000111916
0.000111917
0.00011192
0.000111921
0.00011192
0.000111921
0.000111905
0.000111903
0.000111893
0.00011189
0.000111873
0.000111864
0.000111835
0.000111815
0.000111769
0.000111729
0.000111652
0.000111575
0.000111437
0.000111293
0.00011107
0.000110821
0.000110443
0.000110144
0.000109567
0.000109205
0.000108549
0.00010869
0.000115542
0.000115432
0.000116158
0.000116562
0.000117183
0.000117518
0.00011792
0.000118186
0.000118423
0.000118576
0.000118714
0.000118797
0.000118881
0.000118925
0.000118976
0.000118999
0.000119032
0.000119044
0.00011905
0.000119055
0.000119067
0.00011907
0.000119077
0.000119079
0.000119082
0.000119083
0.000119082
0.000119083
0.000119065
0.000119064
0.000119054
0.00011905
0.000119032
0.000119022
0.000118993
0.000118972
0.000118923
0.00011888
0.0001188
0.000118719
0.000118573
0.000118421
0.000118187
0.000117923
0.000117524
0.000117192
0.000116572
0.000116171
0.000115446
0.000115557
0.000122845
0.000122748
0.000123556
0.00012402
0.000124711
0.000125092
0.000125528
0.000125818
0.000126074
0.000126239
0.000126388
0.000126477
0.000126566
0.000126614
0.000126669
0.000126694
0.000126729
0.000126743
0.000126748
0.000126754
0.000126767
0.00012677
0.000126777
0.000126779
0.000126782
0.000126783
0.000126782
0.000126784
0.000126764
0.000126763
0.000126752
0.000126748
0.000126729
0.000126719
0.000126687
0.000126664
0.000126612
0.000126566
0.00012648
0.000126393
0.000126235
0.000126072
0.000125819
0.000125532
0.000125099
0.00012472
0.000124031
0.000123569
0.000122763
0.000122862
0.000130524
0.000130463
0.000131346
0.000131859
0.000132602
0.000133018
0.000133478
0.000133786
0.000134055
0.000134229
0.000134385
0.000134479
0.000134573
0.000134623
0.00013468
0.000134707
0.000134744
0.000134759
0.000134763
0.000134769
0.000134783
0.000134787
0.000134794
0.000134796
0.000134799
0.000134801
0.0001348
0.000134802
0.00013478
0.000134779
0.000134768
0.000134764
0.000134744
0.000134733
0.000134699
0.000134676
0.000134621
0.000134573
0.000134482
0.000134391
0.000134224
0.000134052
0.000133787
0.000133483
0.000133026
0.000132612
0.000131871
0.000131361
0.000130479
0.000130542
0.000138638
0.000138619
0.000139578
0.000140145
0.000140944
0.000141396
0.000141882
0.000142208
0.00014249
0.000142674
0.000142837
0.000142936
0.000143035
0.000143087
0.000143148
0.000143175
0.000143215
0.000143231
0.000143234
0.000143241
0.000143256
0.000143259
0.000143267
0.000143269
0.000143273
0.000143274
0.000143273
0.000143276
0.000143252
0.000143251
0.000143239
0.000143235
0.000143214
0.000143203
0.000143168
0.000143143
0.000143085
0.000143035
0.00014294
0.000142845
0.000142668
0.000142487
0.000142209
0.000141887
0.000141405
0.000140956
0.000140158
0.000139594
0.000138637
0.000138657
0.000152182
0.00015219
0.000152206
0.000152209
0.000152218
0.00015222
0.000152224
0.000152225
0.000152224
0.000152228
0.000152201
0.000152201
0.000152189
0.000152185
0.000152162
0.000152151
0.000152114
0.000152088
0.000152027
0.000151974
0.000151875
0.000151775
0.000151588
0.000151399
0.000151108
0.000150767
0.000150258
0.000149773
0.000148914
0.000148294
0.000147254
0.000147229
0.00016165
0.000161651
0.000161639
0.000161634
0.000161611
0.000161599
0.00016156
0.000161533
0.000161469
0.000161414
0.00016131
0.000161206
0.000161008
0.00016081
0.000160505
0.000160144
0.000159608
0.000159087
0.000158162
0.000157483
0.000156354
0.00015628
0.000170951
0.000170743
0.000170425
0.000170043
0.000169478
0.000168921
0.000167924
0.000167184
0.000165959
0.000165831
)
;

boundaryField
{
    fuel
    {
        type            fixedValue;
        value           nonuniform 0();
    }
    wall
    {
        type            zeroGradient;
    }
    outlet
    {
        type            zeroGradient;
    }
    frontAndBack
    {
        type            empty;
    }
    procBoundary0to1
    {
        type            processor;
        value           nonuniform List<scalar> 
50
(
9.74781e-06
9.59043e-06
9.46881e-06
9.4129e-06
9.40789e-06
9.41457e-06
9.44086e-06
9.45733e-06
9.47899e-06
9.49091e-06
9.50481e-06
9.51196e-06
9.52055e-06
9.52457e-06
9.52976e-06
9.53182e-06
9.5349e-06
9.53576e-06
9.53751e-06
9.53792e-06
9.53906e-06
9.53934e-06
9.54001e-06
9.54015e-06
9.5404e-06
9.54042e-06
9.54022e-06
9.54004e-06
9.53927e-06
9.53889e-06
9.53769e-06
9.53718e-06
9.53531e-06
9.53437e-06
9.53128e-06
9.52927e-06
9.52416e-06
9.52025e-06
9.51175e-06
9.50465e-06
9.49077e-06
9.47886e-06
9.45723e-06
9.44083e-06
9.41465e-06
9.40806e-06
9.41319e-06
9.46921e-06
9.59092e-06
9.74838e-06
)
;
    }
    procBoundary0to2
    {
        type            processor;
        value           nonuniform List<scalar> 
53
(
0.00014718
0.000147207
0.000148248
0.000148871
0.000149732
0.000150219
0.000150732
0.000151077
0.000151373
0.000151566
0.000151738
0.000151842
0.000151945
0.000152
0.000152063
0.000152093
0.000152134
0.000152153
0.000152153
0.000161601
0.00016161
0.000161626
0.00016163
0.000161639
0.000161641
0.000161644
0.000161646
0.000161645
0.000161649
0.000161649
0.000171591
0.000171593
0.00017158
0.000171575
0.000171551
0.000171538
0.000171498
0.000171469
0.000171402
0.000171345
0.000171235
0.000171127
0.000171127
0.000181406
0.000181189
0.000180856
0.000180454
0.000179858
0.000179265
0.00017819
0.000177388
0.00017606
0.000175872
)
;
    }
}


// ************************************************************************* //
