/*--------------------------------*- C++ -*----------------------------------*\
| =========                 |                                                 |
| \\      /  F ield         | OpenFOAM: The Open Source CFD Toolbox           |
|  \\    /   O peration     | Version:  dev                                   |
|   \\  /    A nd           | Web:      www.OpenFOAM.org                      |
|    \\/     M anipulation  |                                                 |
\*---------------------------------------------------------------------------*/
FoamFile
{
    version     2.0;
    format      ascii;
    class       volScalarField;
    location    "0.08";
    object      O;
}
// * * * * * * * * * * * * * * * * * * * * * * * * * * * * * * * * * * * * * //

dimensions      [0 0 0 0 0 0 0];

internalField   nonuniform List<scalar> 
25
(
2.89842e-05
3.99783e-05
4.42267e-05
4.54325e-05
4.44116e-05
4.19813e-05
3.89677e-05
3.59877e-05
3.32642e-05
3.09527e-05
2.89382e-05
2.71891e-05
2.55895e-05
2.40965e-05
2.26778e-05
2.13097e-05
1.99805e-05
1.86865e-05
1.74291e-05
1.6212e-05
1.50396e-05
1.39162e-05
1.28453e-05
1.18293e-05
1.08698e-05
)
;

boundaryField
{
    wall
    {
        type            zeroGradient;
    }
    fuel
    {
        type            fixedValue;
        value           uniform 0;
    }
    outlet
    {
        type            inletOutlet;
        inletValue      nonuniform 0();
        value           nonuniform 0();
    }
    procBoundary0to1
    {
        type            processor;
        value           uniform 9.96813e-06;
    }
}


// ************************************************************************* //
