/*--------------------------------*- C++ -*----------------------------------*\
| =========                 |                                                 |
| \\      /  F ield         | OpenFOAM: The Open Source CFD Toolbox           |
|  \\    /   O peration     | Version:  dev                                   |
|   \\  /    A nd           | Web:      www.OpenFOAM.org                      |
|    \\/     M anipulation  |                                                 |
\*---------------------------------------------------------------------------*/
FoamFile
{
    version     2.0;
    format      ascii;
    class       volScalarField;
    location    "0.08";
    object      PC3H4;
}
// * * * * * * * * * * * * * * * * * * * * * * * * * * * * * * * * * * * * * //

dimensions      [0 0 0 0 0 0 0];

internalField   nonuniform List<scalar> 
2014
(
2.11921e-07
2.12402e-07
2.12843e-07
2.13067e-07
2.13146e-07
2.13194e-07
2.13176e-07
2.13184e-07
2.13164e-07
2.13167e-07
2.13155e-07
2.13158e-07
2.13151e-07
2.13153e-07
2.13149e-07
2.13151e-07
2.13148e-07
2.1315e-07
2.13148e-07
2.13149e-07
2.13148e-07
2.13149e-07
2.13148e-07
2.13149e-07
2.13148e-07
2.13148e-07
2.13149e-07
2.13148e-07
2.13149e-07
2.13148e-07
2.13149e-07
2.13148e-07
2.1315e-07
2.13148e-07
2.13151e-07
2.13149e-07
2.13153e-07
2.13151e-07
2.13158e-07
2.13155e-07
2.13167e-07
2.13164e-07
2.13184e-07
2.13176e-07
2.13194e-07
2.13146e-07
2.13067e-07
2.12843e-07
2.12402e-07
2.11921e-07
2.09416e-07
2.09895e-07
2.10331e-07
2.10552e-07
2.1063e-07
2.10678e-07
2.1066e-07
2.10667e-07
2.10647e-07
2.1065e-07
2.10638e-07
2.10641e-07
2.10634e-07
2.10636e-07
2.10632e-07
2.10634e-07
2.10631e-07
2.10633e-07
2.10631e-07
2.10632e-07
2.10631e-07
2.10632e-07
2.10631e-07
2.10631e-07
2.10631e-07
2.10631e-07
2.10631e-07
2.10631e-07
2.10632e-07
2.10631e-07
2.10632e-07
2.10631e-07
2.10633e-07
2.10631e-07
2.10634e-07
2.10632e-07
2.10636e-07
2.10634e-07
2.10641e-07
2.10638e-07
2.1065e-07
2.10647e-07
2.10667e-07
2.1066e-07
2.10678e-07
2.1063e-07
2.10552e-07
2.1033e-07
2.09895e-07
2.09416e-07
2.06973e-07
2.07451e-07
2.07879e-07
2.08097e-07
2.08175e-07
2.08221e-07
2.08204e-07
2.08211e-07
2.08191e-07
2.08194e-07
2.08182e-07
2.08184e-07
2.08177e-07
2.0818e-07
2.08175e-07
2.08177e-07
2.08174e-07
2.08176e-07
2.08174e-07
2.08176e-07
2.08174e-07
2.08175e-07
2.08174e-07
2.08175e-07
2.08174e-07
2.08174e-07
2.08175e-07
2.08174e-07
2.08175e-07
2.08174e-07
2.08176e-07
2.08174e-07
2.08176e-07
2.08174e-07
2.08177e-07
2.08175e-07
2.0818e-07
2.08177e-07
2.08185e-07
2.08182e-07
2.08194e-07
2.08191e-07
2.08211e-07
2.08204e-07
2.08221e-07
2.08175e-07
2.08097e-07
2.07879e-07
2.07451e-07
2.06973e-07
2.0459e-07
2.05067e-07
2.05487e-07
2.05701e-07
2.05778e-07
2.05824e-07
2.05807e-07
2.05813e-07
2.05793e-07
2.05796e-07
2.05784e-07
2.05787e-07
2.05779e-07
2.05782e-07
2.05777e-07
2.05779e-07
2.05776e-07
2.05778e-07
2.05776e-07
2.05778e-07
2.05776e-07
2.05777e-07
2.05776e-07
2.05777e-07
2.05776e-07
2.05776e-07
2.05777e-07
2.05776e-07
2.05777e-07
2.05776e-07
2.05778e-07
2.05776e-07
2.05778e-07
2.05776e-07
2.05779e-07
2.05777e-07
2.05782e-07
2.05779e-07
2.05787e-07
2.05784e-07
2.05796e-07
2.05793e-07
2.05813e-07
2.05807e-07
2.05824e-07
2.05778e-07
2.05701e-07
2.05487e-07
2.05067e-07
2.0459e-07
2.02266e-07
2.02741e-07
2.03154e-07
2.03364e-07
2.03439e-07
2.03484e-07
2.03467e-07
2.03473e-07
2.03454e-07
2.03456e-07
2.03444e-07
2.03446e-07
2.03439e-07
2.03441e-07
2.03437e-07
2.03439e-07
2.03436e-07
2.03438e-07
2.03436e-07
2.03437e-07
2.03436e-07
2.03437e-07
2.03436e-07
2.03436e-07
2.03436e-07
2.03436e-07
2.03436e-07
2.03436e-07
2.03437e-07
2.03436e-07
2.03437e-07
2.03436e-07
2.03438e-07
2.03436e-07
2.03439e-07
2.03437e-07
2.03441e-07
2.03439e-07
2.03446e-07
2.03444e-07
2.03456e-07
2.03454e-07
2.03473e-07
2.03467e-07
2.03484e-07
2.03439e-07
2.03364e-07
2.03154e-07
2.02741e-07
2.02266e-07
2e-07
2.00473e-07
2.00878e-07
2.01083e-07
2.01156e-07
2.012e-07
2.01183e-07
2.01189e-07
2.0117e-07
2.01172e-07
2.0116e-07
2.01162e-07
2.01155e-07
2.01157e-07
2.01153e-07
2.01155e-07
2.01152e-07
2.01154e-07
2.01152e-07
2.01153e-07
2.01152e-07
2.01153e-07
2.01152e-07
2.01152e-07
2.01152e-07
2.01152e-07
2.01152e-07
2.01152e-07
2.01153e-07
2.01152e-07
2.01153e-07
2.01152e-07
2.01154e-07
2.01152e-07
2.01155e-07
2.01153e-07
2.01157e-07
2.01155e-07
2.01162e-07
2.0116e-07
2.01172e-07
2.0117e-07
2.01189e-07
2.01183e-07
2.012e-07
2.01156e-07
2.01083e-07
2.00878e-07
2.00473e-07
2e-07
1.97791e-07
1.98262e-07
1.98657e-07
1.98857e-07
1.98929e-07
1.98972e-07
1.98955e-07
1.9896e-07
1.98941e-07
1.98943e-07
1.98931e-07
1.98933e-07
1.98926e-07
1.98928e-07
1.98924e-07
1.98926e-07
1.98923e-07
1.98925e-07
1.98923e-07
1.98924e-07
1.98923e-07
1.98924e-07
1.98923e-07
1.98924e-07
1.98923e-07
1.98923e-07
1.98924e-07
1.98923e-07
1.98924e-07
1.98923e-07
1.98924e-07
1.98923e-07
1.98925e-07
1.98923e-07
1.98926e-07
1.98924e-07
1.98928e-07
1.98926e-07
1.98933e-07
1.98932e-07
1.98943e-07
1.98941e-07
1.9896e-07
1.98955e-07
1.98972e-07
1.98929e-07
1.98857e-07
1.98657e-07
1.98262e-07
1.97791e-07
1.95638e-07
1.96105e-07
1.96491e-07
1.96686e-07
1.96755e-07
1.96798e-07
1.96781e-07
1.96786e-07
1.96767e-07
1.96769e-07
1.96757e-07
1.96759e-07
1.96752e-07
1.96754e-07
1.9675e-07
1.96752e-07
1.96749e-07
1.96751e-07
1.96749e-07
1.9675e-07
1.96749e-07
1.9675e-07
1.96749e-07
1.96749e-07
1.96749e-07
1.96749e-07
1.96749e-07
1.96749e-07
1.9675e-07
1.96749e-07
1.9675e-07
1.96749e-07
1.96751e-07
1.96749e-07
1.96752e-07
1.9675e-07
1.96754e-07
1.96752e-07
1.96759e-07
1.96757e-07
1.96769e-07
1.96767e-07
1.96786e-07
1.96781e-07
1.96798e-07
1.96755e-07
1.96686e-07
1.96491e-07
1.96105e-07
1.95637e-07
1.93539e-07
1.94003e-07
1.94378e-07
1.94568e-07
1.94636e-07
1.94677e-07
1.9466e-07
1.94665e-07
1.94647e-07
1.94648e-07
1.94636e-07
1.94638e-07
1.94631e-07
1.94633e-07
1.94629e-07
1.94631e-07
1.94628e-07
1.9463e-07
1.94628e-07
1.94629e-07
1.94628e-07
1.94629e-07
1.94628e-07
1.94628e-07
1.94628e-07
1.94628e-07
1.94628e-07
1.94628e-07
1.94629e-07
1.94628e-07
1.94629e-07
1.94628e-07
1.9463e-07
1.94628e-07
1.94631e-07
1.94629e-07
1.94633e-07
1.94631e-07
1.94638e-07
1.94636e-07
1.94648e-07
1.94647e-07
1.94665e-07
1.9466e-07
1.94677e-07
1.94636e-07
1.94568e-07
1.94378e-07
1.94003e-07
1.93539e-07
1.91494e-07
1.91953e-07
1.92318e-07
1.92503e-07
1.92568e-07
1.92609e-07
1.92592e-07
1.92596e-07
1.92578e-07
1.92579e-07
1.92568e-07
1.92569e-07
1.92563e-07
1.92564e-07
1.9256e-07
1.92562e-07
1.92559e-07
1.92561e-07
1.92559e-07
1.92561e-07
1.92559e-07
1.9256e-07
1.92559e-07
1.9256e-07
1.9256e-07
1.9256e-07
1.9256e-07
1.92559e-07
1.9256e-07
1.92559e-07
1.92561e-07
1.92559e-07
1.92561e-07
1.92559e-07
1.92562e-07
1.9256e-07
1.92565e-07
1.92563e-07
1.92569e-07
1.92568e-07
1.92579e-07
1.92578e-07
1.92596e-07
1.92592e-07
1.92608e-07
1.92568e-07
1.92503e-07
1.92318e-07
1.91953e-07
1.91494e-07
1.89502e-07
1.89955e-07
1.9031e-07
1.9049e-07
1.90553e-07
1.90592e-07
1.90576e-07
1.90579e-07
1.90562e-07
1.90562e-07
1.90552e-07
1.90553e-07
1.90546e-07
1.90548e-07
1.90544e-07
1.90546e-07
1.90543e-07
1.90545e-07
1.90543e-07
1.90544e-07
1.90543e-07
1.90544e-07
1.90543e-07
1.90543e-07
1.90543e-07
1.90543e-07
1.90543e-07
1.90543e-07
1.90544e-07
1.90543e-07
1.90544e-07
1.90543e-07
1.90545e-07
1.90543e-07
1.90546e-07
1.90544e-07
1.90548e-07
1.90546e-07
1.90553e-07
1.90552e-07
1.90562e-07
1.90562e-07
1.90579e-07
1.90576e-07
1.90592e-07
1.90553e-07
1.90489e-07
1.9031e-07
1.89955e-07
1.89502e-07
1.87562e-07
1.88009e-07
1.88354e-07
1.88527e-07
1.88589e-07
1.88626e-07
1.88611e-07
1.88614e-07
1.88597e-07
1.88597e-07
1.88586e-07
1.88587e-07
1.88581e-07
1.88582e-07
1.88578e-07
1.8858e-07
1.88577e-07
1.88579e-07
1.88577e-07
1.88579e-07
1.88578e-07
1.88578e-07
1.88578e-07
1.88578e-07
1.88578e-07
1.88578e-07
1.88578e-07
1.88578e-07
1.88578e-07
1.88578e-07
1.88579e-07
1.88577e-07
1.88579e-07
1.88577e-07
1.8858e-07
1.88578e-07
1.88582e-07
1.88581e-07
1.88587e-07
1.88586e-07
1.88597e-07
1.88597e-07
1.88614e-07
1.8861e-07
1.88626e-07
1.88589e-07
1.88527e-07
1.88353e-07
1.88009e-07
1.87562e-07
1.85674e-07
1.86112e-07
1.86447e-07
1.86615e-07
1.86675e-07
1.86711e-07
1.86696e-07
1.86698e-07
1.86682e-07
1.86682e-07
1.86671e-07
1.86672e-07
1.86666e-07
1.86667e-07
1.86663e-07
1.86665e-07
1.86663e-07
1.86664e-07
1.86663e-07
1.86664e-07
1.86663e-07
1.86663e-07
1.86663e-07
1.86663e-07
1.86663e-07
1.86663e-07
1.86663e-07
1.86663e-07
1.86663e-07
1.86663e-07
1.86664e-07
1.86663e-07
1.86664e-07
1.86663e-07
1.86665e-07
1.86663e-07
1.86667e-07
1.86666e-07
1.86672e-07
1.86671e-07
1.86682e-07
1.86682e-07
1.86698e-07
1.86696e-07
1.86711e-07
1.86675e-07
1.86615e-07
1.86447e-07
1.86112e-07
1.85674e-07
1.83837e-07
1.84265e-07
1.8459e-07
1.84753e-07
1.8481e-07
1.84845e-07
1.8483e-07
1.84833e-07
1.84816e-07
1.84816e-07
1.84806e-07
1.84807e-07
1.84801e-07
1.84802e-07
1.84798e-07
1.848e-07
1.84798e-07
1.84799e-07
1.84798e-07
1.84799e-07
1.84798e-07
1.84798e-07
1.84798e-07
1.84798e-07
1.84798e-07
1.84798e-07
1.84798e-07
1.84798e-07
1.84798e-07
1.84798e-07
1.84799e-07
1.84798e-07
1.84799e-07
1.84798e-07
1.848e-07
1.84798e-07
1.84802e-07
1.84801e-07
1.84807e-07
1.84806e-07
1.84816e-07
1.84816e-07
1.84833e-07
1.8483e-07
1.84845e-07
1.8481e-07
1.84753e-07
1.8459e-07
1.84265e-07
1.83837e-07
1.8205e-07
1.82467e-07
1.82783e-07
1.82941e-07
1.82995e-07
1.83029e-07
1.83014e-07
1.83016e-07
1.83001e-07
1.83e-07
1.8299e-07
1.82991e-07
1.82985e-07
1.82986e-07
1.82983e-07
1.82984e-07
1.82982e-07
1.82983e-07
1.82982e-07
1.82983e-07
1.82982e-07
1.82983e-07
1.82982e-07
1.82982e-07
1.82982e-07
1.82982e-07
1.82982e-07
1.82982e-07
1.82983e-07
1.82982e-07
1.82983e-07
1.82982e-07
1.82983e-07
1.82982e-07
1.82984e-07
1.82983e-07
1.82986e-07
1.82985e-07
1.82991e-07
1.8299e-07
1.83e-07
1.83001e-07
1.83016e-07
1.83014e-07
1.83029e-07
1.82995e-07
1.82941e-07
1.82783e-07
1.82467e-07
1.8205e-07
1.80312e-07
1.80717e-07
1.81024e-07
1.81177e-07
1.81229e-07
1.81262e-07
1.81247e-07
1.81249e-07
1.81233e-07
1.81233e-07
1.81223e-07
1.81224e-07
1.81218e-07
1.81219e-07
1.81216e-07
1.81217e-07
1.81215e-07
1.81217e-07
1.81215e-07
1.81216e-07
1.81215e-07
1.81216e-07
1.81215e-07
1.81216e-07
1.81215e-07
1.81215e-07
1.81216e-07
1.81215e-07
1.81216e-07
1.81215e-07
1.81216e-07
1.81215e-07
1.81217e-07
1.81215e-07
1.81217e-07
1.81216e-07
1.81219e-07
1.81218e-07
1.81224e-07
1.81223e-07
1.81233e-07
1.81233e-07
1.81249e-07
1.81247e-07
1.81261e-07
1.81229e-07
1.81177e-07
1.81024e-07
1.80717e-07
1.80312e-07
1.78622e-07
1.79015e-07
1.79313e-07
1.79461e-07
1.79511e-07
1.79542e-07
1.79528e-07
1.79529e-07
1.79514e-07
1.79514e-07
1.79505e-07
1.79505e-07
1.79499e-07
1.79501e-07
1.79497e-07
1.79499e-07
1.79496e-07
1.79498e-07
1.79496e-07
1.79498e-07
1.79497e-07
1.79497e-07
1.79497e-07
1.79497e-07
1.79497e-07
1.79497e-07
1.79497e-07
1.79497e-07
1.79497e-07
1.79497e-07
1.79498e-07
1.79496e-07
1.79498e-07
1.79496e-07
1.79499e-07
1.79497e-07
1.79501e-07
1.79499e-07
1.79505e-07
1.79505e-07
1.79514e-07
1.79514e-07
1.79529e-07
1.79528e-07
1.79542e-07
1.79511e-07
1.79461e-07
1.79313e-07
1.79015e-07
1.78622e-07
1.76981e-07
1.77361e-07
1.77649e-07
1.77793e-07
1.7784e-07
1.7787e-07
1.77856e-07
1.77858e-07
1.77843e-07
1.77843e-07
1.77834e-07
1.77834e-07
1.77829e-07
1.7783e-07
1.77826e-07
1.77828e-07
1.77826e-07
1.77827e-07
1.77826e-07
1.77827e-07
1.77826e-07
1.77826e-07
1.77826e-07
1.77826e-07
1.77826e-07
1.77826e-07
1.77826e-07
1.77826e-07
1.77826e-07
1.77826e-07
1.77827e-07
1.77826e-07
1.77827e-07
1.77826e-07
1.77828e-07
1.77826e-07
1.7783e-07
1.77829e-07
1.77834e-07
1.77834e-07
1.77843e-07
1.77843e-07
1.77858e-07
1.77856e-07
1.7787e-07
1.7784e-07
1.77793e-07
1.77649e-07
1.77361e-07
1.76981e-07
1.75387e-07
1.75754e-07
1.76033e-07
1.76171e-07
1.76217e-07
1.76246e-07
1.76232e-07
1.76233e-07
1.76219e-07
1.76219e-07
1.7621e-07
1.7621e-07
1.76205e-07
1.76206e-07
1.76203e-07
1.76204e-07
1.76202e-07
1.76204e-07
1.76202e-07
1.76203e-07
1.76203e-07
1.76203e-07
1.76203e-07
1.76203e-07
1.76203e-07
1.76203e-07
1.76203e-07
1.76203e-07
1.76203e-07
1.76203e-07
1.76203e-07
1.76202e-07
1.76204e-07
1.76202e-07
1.76204e-07
1.76203e-07
1.76206e-07
1.76205e-07
1.7621e-07
1.7621e-07
1.76219e-07
1.76219e-07
1.76233e-07
1.76232e-07
1.76246e-07
1.76217e-07
1.76171e-07
1.76033e-07
1.75754e-07
1.75387e-07
1.73839e-07
1.74192e-07
1.74464e-07
1.74597e-07
1.7464e-07
1.74668e-07
1.74655e-07
1.74656e-07
1.74642e-07
1.74642e-07
1.74633e-07
1.74634e-07
1.74628e-07
1.7463e-07
1.74626e-07
1.74628e-07
1.74626e-07
1.74627e-07
1.74626e-07
1.74627e-07
1.74626e-07
1.74627e-07
1.74626e-07
1.74627e-07
1.74626e-07
1.74626e-07
1.74627e-07
1.74626e-07
1.74627e-07
1.74626e-07
1.74627e-07
1.74626e-07
1.74627e-07
1.74626e-07
1.74628e-07
1.74627e-07
1.7463e-07
1.74629e-07
1.74634e-07
1.74633e-07
1.74642e-07
1.74642e-07
1.74656e-07
1.74655e-07
1.74668e-07
1.7464e-07
1.74597e-07
1.74464e-07
1.74192e-07
1.73839e-07
1.72337e-07
1.72677e-07
1.72941e-07
1.73069e-07
1.7311e-07
1.73136e-07
1.73124e-07
1.73125e-07
1.73112e-07
1.73111e-07
1.73103e-07
1.73103e-07
1.73098e-07
1.731e-07
1.73097e-07
1.73098e-07
1.73096e-07
1.73097e-07
1.73096e-07
1.73097e-07
1.73096e-07
1.73097e-07
1.73096e-07
1.73097e-07
1.73097e-07
1.73097e-07
1.73097e-07
1.73096e-07
1.73097e-07
1.73096e-07
1.73097e-07
1.73096e-07
1.73097e-07
1.73096e-07
1.73098e-07
1.73097e-07
1.731e-07
1.73098e-07
1.73103e-07
1.73103e-07
1.73111e-07
1.73112e-07
1.73125e-07
1.73124e-07
1.73136e-07
1.7311e-07
1.73069e-07
1.72941e-07
1.72677e-07
1.72337e-07
1.70881e-07
1.71208e-07
1.71463e-07
1.71586e-07
1.71625e-07
1.71651e-07
1.71639e-07
1.7164e-07
1.71627e-07
1.71626e-07
1.71619e-07
1.71619e-07
1.71614e-07
1.71615e-07
1.71613e-07
1.71614e-07
1.71612e-07
1.71613e-07
1.71612e-07
1.71613e-07
1.71612e-07
1.71613e-07
1.71613e-07
1.71613e-07
1.71613e-07
1.71613e-07
1.71613e-07
1.71613e-07
1.71613e-07
1.71612e-07
1.71613e-07
1.71612e-07
1.71613e-07
1.71612e-07
1.71614e-07
1.71613e-07
1.71615e-07
1.71614e-07
1.71619e-07
1.71619e-07
1.71626e-07
1.71627e-07
1.7164e-07
1.71639e-07
1.71651e-07
1.71625e-07
1.71586e-07
1.71463e-07
1.71208e-07
1.70881e-07
1.69469e-07
1.69785e-07
1.7003e-07
1.70149e-07
1.70186e-07
1.7021e-07
1.70199e-07
1.702e-07
1.70188e-07
1.70187e-07
1.7018e-07
1.7018e-07
1.70176e-07
1.70177e-07
1.70174e-07
1.70176e-07
1.70174e-07
1.70175e-07
1.70174e-07
1.70175e-07
1.70174e-07
1.70175e-07
1.70174e-07
1.70175e-07
1.70175e-07
1.70175e-07
1.70175e-07
1.70174e-07
1.70175e-07
1.70174e-07
1.70175e-07
1.70174e-07
1.70175e-07
1.70174e-07
1.70176e-07
1.70174e-07
1.70177e-07
1.70176e-07
1.7018e-07
1.7018e-07
1.70187e-07
1.70188e-07
1.702e-07
1.70199e-07
1.7021e-07
1.70186e-07
1.70149e-07
1.7003e-07
1.69785e-07
1.69469e-07
1.68102e-07
1.68406e-07
1.68642e-07
1.68757e-07
1.68792e-07
1.68815e-07
1.68805e-07
1.68805e-07
1.68794e-07
1.68793e-07
1.68786e-07
1.68787e-07
1.68783e-07
1.68784e-07
1.68781e-07
1.68782e-07
1.68781e-07
1.68782e-07
1.68781e-07
1.68782e-07
1.68781e-07
1.68782e-07
1.68781e-07
1.68782e-07
1.68781e-07
1.68781e-07
1.68782e-07
1.68781e-07
1.68782e-07
1.68781e-07
1.68782e-07
1.68781e-07
1.68782e-07
1.68781e-07
1.68782e-07
1.68781e-07
1.68784e-07
1.68783e-07
1.68787e-07
1.68786e-07
1.68793e-07
1.68794e-07
1.68805e-07
1.68805e-07
1.68815e-07
1.68792e-07
1.68757e-07
1.68642e-07
1.68406e-07
1.68102e-07
1.66779e-07
1.67071e-07
1.67297e-07
1.67408e-07
1.67443e-07
1.67464e-07
1.67454e-07
1.67455e-07
1.67445e-07
1.67444e-07
1.67437e-07
1.67438e-07
1.67434e-07
1.67435e-07
1.67432e-07
1.67434e-07
1.67432e-07
1.67433e-07
1.67432e-07
1.67433e-07
1.67433e-07
1.67433e-07
1.67433e-07
1.67433e-07
1.67433e-07
1.67433e-07
1.67433e-07
1.67433e-07
1.67433e-07
1.67433e-07
1.67433e-07
1.67432e-07
1.67433e-07
1.67432e-07
1.67434e-07
1.67432e-07
1.67435e-07
1.67434e-07
1.67438e-07
1.67437e-07
1.67444e-07
1.67445e-07
1.67455e-07
1.67454e-07
1.67464e-07
1.67443e-07
1.67408e-07
1.67297e-07
1.67071e-07
1.66779e-07
1.65543e-07
1.65825e-07
1.66042e-07
1.6615e-07
1.66183e-07
1.66203e-07
1.66194e-07
1.66195e-07
1.66185e-07
1.66184e-07
1.66178e-07
1.66178e-07
1.66175e-07
1.66176e-07
1.66173e-07
1.66175e-07
1.66173e-07
1.66174e-07
1.66174e-07
1.66174e-07
1.66174e-07
1.66174e-07
1.66174e-07
1.66174e-07
1.66174e-07
1.66174e-07
1.66174e-07
1.66174e-07
1.66174e-07
1.66174e-07
1.66174e-07
1.66174e-07
1.66174e-07
1.66173e-07
1.66175e-07
1.66173e-07
1.66176e-07
1.66175e-07
1.66178e-07
1.66178e-07
1.66184e-07
1.66185e-07
1.66195e-07
1.66194e-07
1.66203e-07
1.66183e-07
1.6615e-07
1.66042e-07
1.65825e-07
1.65543e-07
1.64334e-07
1.64608e-07
1.64811e-07
1.64914e-07
1.64943e-07
1.6496e-07
1.64949e-07
1.64949e-07
1.64939e-07
1.64939e-07
1.64932e-07
1.64932e-07
1.64929e-07
1.6493e-07
1.64927e-07
1.64929e-07
1.64927e-07
1.64928e-07
1.64927e-07
1.64928e-07
1.64928e-07
1.64928e-07
1.64928e-07
1.64928e-07
1.64928e-07
1.64928e-07
1.64928e-07
1.64928e-07
1.64928e-07
1.64928e-07
1.64928e-07
1.64927e-07
1.64928e-07
1.64927e-07
1.64929e-07
1.64927e-07
1.6493e-07
1.64929e-07
1.64933e-07
1.64932e-07
1.64939e-07
1.64939e-07
1.64949e-07
1.64949e-07
1.6496e-07
1.64943e-07
1.64914e-07
1.64811e-07
1.64608e-07
1.64333e-07
1.63144e-07
1.63408e-07
1.63601e-07
1.63701e-07
1.63729e-07
1.63744e-07
1.63735e-07
1.63735e-07
1.63725e-07
1.63725e-07
1.63719e-07
1.63719e-07
1.63715e-07
1.63716e-07
1.63714e-07
1.63716e-07
1.63714e-07
1.63715e-07
1.63714e-07
1.63715e-07
1.63715e-07
1.63715e-07
1.63715e-07
1.63715e-07
1.63715e-07
1.63715e-07
1.63715e-07
1.63715e-07
1.63715e-07
1.63715e-07
1.63715e-07
1.63714e-07
1.63715e-07
1.63714e-07
1.63716e-07
1.63714e-07
1.63716e-07
1.63715e-07
1.63719e-07
1.63719e-07
1.63725e-07
1.63725e-07
1.63735e-07
1.63735e-07
1.63744e-07
1.63729e-07
1.63701e-07
1.63601e-07
1.63408e-07
1.63144e-07
1.61997e-07
1.62251e-07
1.62434e-07
1.62531e-07
1.62558e-07
1.62572e-07
1.62563e-07
1.62563e-07
1.62554e-07
1.62554e-07
1.62548e-07
1.62548e-07
1.62545e-07
1.62546e-07
1.62544e-07
1.62545e-07
1.62544e-07
1.62545e-07
1.62545e-07
1.62545e-07
1.62545e-07
1.62545e-07
1.62545e-07
1.62545e-07
1.62545e-07
1.62545e-07
1.62545e-07
1.62545e-07
1.62545e-07
1.62545e-07
1.62545e-07
1.62545e-07
1.62545e-07
1.62544e-07
1.62545e-07
1.62544e-07
1.62546e-07
1.62545e-07
1.62548e-07
1.62548e-07
1.62554e-07
1.62554e-07
1.62563e-07
1.62563e-07
1.62572e-07
1.62558e-07
1.62531e-07
1.62434e-07
1.62251e-07
1.61997e-07
1.60891e-07
1.61135e-07
1.61309e-07
1.61404e-07
1.61429e-07
1.61441e-07
1.61433e-07
1.61433e-07
1.61425e-07
1.61425e-07
1.6142e-07
1.6142e-07
1.61417e-07
1.61418e-07
1.61417e-07
1.61418e-07
1.61417e-07
1.61418e-07
1.61417e-07
1.61418e-07
1.61417e-07
1.61418e-07
1.61417e-07
1.61418e-07
1.61418e-07
1.61418e-07
1.61418e-07
1.61417e-07
1.61418e-07
1.61417e-07
1.61418e-07
1.61417e-07
1.61418e-07
1.61417e-07
1.61418e-07
1.61417e-07
1.61418e-07
1.61417e-07
1.6142e-07
1.6142e-07
1.61425e-07
1.61425e-07
1.61433e-07
1.61433e-07
1.61441e-07
1.61429e-07
1.61403e-07
1.61309e-07
1.61135e-07
1.60891e-07
1.59826e-07
1.6006e-07
1.60226e-07
1.60317e-07
1.60342e-07
1.60352e-07
1.60345e-07
1.60345e-07
1.60338e-07
1.60338e-07
1.60333e-07
1.60334e-07
1.60331e-07
1.60332e-07
1.6033e-07
1.60332e-07
1.60331e-07
1.60332e-07
1.60331e-07
1.60332e-07
1.60331e-07
1.60332e-07
1.60332e-07
1.60332e-07
1.60332e-07
1.60332e-07
1.60332e-07
1.60332e-07
1.60332e-07
1.60331e-07
1.60332e-07
1.60331e-07
1.60332e-07
1.60331e-07
1.60332e-07
1.6033e-07
1.60332e-07
1.60331e-07
1.60334e-07
1.60333e-07
1.60338e-07
1.60338e-07
1.60345e-07
1.60345e-07
1.60352e-07
1.60342e-07
1.60317e-07
1.60226e-07
1.6006e-07
1.59826e-07
1.58836e-07
1.59061e-07
1.59218e-07
1.59307e-07
1.59332e-07
1.59339e-07
1.59333e-07
1.59333e-07
1.59327e-07
1.59327e-07
1.59323e-07
1.59323e-07
1.59321e-07
1.59322e-07
1.5932e-07
1.59322e-07
1.59321e-07
1.59322e-07
1.59321e-07
1.59322e-07
1.59321e-07
1.59322e-07
1.59322e-07
1.59322e-07
1.59322e-07
1.59322e-07
1.59322e-07
1.59322e-07
1.59322e-07
1.59321e-07
1.59322e-07
1.59321e-07
1.59322e-07
1.59321e-07
1.59322e-07
1.5932e-07
1.59322e-07
1.59321e-07
1.59323e-07
1.59323e-07
1.59327e-07
1.59327e-07
1.59333e-07
1.59333e-07
1.59339e-07
1.59332e-07
1.59307e-07
1.59218e-07
1.59061e-07
1.58836e-07
1.57885e-07
1.58101e-07
1.58252e-07
1.58338e-07
1.58363e-07
1.58367e-07
1.58361e-07
1.58362e-07
1.58355e-07
1.58354e-07
1.5835e-07
1.5835e-07
1.58347e-07
1.58348e-07
1.58347e-07
1.58348e-07
1.58347e-07
1.58348e-07
1.58347e-07
1.58348e-07
1.58348e-07
1.58348e-07
1.58348e-07
1.58348e-07
1.58348e-07
1.58348e-07
1.58348e-07
1.58348e-07
1.58348e-07
1.58348e-07
1.58348e-07
1.58347e-07
1.58348e-07
1.58347e-07
1.58348e-07
1.58347e-07
1.58348e-07
1.58347e-07
1.5835e-07
1.5835e-07
1.58354e-07
1.58355e-07
1.58362e-07
1.58361e-07
1.58367e-07
1.58363e-07
1.58338e-07
1.58252e-07
1.58101e-07
1.57885e-07
1.56948e-07
1.57155e-07
1.57298e-07
1.57381e-07
1.57405e-07
1.57405e-07
1.574e-07
1.574e-07
1.57394e-07
1.57393e-07
1.57389e-07
1.57389e-07
1.57387e-07
1.57388e-07
1.57386e-07
1.57387e-07
1.57386e-07
1.57387e-07
1.57387e-07
1.57387e-07
1.57387e-07
1.57388e-07
1.57387e-07
1.57388e-07
1.57387e-07
1.57387e-07
1.57388e-07
1.57387e-07
1.57388e-07
1.57387e-07
1.57387e-07
1.57387e-07
1.57387e-07
1.57386e-07
1.57387e-07
1.57386e-07
1.57388e-07
1.57387e-07
1.57389e-07
1.57389e-07
1.57393e-07
1.57394e-07
1.574e-07
1.574e-07
1.57405e-07
1.57405e-07
1.57381e-07
1.57298e-07
1.57155e-07
1.56948e-07
1.56045e-07
1.56242e-07
1.5638e-07
1.56459e-07
1.56483e-07
1.56511e-07
1.56507e-07
1.56507e-07
1.56501e-07
1.56501e-07
1.56497e-07
1.56497e-07
1.56495e-07
1.56496e-07
1.56495e-07
1.56496e-07
1.56495e-07
1.56496e-07
1.56495e-07
1.56496e-07
1.56496e-07
1.56496e-07
1.56496e-07
1.56496e-07
1.56496e-07
1.56496e-07
1.56496e-07
1.56496e-07
1.56496e-07
1.56496e-07
1.56496e-07
1.56495e-07
1.56496e-07
1.56495e-07
1.56496e-07
1.56495e-07
1.56496e-07
1.56495e-07
1.56497e-07
1.56497e-07
1.56501e-07
1.56501e-07
1.56507e-07
1.56507e-07
1.56511e-07
1.56483e-07
1.56459e-07
1.5638e-07
1.56242e-07
1.56045e-07
1.55207e-07
1.55396e-07
1.55527e-07
1.55605e-07
1.55629e-07
1.55655e-07
1.55652e-07
1.55653e-07
1.55647e-07
1.55647e-07
1.55643e-07
1.55644e-07
1.55642e-07
1.55643e-07
1.55642e-07
1.55643e-07
1.55642e-07
1.55643e-07
1.55642e-07
1.55643e-07
1.55643e-07
1.55643e-07
1.55643e-07
1.55643e-07
1.55643e-07
1.55643e-07
1.55643e-07
1.55643e-07
1.55643e-07
1.55643e-07
1.55643e-07
1.55642e-07
1.55643e-07
1.55642e-07
1.55643e-07
1.55642e-07
1.55643e-07
1.55642e-07
1.55644e-07
1.55643e-07
1.55647e-07
1.55647e-07
1.55653e-07
1.55652e-07
1.55655e-07
1.55629e-07
1.55604e-07
1.55527e-07
1.55396e-07
1.55207e-07
1.54402e-07
1.54586e-07
1.54709e-07
1.54782e-07
1.54805e-07
1.54828e-07
1.54824e-07
1.54825e-07
1.54819e-07
1.54819e-07
1.54815e-07
1.54816e-07
1.54813e-07
1.54814e-07
1.54813e-07
1.54814e-07
1.54814e-07
1.54815e-07
1.54814e-07
1.54815e-07
1.54815e-07
1.54815e-07
1.54815e-07
1.54815e-07
1.54815e-07
1.54815e-07
1.54815e-07
1.54815e-07
1.54815e-07
1.54815e-07
1.54815e-07
1.54814e-07
1.54815e-07
1.54814e-07
1.54814e-07
1.54813e-07
1.54814e-07
1.54813e-07
1.54816e-07
1.54815e-07
1.54819e-07
1.54819e-07
1.54825e-07
1.54824e-07
1.54828e-07
1.54805e-07
1.54782e-07
1.54709e-07
1.54586e-07
1.54402e-07
1.53637e-07
1.53813e-07
1.5393e-07
1.54001e-07
1.54024e-07
1.54046e-07
1.54043e-07
1.54044e-07
1.54039e-07
1.54038e-07
1.54035e-07
1.54036e-07
1.54034e-07
1.54035e-07
1.54034e-07
1.54035e-07
1.54034e-07
1.54035e-07
1.54035e-07
1.54036e-07
1.54035e-07
1.54036e-07
1.54036e-07
1.54036e-07
1.54036e-07
1.54036e-07
1.54036e-07
1.54036e-07
1.54036e-07
1.54035e-07
1.54036e-07
1.54035e-07
1.54035e-07
1.54034e-07
1.54035e-07
1.54034e-07
1.54035e-07
1.54034e-07
1.54036e-07
1.54035e-07
1.54038e-07
1.54039e-07
1.54044e-07
1.54043e-07
1.54046e-07
1.54024e-07
1.54001e-07
1.5393e-07
1.53813e-07
1.53637e-07
1.52907e-07
1.53076e-07
1.53186e-07
1.53256e-07
1.53279e-07
1.533e-07
1.53298e-07
1.53299e-07
1.53294e-07
1.53294e-07
1.53291e-07
1.53292e-07
1.5329e-07
1.53291e-07
1.5329e-07
1.53291e-07
1.53291e-07
1.53292e-07
1.53291e-07
1.53292e-07
1.53292e-07
1.53292e-07
1.53292e-07
1.53292e-07
1.53292e-07
1.53292e-07
1.53292e-07
1.53292e-07
1.53292e-07
1.53292e-07
1.53292e-07
1.53291e-07
1.53292e-07
1.53291e-07
1.53291e-07
1.5329e-07
1.53291e-07
1.5329e-07
1.53292e-07
1.53291e-07
1.53294e-07
1.53294e-07
1.53299e-07
1.53298e-07
1.533e-07
1.53279e-07
1.53256e-07
1.53186e-07
1.53076e-07
1.52907e-07
1.52582e-07
1.52583e-07
1.52582e-07
1.52583e-07
1.52583e-07
1.52583e-07
1.52583e-07
1.52583e-07
1.52583e-07
1.52583e-07
1.52583e-07
1.52582e-07
1.52583e-07
1.52582e-07
1.52582e-07
1.52581e-07
1.52582e-07
1.52581e-07
1.52582e-07
1.52581e-07
1.52582e-07
1.52581e-07
1.52584e-07
1.52584e-07
1.52588e-07
1.52587e-07
1.52588e-07
1.52569e-07
1.52545e-07
1.52477e-07
1.52373e-07
1.52211e-07
1.51907e-07
1.51907e-07
1.51907e-07
1.51906e-07
1.51906e-07
1.51905e-07
1.51906e-07
1.51905e-07
1.51905e-07
1.51904e-07
1.51906e-07
1.51905e-07
1.51907e-07
1.51907e-07
1.51911e-07
1.51909e-07
1.5191e-07
1.51891e-07
1.51868e-07
1.51801e-07
1.51703e-07
1.51548e-07
1.51262e-07
1.51262e-07
1.51265e-07
1.51264e-07
1.51264e-07
1.51246e-07
1.51222e-07
1.51158e-07
1.51065e-07
1.50917e-07
)
;

boundaryField
{
    fuel
    {
        type            fixedValue;
        value           nonuniform 0();
    }
    wall
    {
        type            zeroGradient;
    }
    outlet
    {
        type            zeroGradient;
    }
    frontAndBack
    {
        type            empty;
    }
    procBoundary0to1
    {
        type            processor;
        value           nonuniform List<scalar> 
50
(
2.1449e-07
2.14973e-07
2.15418e-07
2.15644e-07
2.15724e-07
2.15772e-07
2.15754e-07
2.15762e-07
2.15742e-07
2.15746e-07
2.15734e-07
2.15737e-07
2.15729e-07
2.15732e-07
2.15727e-07
2.1573e-07
2.15727e-07
2.15729e-07
2.15727e-07
2.15728e-07
2.15727e-07
2.15728e-07
2.15727e-07
2.15728e-07
2.15727e-07
2.15727e-07
2.15728e-07
2.15727e-07
2.15728e-07
2.15727e-07
2.15728e-07
2.15727e-07
2.15729e-07
2.15727e-07
2.1573e-07
2.15727e-07
2.15732e-07
2.15729e-07
2.15737e-07
2.15734e-07
2.15746e-07
2.15742e-07
2.15762e-07
2.15754e-07
2.15772e-07
2.15724e-07
2.15644e-07
2.15417e-07
2.14973e-07
2.1449e-07
)
;
    }
    procBoundary0to2
    {
        type            processor;
        value           nonuniform List<scalar> 
53
(
1.52211e-07
1.52373e-07
1.52477e-07
1.52545e-07
1.52569e-07
1.52588e-07
1.52587e-07
1.52588e-07
1.52584e-07
1.52584e-07
1.52581e-07
1.52582e-07
1.52581e-07
1.52582e-07
1.52581e-07
1.52582e-07
1.52581e-07
1.52582e-07
1.52582e-07
1.51906e-07
1.51907e-07
1.51907e-07
1.51907e-07
1.51907e-07
1.51907e-07
1.51907e-07
1.51907e-07
1.51907e-07
1.51907e-07
1.51907e-07
1.51263e-07
1.51263e-07
1.51263e-07
1.51262e-07
1.51262e-07
1.51261e-07
1.51262e-07
1.51261e-07
1.51261e-07
1.5126e-07
1.51261e-07
1.51261e-07
1.51261e-07
1.50648e-07
1.50648e-07
1.5065e-07
1.50649e-07
1.50648e-07
1.50632e-07
1.50607e-07
1.50545e-07
1.50457e-07
1.50315e-07
)
;
    }
}


// ************************************************************************* //
