/*--------------------------------*- C++ -*----------------------------------*\
| =========                 |                                                 |
| \\      /  F ield         | OpenFOAM: The Open Source CFD Toolbox           |
|  \\    /   O peration     | Version:  dev                                   |
|   \\  /    A nd           | Web:      www.OpenFOAM.org                      |
|    \\/     M anipulation  |                                                 |
\*---------------------------------------------------------------------------*/
FoamFile
{
    version     2.0;
    format      ascii;
    class       volScalarField;
    location    "0.195";
    object      A2-1;
}
// * * * * * * * * * * * * * * * * * * * * * * * * * * * * * * * * * * * * * //

dimensions      [0 0 0 0 0 0 0];

internalField   nonuniform List<scalar> 
50
(
1.16553e-16
1.02703e-16
9.04983e-17
7.97513e-17
7.02925e-17
6.1971e-17
5.4652e-17
4.82156e-17
4.25558e-17
3.75784e-17
3.32005e-17
2.93489e-17
2.59595e-17
2.29757e-17
2.03479e-17
1.80327e-17
1.5992e-17
1.41923e-17
1.26044e-17
1.12026e-17
9.96441e-18
8.8702e-18
7.90265e-18
7.04663e-18
6.28884e-18
5.61762e-18
5.02272e-18
4.49514e-18
4.02698e-18
3.61128e-18
3.24193e-18
2.91355e-18
2.6214e-18
2.36129e-18
2.12957e-18
1.92299e-18
1.73868e-18
1.57414e-18
1.42713e-18
1.29569e-18
1.17807e-18
1.07269e-18
9.79193e-19
8.94666e-19
8.187e-19
7.50533e-19
6.89334e-19
6.34368e-19
5.84984e-19
5.40589e-19
)
;

boundaryField
{
    wall
    {
        type            zeroGradient;
    }
    fuel
    {
        type            fixedValue;
        value           nonuniform 0();
    }
    outlet
    {
        type            inletOutlet;
        inletValue      nonuniform 0();
        value           nonuniform 0();
    }
    procBoundary1to0
    {
        type            processor;
        value           uniform 1.32439e-16;
    }
    procBoundary1to2
    {
        type            processor;
        value           uniform 4.99795e-19;
    }
}


// ************************************************************************* //
