/*--------------------------------*- C++ -*----------------------------------*\
| =========                 |                                                 |
| \\      /  F ield         | OpenFOAM: The Open Source CFD Toolbox           |
|  \\    /   O peration     | Version:  dev                                   |
|   \\  /    A nd           | Web:      www.OpenFOAM.org                      |
|    \\/     M anipulation  |                                                 |
\*---------------------------------------------------------------------------*/
FoamFile
{
    version     2.0;
    format      ascii;
    class       volScalarField;
    location    "0.195";
    object      A2R5;
}
// * * * * * * * * * * * * * * * * * * * * * * * * * * * * * * * * * * * * * //

dimensions      [0 0 0 0 0 0 0];

internalField   nonuniform List<scalar> 
250
(
1.00958e-07
8.12284e-08
6.6505e-08
6.13692e-08
5.96869e-08
5.92486e-08
5.91609e-08
5.91497e-08
5.90991e-08
5.91234e-08
9.70751e-08
7.90746e-08
6.61507e-08
6.15802e-08
6.00719e-08
5.96681e-08
5.95851e-08
5.95725e-08
5.95263e-08
5.95485e-08
5.95571e-08
5.95083e-08
5.9582e-08
5.95133e-08
5.96701e-08
5.99105e-08
6.15467e-08
6.76788e-08
8.00336e-08
1.27579e-07
9.3474e-08
7.71489e-08
6.58114e-08
6.17654e-08
6.04186e-08
6.00499e-08
5.99724e-08
5.99582e-08
5.99173e-08
5.99369e-08
5.99471e-08
5.99027e-08
5.99685e-08
5.99079e-08
6.00523e-08
6.02644e-08
6.16998e-08
6.69495e-08
7.73522e-08
1.16499e-07
9.00792e-08
7.53811e-08
6.54617e-08
6.19049e-08
6.07095e-08
6.03761e-08
6.03048e-08
6.02893e-08
6.02539e-08
6.0271e-08
6.02815e-08
6.02431e-08
6.02988e-08
6.02493e-08
6.03771e-08
6.05716e-08
6.18117e-08
6.62778e-08
7.4966e-08
1.06854e-07
8.68435e-08
7.37266e-08
6.50899e-08
6.19908e-08
6.09412e-08
6.06439e-08
6.05749e-08
6.05586e-08
6.05286e-08
6.05432e-08
6.05533e-08
6.05213e-08
6.05663e-08
6.0533e-08
6.06384e-08
6.08222e-08
6.18781e-08
6.56479e-08
7.28041e-08
9.85256e-08
8.3666e-08
7.21201e-08
6.46951e-08
6.20219e-08
6.11073e-08
6.08448e-08
6.07826e-08
6.07661e-08
6.07412e-08
6.07537e-08
6.07627e-08
6.07368e-08
6.07716e-08
6.07498e-08
6.0837e-08
6.10107e-08
6.18985e-08
6.50531e-08
7.09244e-08
9.14079e-08
8.06891e-08
7.06269e-08
6.42834e-08
6.20046e-08
6.1217e-08
6.09883e-08
6.09329e-08
6.09167e-08
6.08963e-08
6.0907e-08
6.09147e-08
6.08942e-08
6.09199e-08
6.09079e-08
6.09786e-08
6.11419e-08
6.18795e-08
6.44923e-08
6.92701e-08
8.52226e-08
7.78606e-08
6.92152e-08
6.38653e-08
6.19481e-08
6.12787e-08
6.10821e-08
6.10333e-08
6.10179e-08
6.10014e-08
6.10106e-08
6.10168e-08
6.10008e-08
6.10188e-08
6.10146e-08
6.10711e-08
6.12225e-08
6.18292e-08
6.39683e-08
6.78277e-08
8.01668e-08
7.52107e-08
6.78979e-08
6.34539e-08
6.18635e-08
6.13025e-08
6.11357e-08
6.10931e-08
6.1079e-08
6.10656e-08
6.10737e-08
6.10784e-08
6.10657e-08
6.10777e-08
6.10791e-08
6.11239e-08
6.12617e-08
6.17569e-08
6.34862e-08
6.65863e-08
7.59947e-08
7.27861e-08
6.66976e-08
6.30652e-08
6.17634e-08
6.12996e-08
6.11596e-08
6.11227e-08
6.111e-08
6.10991e-08
6.11063e-08
6.11096e-08
6.10992e-08
6.11069e-08
6.11116e-08
6.11476e-08
6.12702e-08
6.16733e-08
6.30539e-08
6.55391e-08
7.26203e-08
7.06558e-08
6.56483e-08
6.27181e-08
6.16619e-08
6.12819e-08
6.11651e-08
6.11331e-08
6.11218e-08
6.11127e-08
6.11194e-08
6.11215e-08
6.11123e-08
6.11173e-08
6.11235e-08
6.11533e-08
6.12602e-08
6.15899e-08
6.26828e-08
6.4686e-08
6.99771e-08
6.89256e-08
6.48012e-08
6.24358e-08
6.15737e-08
6.12606e-08
6.11623e-08
6.11342e-08
6.11242e-08
6.11163e-08
6.11226e-08
6.11237e-08
6.11152e-08
6.11185e-08
6.11251e-08
6.11507e-08
6.12435e-08
6.15184e-08
6.23895e-08
6.40383e-08
6.8036e-08
6.77894e-08
6.42481e-08
6.22519e-08
6.15148e-08
6.1245e-08
6.11586e-08
6.11331e-08
6.1124e-08
6.11168e-08
6.11228e-08
6.11232e-08
6.1115e-08
6.11175e-08
6.1124e-08
6.11471e-08
6.12301e-08
6.14712e-08
6.2202e-08
6.36353e-08
6.68563e-08
)
;

boundaryField
{
    fuel
    {
        type            fixedValue;
        value           nonuniform 0();
    }
    wall
    {
        type            zeroGradient;
    }
    outlet
    {
        type            zeroGradient;
    }
    frontAndBack
    {
        type            empty;
    }
    procBoundary1to0
    {
        type            processor;
        value           nonuniform List<scalar> 
21
(
1.0523e-07
8.37085e-08
6.6916e-08
6.11658e-08
5.92938e-08
5.88217e-08
5.873e-08
5.87196e-08
5.86658e-08
5.86917e-08
5.91287e-08
5.91287e-08
5.90784e-08
5.91561e-08
5.90853e-08
5.92466e-08
5.95326e-08
6.13677e-08
6.84925e-08
8.30428e-08
1.40223e-07
)
;
    }
}


// ************************************************************************* //
