/*--------------------------------*- C++ -*----------------------------------*\
| =========                 |                                                 |
| \\      /  F ield         | OpenFOAM: The Open Source CFD Toolbox           |
|  \\    /   O peration     | Version:  dev                                   |
|   \\  /    A nd           | Web:      www.OpenFOAM.org                      |
|    \\/     M anipulation  |                                                 |
\*---------------------------------------------------------------------------*/
FoamFile
{
    version     2.0;
    format      ascii;
    class       volScalarField;
    location    "0.195";
    object      C6H5O;
}
// * * * * * * * * * * * * * * * * * * * * * * * * * * * * * * * * * * * * * //

dimensions      [0 0 0 0 0 0 0];

internalField   nonuniform List<scalar> 
250
(
6.57552e-10
5.78675e-10
5.1208e-10
4.95075e-10
4.80321e-10
4.7776e-10
4.76868e-10
4.74645e-10
4.75727e-10
4.74289e-10
5.88702e-10
5.23571e-10
4.6655e-10
4.53714e-10
4.3895e-10
4.36605e-10
4.35623e-10
4.33022e-10
4.34465e-10
4.32611e-10
4.31305e-10
4.36334e-10
4.29982e-10
4.40546e-10
4.29101e-10
4.5198e-10
4.35464e-10
4.96105e-10
5.07945e-10
9.04024e-10
5.13364e-10
4.59791e-10
4.10459e-10
4.01268e-10
3.86628e-10
3.84514e-10
3.83423e-10
3.80518e-10
3.82295e-10
3.80051e-10
3.78629e-10
3.84355e-10
3.77103e-10
3.89035e-10
3.76066e-10
4.01187e-10
3.81194e-10
4.42174e-10
4.36205e-10
7.24619e-10
4.3012e-10
3.86755e-10
3.44722e-10
3.38591e-10
3.24914e-10
3.23113e-10
3.21924e-10
3.18994e-10
3.20918e-10
3.18511e-10
3.17101e-10
3.22988e-10
3.15515e-10
3.27787e-10
3.14429e-10
3.39638e-10
3.18522e-10
3.76748e-10
3.59859e-10
5.67595e-10
3.44173e-10
3.1043e-10
2.76624e-10
2.72295e-10
2.60511e-10
2.59103e-10
2.58835e-10
2.56286e-10
2.58046e-10
2.55855e-10
2.54645e-10
2.59852e-10
2.53226e-10
2.63334e-10
2.52252e-10
2.7389e-10
2.54478e-10
3.05164e-10
2.84244e-10
4.305e-10
2.65465e-10
2.40804e-10
2.17168e-10
2.14401e-10
2.05716e-10
2.04727e-10
2.04496e-10
2.0258e-10
2.03946e-10
2.02249e-10
2.01355e-10
2.05303e-10
2.00268e-10
2.07931e-10
1.99539e-10
2.15749e-10
2.01099e-10
2.38984e-10
2.21527e-10
3.18449e-10
2.06388e-10
1.88825e-10
1.72425e-10
1.70599e-10
1.64591e-10
1.63919e-10
1.63743e-10
1.62393e-10
1.63382e-10
1.62151e-10
1.61533e-10
1.64331e-10
1.60752e-10
1.66165e-10
1.60246e-10
1.71523e-10
1.61327e-10
1.87483e-10
1.75125e-10
2.34931e-10
1.62868e-10
1.49902e-10
1.3795e-10
1.36714e-10
1.32259e-10
1.31778e-10
1.31634e-10
1.30603e-10
1.31394e-10
1.30407e-10
1.29934e-10
1.32127e-10
1.29307e-10
1.33515e-10
1.28904e-10
1.37449e-10
1.29649e-10
1.48928e-10
1.39649e-10
1.79036e-10
1.23889e-10
1.14036e-10
1.04922e-10
1.04107e-10
1.0064e-10
1.00294e-10
1.00168e-10
9.93538e-11
1.00018e-10
9.91903e-11
9.88004e-11
1.00633e-10
9.82592e-11
1.01745e-10
9.79047e-11
1.04821e-10
9.83887e-11
1.1364e-10
1.05949e-10
1.34173e-10
8.59459e-11
7.90673e-11
7.29309e-11
7.23794e-11
7.01075e-11
6.98927e-11
6.97999e-11
6.9277e-11
6.97241e-11
6.91711e-11
6.88999e-11
7.01633e-11
6.85114e-11
7.09052e-11
6.82527e-11
7.29384e-11
6.85444e-11
7.8826e-11
7.36444e-11
9.21792e-11
5.71343e-11
5.2878e-11
4.95733e-11
4.91418e-11
4.80796e-11
4.79731e-11
4.79232e-11
4.77025e-11
4.78947e-11
4.76641e-11
4.75246e-11
4.81261e-11
4.73235e-11
4.84735e-11
4.71879e-11
4.94255e-11
4.73652e-11
5.23122e-11
5.02232e-11
5.97242e-11
4.32346e-11
4.05286e-11
3.88641e-11
3.85023e-11
3.8122e-11
3.80758e-11
3.80513e-11
3.80002e-11
3.80437e-11
3.80009e-11
3.79431e-11
3.81378e-11
3.78639e-11
3.82535e-11
3.78105e-11
3.85881e-11
3.79366e-11
3.9738e-11
3.94891e-11
4.3667e-11
3.93044e-11
3.71841e-11
3.60474e-11
3.57439e-11
3.55493e-11
3.55261e-11
3.55065e-11
3.55003e-11
3.55077e-11
3.55089e-11
3.54818e-11
3.55471e-11
3.54471e-11
3.55882e-11
3.54277e-11
3.57441e-11
3.55414e-11
3.64077e-11
3.66448e-11
3.9103e-11
)
;

boundaryField
{
    fuel
    {
        type            fixedValue;
        value           nonuniform 0();
    }
    wall
    {
        type            zeroGradient;
    }
    outlet
    {
        type            zeroGradient;
    }
    frontAndBack
    {
        type            empty;
    }
    procBoundary1to0
    {
        type            processor;
        value           nonuniform List<scalar> 
21
(
7.23535e-10
6.28001e-10
5.49129e-10
5.274e-10
5.12509e-10
5.09714e-10
5.08888e-10
5.07028e-10
5.07783e-10
5.0671e-10
4.73137e-10
4.73137e-10
4.77339e-10
4.72053e-10
4.80993e-10
4.71355e-10
4.91399e-10
4.79154e-10
5.39487e-10
5.74325e-10
1.11438e-09
)
;
    }
}


// ************************************************************************* //
