/*--------------------------------*- C++ -*----------------------------------*\
| =========                 |                                                 |
| \\      /  F ield         | OpenFOAM: The Open Source CFD Toolbox           |
|  \\    /   O peration     | Version:  dev                                   |
|   \\  /    A nd           | Web:      www.OpenFOAM.org                      |
|    \\/     M anipulation  |                                                 |
\*---------------------------------------------------------------------------*/
FoamFile
{
    version     2.0;
    format      ascii;
    class       volScalarField;
    location    "0.195";
    object      H2O;
}
// * * * * * * * * * * * * * * * * * * * * * * * * * * * * * * * * * * * * * //

dimensions      [0 0 0 0 0 0 0];

internalField   nonuniform List<scalar> 
250
(
0.058506
0.0583222
0.0581165
0.0580386
0.0579829
0.0579697
0.057966
0.0579594
0.0579614
0.057957
0.0583978
0.0582261
0.0580438
0.0579739
0.0579256
0.0579135
0.0579101
0.0579043
0.057906
0.057902
0.0579009
0.0579078
0.0579005
0.0579148
0.0579023
0.0579405
0.0579407
0.0580934
0.0581605
0.0585799
0.0583027
0.0581444
0.0579845
0.0579222
0.0578809
0.0578699
0.0578667
0.0578617
0.057863
0.0578595
0.057859
0.0578644
0.057859
0.05787
0.0578611
0.0578913
0.0578956
0.0580225
0.0580876
0.0584459
0.0582208
0.0580767
0.0579378
0.0578827
0.0578477
0.0578378
0.0578349
0.0578306
0.0578316
0.0578286
0.0578284
0.0578326
0.0578288
0.057837
0.0578312
0.0578545
0.0578619
0.0579657
0.0580281
0.0583297
0.0581512
0.0580218
0.0579021
0.0578537
0.0578242
0.0578154
0.0578131
0.0578095
0.0578102
0.0578076
0.0578077
0.0578108
0.0578083
0.0578139
0.0578109
0.0578282
0.0578377
0.0579216
0.0579797
0.0582307
0.0580911
0.0579768
0.0578757
0.0578336
0.0578091
0.0578014
0.0577993
0.0577962
0.0577967
0.0577945
0.0577948
0.057797
0.0577956
0.0577995
0.0577982
0.0578111
0.0578218
0.0578886
0.0579424
0.0581479
0.0580418
0.0579417
0.0578564
0.0578203
0.0578001
0.0577933
0.0577914
0.0577888
0.0577892
0.0577872
0.0577876
0.0577893
0.0577885
0.0577912
0.0577912
0.0578006
0.0578117
0.0578646
0.0579132
0.0580777
0.058
0.0579135
0.0578423
0.0578117
0.057795
0.0577892
0.0577874
0.0577852
0.0577854
0.0577837
0.0577842
0.0577855
0.0577851
0.057787
0.0577877
0.0577948
0.0578054
0.0578472
0.0578903
0.0580214
0.0579642
0.0578905
0.0578316
0.0578059
0.0577923
0.0577872
0.0577857
0.0577838
0.0577839
0.0577824
0.0577828
0.0577839
0.0577838
0.0577852
0.0577863
0.0577917
0.0578015
0.0578344
0.0578719
0.0579754
0.0579335
0.0578713
0.0578231
0.0578017
0.0577906
0.0577863
0.0577849
0.0577833
0.0577834
0.057782
0.0577824
0.0577833
0.0577834
0.0577845
0.0577857
0.05779
0.0577987
0.0578247
0.0578569
0.0579378
0.0579075
0.0578553
0.0578162
0.0577985
0.0577895
0.0577858
0.0577845
0.0577832
0.0577831
0.0577819
0.0577822
0.0577831
0.0577832
0.0577841
0.0577853
0.0577889
0.0577964
0.0578171
0.0578446
0.0579076
0.0578869
0.0578429
0.0578108
0.0577961
0.0577886
0.0577854
0.0577843
0.0577831
0.057783
0.0577819
0.0577821
0.057783
0.0577831
0.0577839
0.0577851
0.0577881
0.0577947
0.0578113
0.0578351
0.0578846
0.0578735
0.0578349
0.0578074
0.0577945
0.057788
0.0577852
0.0577841
0.057783
0.0577829
0.0577819
0.0577821
0.0577829
0.057783
0.0577838
0.0577849
0.0577876
0.0577935
0.0578076
0.057829
0.0578702
)
;

boundaryField
{
    fuel
    {
        type            fixedValue;
        value           nonuniform 0();
    }
    wall
    {
        type            zeroGradient;
    }
    outlet
    {
        type            zeroGradient;
    }
    frontAndBack
    {
        type            empty;
    }
    procBoundary1to0
    {
        type            processor;
        value           nonuniform List<scalar> 
21
(
0.0586268
0.0584328
0.0582028
0.0581164
0.0580531
0.0580388
0.0580349
0.0580275
0.0580298
0.0580251
0.0579554
0.0579554
0.0579639
0.0579546
0.0579724
0.0579559
0.0580028
0.0579984
0.0581787
0.0582474
0.0587319
)
;
    }
}


// ************************************************************************* //
