/*--------------------------------*- C++ -*----------------------------------*\
| =========                 |                                                 |
| \\      /  F ield         | OpenFOAM: The Open Source CFD Toolbox           |
|  \\    /   O peration     | Version:  dev                                   |
|   \\  /    A nd           | Web:      www.OpenFOAM.org                      |
|    \\/     M anipulation  |                                                 |
\*---------------------------------------------------------------------------*/
FoamFile
{
    version     2.0;
    format      ascii;
    class       volScalarField;
    location    "0.195";
    object      i-C6H5;
}
// * * * * * * * * * * * * * * * * * * * * * * * * * * * * * * * * * * * * * //

dimensions      [0 0 0 0 0 0 0];

internalField   nonuniform List<scalar> 
250
(
2.90291e-12
2.78501e-12
2.42709e-12
2.38364e-12
2.23493e-12
2.21596e-12
2.20756e-12
2.17907e-12
2.19428e-12
2.17498e-12
2.35639e-12
2.24762e-12
2.07072e-12
2.02761e-12
1.97889e-12
1.96988e-12
1.96918e-12
1.96538e-12
1.96374e-12
1.9655e-12
1.96287e-12
1.96876e-12
1.96245e-12
1.97959e-12
1.96325e-12
2.02658e-12
1.98777e-12
2.23482e-12
2.15592e-12
3.19141e-12
2.39443e-12
2.33799e-12
2.34617e-12
2.2938e-12
2.34366e-12
2.34249e-12
2.35066e-12
2.37266e-12
2.35082e-12
2.37749e-12
2.38741e-12
2.3379e-12
2.40194e-12
2.30713e-12
2.41532e-12
2.25913e-12
2.43196e-12
2.24186e-12
2.4562e-12
2.6843e-12
3.18001e-12
3.21315e-12
3.41548e-12
3.3488e-12
3.4936e-12
3.4975e-12
3.51514e-12
3.56251e-12
3.51774e-12
3.57252e-12
3.59438e-12
3.48729e-12
3.62495e-12
3.41533e-12
3.65201e-12
3.27868e-12
3.66377e-12
3.03818e-12
3.53828e-12
3.05604e-12
4.88546e-12
5.04122e-12
5.42297e-12
5.36351e-12
5.5927e-12
5.598e-12
5.59001e-12
5.65486e-12
5.59e-12
5.66922e-12
5.69893e-12
5.5471e-12
5.74235e-12
5.4752e-12
5.78098e-12
5.26061e-12
5.82779e-12
4.82095e-12
5.55961e-12
4.42426e-12
7.56511e-12
7.85525e-12
8.25895e-12
8.20535e-12
8.42372e-12
8.42277e-12
8.42236e-12
8.4816e-12
8.41299e-12
8.49625e-12
8.52285e-12
8.37266e-12
8.56616e-12
8.30012e-12
8.60592e-12
8.10412e-12
8.64997e-12
7.61866e-12
8.31208e-12
6.84606e-12
1.0552e-11
1.0913e-11
1.11953e-11
1.11778e-11
1.12493e-11
1.12341e-11
1.12345e-11
1.12499e-11
1.12102e-11
1.12569e-11
1.12629e-11
1.11981e-11
1.12823e-11
1.11789e-11
1.1305e-11
1.11294e-11
1.13461e-11
1.08904e-11
1.11046e-11
1.0037e-11
1.25662e-11
1.28549e-11
1.27636e-11
1.28064e-11
1.26114e-11
1.25788e-11
1.2574e-11
1.2515e-11
1.25364e-11
1.25067e-11
1.24781e-11
1.25754e-11
1.24514e-11
1.26545e-11
1.244e-11
1.28608e-11
1.2471e-11
1.31886e-11
1.2515e-11
1.26061e-11
1.19842e-11
1.20722e-11
1.15729e-11
1.16652e-11
1.12462e-11
1.12055e-11
1.11937e-11
1.10762e-11
1.1155e-11
1.10543e-11
1.09984e-11
1.12379e-11
1.09302e-11
1.13977e-11
1.08878e-11
1.18165e-11
1.09024e-11
1.27134e-11
1.12458e-11
1.27726e-11
8.6793e-12
8.60868e-12
8.01637e-12
8.10864e-12
7.69043e-12
7.65786e-12
7.64432e-12
7.5306e-12
7.61773e-12
7.50726e-12
7.45335e-12
7.70138e-12
7.38189e-12
7.85785e-12
7.33596e-12
8.27155e-12
7.33835e-12
9.2529e-12
7.74684e-12
9.75974e-12
4.74464e-12
4.64291e-12
4.24826e-12
4.30187e-12
4.04537e-12
4.02757e-12
4.01768e-12
3.94893e-12
4.00567e-12
3.93328e-12
3.9019e-12
4.05618e-12
3.85758e-12
4.14972e-12
3.83004e-12
4.40022e-12
3.8308e-12
5.03134e-12
4.10444e-12
5.50136e-12
2.30755e-12
2.25621e-12
2.08678e-12
2.10778e-12
1.99906e-12
1.99139e-12
1.98595e-12
1.95591e-12
1.98217e-12
1.94736e-12
1.93708e-12
1.99932e-12
1.92076e-12
2.03543e-12
1.91299e-12
2.13531e-12
1.91788e-12
2.39883e-12
2.03539e-12
2.61063e-12
1.78542e-12
1.74802e-12
1.64039e-12
1.65112e-12
1.58228e-12
1.57701e-12
1.57162e-12
1.55071e-12
1.57142e-12
1.54191e-12
1.54158e-12
1.57272e-12
1.53695e-12
1.58809e-12
1.53946e-12
1.63809e-12
1.5514e-12
1.78691e-12
1.62369e-12
1.9036e-12
)
;

boundaryField
{
    fuel
    {
        type            fixedValue;
        value           nonuniform 0();
    }
    wall
    {
        type            zeroGradient;
    }
    outlet
    {
        type            zeroGradient;
    }
    frontAndBack
    {
        type            empty;
    }
    procBoundary1to0
    {
        type            processor;
        value           nonuniform List<scalar> 
21
(
3.91094e-12
3.84482e-12
3.30233e-12
3.24585e-12
2.99366e-12
2.96275e-12
2.94756e-12
2.89513e-12
2.92449e-12
2.88703e-12
2.16015e-12
2.16015e-12
2.21664e-12
2.14668e-12
2.2673e-12
2.13641e-12
2.41105e-12
2.17266e-12
2.85003e-12
2.49483e-12
4.53818e-12
)
;
    }
}


// ************************************************************************* //
