/*--------------------------------*- C++ -*----------------------------------*\
| =========                 |                                                 |
| \\      /  F ield         | OpenFOAM: The Open Source CFD Toolbox           |
|  \\    /   O peration     | Version:  dev                                   |
|   \\  /    A nd           | Web:      www.OpenFOAM.org                      |
|    \\/     M anipulation  |                                                 |
\*---------------------------------------------------------------------------*/
FoamFile
{
    version     2.0;
    format      ascii;
    class       volScalarField;
    location    "0.195";
    object      n-A1C2H2;
}
// * * * * * * * * * * * * * * * * * * * * * * * * * * * * * * * * * * * * * //

dimensions      [0 0 0 0 0 0 0];

internalField   nonuniform List<scalar> 
250
(
2.26913e-11
1.90281e-11
1.6661e-11
1.58422e-11
1.55834e-11
1.55081e-11
1.54984e-11
1.55054e-11
1.54846e-11
1.55062e-11
2.23285e-11
1.91814e-11
1.72055e-11
1.64866e-11
1.62812e-11
1.6215e-11
1.62102e-11
1.62239e-11
1.61969e-11
1.62277e-11
1.62337e-11
1.61892e-11
1.62453e-11
1.61718e-11
1.62638e-11
1.62075e-11
1.65484e-11
1.72727e-11
1.96314e-11
3.45367e-11
2.25654e-11
1.98549e-11
1.8248e-11
1.76104e-11
1.7477e-11
1.742e-11
1.74213e-11
1.74477e-11
1.74085e-11
1.74557e-11
1.74681e-11
1.73927e-11
1.74879e-11
1.73557e-11
1.75134e-11
1.73512e-11
1.77621e-11
1.81699e-11
2.01918e-11
3.12001e-11
2.36867e-11
2.13569e-11
2.00978e-11
1.9527e-11
1.94731e-11
1.94231e-11
1.94294e-11
1.94702e-11
1.94153e-11
1.9483e-11
1.95029e-11
1.93887e-11
1.95339e-11
1.93292e-11
1.95693e-11
1.92773e-11
1.97905e-11
1.98418e-11
2.16556e-11
2.95551e-11
2.59833e-11
2.39851e-11
2.30107e-11
2.25167e-11
2.2528e-11
2.24812e-11
2.24598e-11
2.25065e-11
2.24398e-11
2.25226e-11
2.25469e-11
2.24054e-11
2.25868e-11
2.23619e-11
2.26309e-11
2.22723e-11
2.28671e-11
2.26262e-11
2.42629e-11
2.9737e-11
2.9623e-11
2.79e-11
2.70256e-11
2.65895e-11
2.65751e-11
2.6524e-11
2.65139e-11
2.65465e-11
2.64825e-11
2.65617e-11
2.65825e-11
2.64505e-11
2.6622e-11
2.64114e-11
2.6668e-11
2.63712e-11
2.68844e-11
2.66872e-11
2.79649e-11
3.18309e-11
3.43766e-11
3.28161e-11
3.19242e-11
3.15569e-11
3.14218e-11
3.13599e-11
3.13546e-11
3.13469e-11
3.13076e-11
3.13553e-11
3.13628e-11
3.12921e-11
3.13882e-11
3.12953e-11
3.14266e-11
3.13863e-11
3.16344e-11
3.18992e-11
3.25854e-11
3.57568e-11
4.00961e-11
3.85646e-11
3.74601e-11
3.71698e-11
3.6834e-11
3.67573e-11
3.67527e-11
3.66835e-11
3.66895e-11
3.66801e-11
3.66663e-11
3.67024e-11
3.66652e-11
3.67783e-11
3.6688e-11
3.70657e-11
3.68928e-11
3.80014e-11
3.78933e-11
4.11445e-11
4.71549e-11
4.55726e-11
4.41972e-11
4.39807e-11
4.34491e-11
4.3359e-11
4.3354e-11
4.3226e-11
4.3278e-11
4.32097e-11
4.31803e-11
4.33122e-11
4.3158e-11
4.34563e-11
4.31724e-11
4.39276e-11
4.33842e-11
4.53521e-11
4.44861e-11
4.82492e-11
6.02771e-11
5.88411e-11
5.76074e-11
5.73946e-11
5.69341e-11
5.68357e-11
5.68401e-11
5.67214e-11
5.67548e-11
5.67005e-11
5.67134e-11
5.67225e-11
5.67504e-11
5.68175e-11
5.6829e-11
5.7198e-11
5.71148e-11
5.86181e-11
5.80037e-11
6.09989e-11
1.02191e-10
1.00707e-10
9.91966e-11
9.88177e-11
9.81552e-11
9.79788e-11
9.7975e-11
9.77548e-11
9.78644e-11
9.76682e-11
9.77717e-11
9.76767e-11
9.79216e-11
9.77246e-11
9.81515e-11
9.80952e-11
9.87618e-11
9.98478e-11
1.0018e-10
1.01843e-10
1.95862e-10
1.89142e-10
1.79286e-10
1.78968e-10
1.73866e-10
1.73348e-10
1.73098e-10
1.71636e-10
1.72979e-10
1.71112e-10
1.70945e-10
1.73232e-10
1.70575e-10
1.74495e-10
1.70599e-10
1.78498e-10
1.71813e-10
1.90525e-10
1.80337e-10
2.04969e-10
2.39953e-10
2.24614e-10
2.03495e-10
2.03571e-10
1.9302e-10
1.92293e-10
1.9162e-10
1.88772e-10
1.91701e-10
1.87701e-10
1.87226e-10
1.92526e-10
1.86163e-10
1.95176e-10
1.8589e-10
2.03655e-10
1.87461e-10
2.29759e-10
2.03877e-10
2.66233e-10
)
;

boundaryField
{
    fuel
    {
        type            fixedValue;
        value           nonuniform 0();
    }
    wall
    {
        type            zeroGradient;
    }
    outlet
    {
        type            zeroGradient;
    }
    frontAndBack
    {
        type            empty;
    }
    procBoundary1to0
    {
        type            processor;
        value           nonuniform List<scalar> 
21
(
2.34631e-11
1.91749e-11
1.63703e-11
1.54331e-11
1.51362e-11
1.50525e-11
1.50401e-11
1.50458e-11
1.50266e-11
1.50449e-11
1.55088e-11
1.55088e-11
1.54802e-11
1.55164e-11
1.54731e-11
1.55318e-11
1.55308e-11
1.58582e-11
1.68228e-11
1.96978e-11
3.9513e-11
)
;
    }
}


// ************************************************************************* //
