/*--------------------------------*- C++ -*----------------------------------*\
| =========                 |                                                 |
| \\      /  F ield         | OpenFOAM: The Open Source CFD Toolbox           |
|  \\    /   O peration     | Version:  dev                                   |
|   \\  /    A nd           | Web:      www.OpenFOAM.org                      |
|    \\/     M anipulation  |                                                 |
\*---------------------------------------------------------------------------*/
FoamFile
{
    version     2.0;
    format      ascii;
    class       volScalarField;
    location    "0.195";
    object      n-C4H3;
}
// * * * * * * * * * * * * * * * * * * * * * * * * * * * * * * * * * * * * * //

dimensions      [0 0 0 0 0 0 0];

internalField   nonuniform List<scalar> 
250
(
8.04275e-09
7.19523e-09
7.18239e-09
6.72981e-09
6.7998e-09
6.64571e-09
6.70946e-09
6.6461e-09
6.67853e-09
6.65172e-09
7.77498e-09
7.10837e-09
7.09966e-09
6.73284e-09
6.78112e-09
6.66062e-09
6.70573e-09
6.65975e-09
6.68189e-09
6.66318e-09
6.66893e-09
6.67654e-09
6.67074e-09
6.68665e-09
6.69265e-09
6.71585e-09
6.83016e-09
6.94327e-09
7.33521e-09
7.57596e-09
7.68567e-09
7.18864e-09
7.18119e-09
6.8952e-09
6.91985e-09
6.8323e-09
6.85821e-09
6.82975e-09
6.8408e-09
6.83061e-09
6.83416e-09
6.83756e-09
6.83511e-09
6.8475e-09
6.85212e-09
6.87288e-09
6.96343e-09
7.06331e-09
7.37691e-09
7.57419e-09
7.81923e-09
7.47778e-09
7.47059e-09
7.25617e-09
7.25724e-09
7.19882e-09
7.20699e-09
7.19419e-09
7.19406e-09
7.1922e-09
7.19358e-09
7.1932e-09
7.19384e-09
7.20348e-09
7.2068e-09
7.22601e-09
7.29693e-09
7.3859e-09
7.62906e-09
7.78202e-09
8.23876e-09
8.0326e-09
8.02657e-09
7.87249e-09
7.84858e-09
7.81726e-09
7.80834e-09
7.81024e-09
7.79856e-09
7.805e-09
7.80413e-09
7.80055e-09
7.80394e-09
7.81175e-09
7.81376e-09
7.83244e-09
7.8877e-09
7.96828e-09
8.15014e-09
8.25966e-09
9.05106e-09
8.95641e-09
8.9516e-09
8.84554e-09
8.7973e-09
8.79361e-09
8.76237e-09
8.78345e-09
8.75863e-09
8.7742e-09
8.77068e-09
8.76435e-09
8.77027e-09
8.7771e-09
8.77764e-09
8.79693e-09
8.8374e-09
8.91497e-09
9.05465e-09
9.12392e-09
1.04668e-08
1.04517e-08
1.04441e-08
1.03762e-08
1.03001e-08
1.03224e-08
1.0269e-08
1.03081e-08
1.0269e-08
1.0294e-08
1.02876e-08
1.02794e-08
1.02873e-08
1.02946e-08
1.02934e-08
1.03149e-08
1.03449e-08
1.04225e-08
1.05249e-08
1.05602e-08
1.28234e-08
1.28363e-08
1.28538e-08
1.27578e-08
1.26824e-08
1.26959e-08
1.26399e-08
1.2678e-08
1.2636e-08
1.26613e-08
1.26539e-08
1.26498e-08
1.2655e-08
1.26689e-08
1.26664e-08
1.26927e-08
1.27314e-08
1.28067e-08
1.29121e-08
1.29248e-08
1.66427e-08
1.63947e-08
1.6598e-08
1.61895e-08
1.6265e-08
1.61095e-08
1.61471e-08
1.60956e-08
1.61101e-08
1.60906e-08
1.60922e-08
1.61163e-08
1.60992e-08
1.61414e-08
1.61412e-08
1.61764e-08
1.62995e-08
1.63459e-08
1.6598e-08
1.66208e-08
2.19792e-08
2.06487e-08
2.14948e-08
2.00144e-08
2.06468e-08
1.99034e-08
2.02908e-08
1.99161e-08
2.01481e-08
1.99639e-08
2.00001e-08
2.01153e-08
2.00241e-08
2.01454e-08
2.01592e-08
2.02076e-08
2.0608e-08
2.05486e-08
2.13238e-08
2.14513e-08
2.56191e-08
2.1603e-08
2.38003e-08
2.01211e-08
2.18669e-08
1.9981e-08
2.10549e-08
2.00516e-08
2.07168e-08
2.02087e-08
2.03076e-08
2.06023e-08
2.03649e-08
2.06211e-08
2.0671e-08
2.07263e-08
2.1665e-08
2.14047e-08
2.33188e-08
2.3839e-08
1.80137e-08
1.36499e-08
1.57764e-08
1.22995e-08
1.39147e-08
1.21971e-08
1.31808e-08
1.22629e-08
1.28805e-08
1.24102e-08
1.2494e-08
1.27759e-08
1.25498e-08
1.27731e-08
1.28253e-08
1.28591e-08
1.37162e-08
1.34627e-08
1.53228e-08
1.59938e-08
7.83909e-09
5.8473e-09
6.74578e-09
5.26063e-09
5.91876e-09
5.21238e-09
5.60998e-09
5.23355e-09
5.48819e-09
5.29184e-09
5.31896e-09
5.45588e-09
5.34821e-09
5.44814e-09
5.47252e-09
5.48686e-09
5.85861e-09
5.75888e-09
6.58402e-09
6.9507e-09
)
;

boundaryField
{
    fuel
    {
        type            fixedValue;
        value           nonuniform 0();
    }
    wall
    {
        type            zeroGradient;
    }
    outlet
    {
        type            zeroGradient;
    }
    frontAndBack
    {
        type            empty;
    }
    procBoundary1to0
    {
        type            processor;
        value           nonuniform List<scalar> 
21
(
8.44973e-09
7.41596e-09
7.39025e-09
6.85246e-09
6.93924e-09
6.7545e-09
6.83422e-09
6.75565e-09
6.79673e-09
6.76291e-09
6.65964e-09
6.65964e-09
6.67147e-09
6.66242e-09
6.68213e-09
6.68954e-09
6.71587e-09
6.85623e-09
6.9856e-09
7.46074e-09
7.74074e-09
)
;
    }
}


// ************************************************************************* //
