/*--------------------------------*- C++ -*----------------------------------*\
| =========                 |                                                 |
| \\      /  F ield         | OpenFOAM: The Open Source CFD Toolbox           |
|  \\    /   O peration     | Version:  dev                                   |
|   \\  /    A nd           | Web:      www.OpenFOAM.org                      |
|    \\/     M anipulation  |                                                 |
\*---------------------------------------------------------------------------*/
FoamFile
{
    version     2.0;
    format      ascii;
    class       volScalarField;
    location    "0.195";
    object      P2-H;
}
// * * * * * * * * * * * * * * * * * * * * * * * * * * * * * * * * * * * * * //

dimensions      [0 0 0 0 0 0 0];

internalField   nonuniform List<scalar> 
250
(
4.44754e-16
1.18214e-16
9.14477e-17
7.8596e-17
7.88624e-17
7.59811e-17
7.72097e-17
7.59765e-17
7.66566e-17
7.61201e-17
3.16453e-16
1.01745e-16
8.42194e-17
7.23657e-17
7.35105e-17
7.02136e-17
7.17376e-17
7.02494e-17
7.10967e-17
7.0439e-17
7.06435e-17
7.08698e-17
7.06933e-17
7.10517e-17
7.12257e-17
7.17873e-17
7.49003e-17
7.95842e-17
1.00061e-16
1.33968e-16
2.26932e-16
8.70875e-17
7.63061e-17
6.55854e-17
6.73077e-17
6.38412e-17
6.5524e-17
6.39054e-17
6.48394e-17
6.41215e-17
6.43395e-17
6.45905e-17
6.43831e-17
6.47642e-17
6.4921e-17
6.53892e-17
6.82475e-17
7.17583e-17
8.8673e-17
1.15986e-16
1.65029e-16
7.44482e-17
6.83188e-17
5.88432e-17
6.08524e-17
5.74279e-17
5.91592e-17
5.75078e-17
5.84578e-17
5.77325e-17
5.79485e-17
5.8206e-17
5.79863e-17
5.83651e-17
5.85017e-17
5.88832e-17
6.14427e-17
6.39845e-17
7.77624e-17
9.94183e-17
1.22496e-16
6.36269e-17
6.07812e-17
5.2404e-17
5.46041e-17
5.14067e-17
5.2982e-17
5.14942e-17
5.24109e-17
5.17146e-17
5.19181e-17
5.21704e-17
5.19514e-17
5.23119e-17
5.2428e-17
5.27336e-17
5.49123e-17
5.67516e-17
6.78664e-17
8.47733e-17
9.34377e-17
5.49258e-17
5.40609e-17
4.68246e-17
4.89845e-17
4.60588e-17
4.75257e-17
4.61455e-17
4.70015e-17
4.63539e-17
4.65391e-17
4.6781e-17
4.65695e-17
4.69042e-17
4.70018e-17
4.72441e-17
4.91135e-17
5.03718e-17
5.90971e-17
7.21249e-17
7.30071e-17
4.80297e-17
4.83769e-17
4.21571e-17
4.41989e-17
4.15713e-17
4.2908e-17
4.16514e-17
4.24327e-17
4.18431e-17
4.20072e-17
4.22369e-17
4.20362e-17
4.23426e-17
4.24242e-17
4.26155e-17
4.42085e-17
4.50303e-17
5.19487e-17
6.18595e-17
5.96992e-17
4.30543e-17
4.40454e-17
3.88101e-17
4.06253e-17
3.83626e-17
3.95175e-17
3.84275e-17
3.9102e-17
3.8593e-17
3.87304e-17
3.89387e-17
3.87575e-17
3.90287e-17
3.9095e-17
3.9246e-17
4.05726e-17
4.10847e-17
4.64817e-17
5.39197e-17
5.26105e-17
4.19549e-17
4.28201e-17
3.91553e-17
4.02729e-17
3.88062e-17
3.94844e-17
3.88194e-17
3.92019e-17
3.8907e-17
3.89849e-17
3.91128e-17
3.90017e-17
3.91926e-17
3.92325e-17
3.93556e-17
4.02685e-17
4.06518e-17
4.45164e-17
5.00128e-17
6.20106e-17
5.85675e-17
5.68678e-17
5.80226e-17
5.62628e-17
5.76652e-17
5.64656e-17
5.74477e-17
5.66565e-17
5.72063e-17
5.70637e-17
5.68579e-17
5.70359e-17
5.69591e-17
5.69055e-17
5.70495e-17
5.6756e-17
5.75585e-17
5.88005e-17
6.29368e-17
1.74638e-16
1.86704e-16
1.74003e-16
1.90686e-16
1.78047e-16
1.89546e-16
1.8128e-16
1.88275e-16
1.83076e-16
1.86696e-16
1.85634e-16
1.84606e-16
1.85558e-16
1.84884e-16
1.84472e-16
1.85018e-16
1.81216e-16
1.84525e-16
1.80179e-16
1.858e-16
1.16998e-15
1.19187e-15
1.14313e-15
1.19212e-15
1.13954e-15
1.18291e-15
1.1476e-15
1.17555e-15
1.15407e-15
1.16788e-15
1.16174e-15
1.16377e-15
1.16316e-15
1.16463e-15
1.16295e-15
1.16731e-15
1.15998e-15
1.1755e-15
1.17717e-15
1.21709e-15
1.30171e-14
1.26116e-14
1.23857e-14
1.23967e-14
1.20671e-14
1.22841e-14
1.20454e-14
1.22102e-14
1.20752e-14
1.2148e-14
1.20853e-14
1.21812e-14
1.21166e-14
1.21796e-14
1.21716e-14
1.22227e-14
1.22918e-14
1.24142e-14
1.27274e-14
1.32824e-14
)
;

boundaryField
{
    fuel
    {
        type            fixedValue;
        value           nonuniform 0();
    }
    wall
    {
        type            zeroGradient;
    }
    outlet
    {
        type            zeroGradient;
    }
    frontAndBack
    {
        type            empty;
    }
    procBoundary1to0
    {
        type            processor;
        value           nonuniform List<scalar> 
21
(
6.26529e-16
1.36504e-16
9.74377e-17
8.36776e-17
8.28084e-17
8.05615e-17
8.13726e-17
8.05089e-17
8.09527e-17
8.05903e-17
7.62944e-17
7.62944e-17
7.64725e-17
7.63494e-17
7.66537e-17
7.68386e-17
7.74938e-17
8.07827e-17
8.68337e-17
1.11284e-16
1.52665e-16
)
;
    }
}


// ************************************************************************* //
