/*--------------------------------*- C++ -*----------------------------------*\
| =========                 |                                                 |
| \\      /  F ield         | OpenFOAM: The Open Source CFD Toolbox           |
|  \\    /   O peration     | Version:  dev                                   |
|   \\  /    A nd           | Web:      www.OpenFOAM.org                      |
|    \\/     M anipulation  |                                                 |
\*---------------------------------------------------------------------------*/
FoamFile
{
    version     2.0;
    format      ascii;
    class       volScalarField;
    location    "0.005";
    object      A2;
}
// * * * * * * * * * * * * * * * * * * * * * * * * * * * * * * * * * * * * * //

dimensions      [0 0 0 0 0 0 0];

internalField   nonuniform List<scalar> 
25
(
2.11695e-14
2.47639e-14
2.88885e-14
3.10134e-14
2.95076e-14
2.55279e-14
2.12103e-14
1.78988e-14
1.58259e-14
1.48317e-14
1.47246e-14
1.54171e-14
1.69776e-14
1.965e-14
2.39816e-14
3.09769e-14
4.24022e-14
6.12433e-14
9.23169e-14
1.42949e-13
2.23516e-13
3.47558e-13
5.31064e-13
7.91148e-13
1.14383e-12
)
;

boundaryField
{
    wall
    {
        type            zeroGradient;
    }
    fuel
    {
        type            fixedValue;
        value           uniform 0;
    }
    outlet
    {
        type            inletOutlet;
        inletValue      nonuniform 0();
        value           nonuniform 0();
    }
    procBoundary0to1
    {
        type            processor;
        value           uniform 1.60189e-12;
    }
}


// ************************************************************************* //
