/*--------------------------------*- C++ -*----------------------------------*\
| =========                 |                                                 |
| \\      /  F ield         | OpenFOAM: The Open Source CFD Toolbox           |
|  \\    /   O peration     | Version:  dev                                   |
|   \\  /    A nd           | Web:      www.OpenFOAM.org                      |
|    \\/     M anipulation  |                                                 |
\*---------------------------------------------------------------------------*/
FoamFile
{
    version     2.0;
    format      ascii;
    class       volScalarField;
    location    "0.005";
    object      A4-;
}
// * * * * * * * * * * * * * * * * * * * * * * * * * * * * * * * * * * * * * //

dimensions      [0 0 0 0 0 0 0];

internalField   nonuniform List<scalar> 
25
(
1.74769e-12
1.04593e-12
6.07121e-13
3.58056e-13
2.15642e-13
1.33538e-13
8.56731e-14
5.73123e-14
4.0071e-14
2.92972e-14
2.23414e-14
1.76442e-14
1.43294e-14
1.19183e-14
1.01081e-14
8.72329e-15
7.65246e-15
6.81982e-15
6.17014e-15
5.66096e-15
5.25865e-15
4.93628e-15
4.6726e-15
4.45082e-15
4.25803e-15
)
;

boundaryField
{
    wall
    {
        type            zeroGradient;
    }
    fuel
    {
        type            fixedValue;
        value           uniform 0;
    }
    outlet
    {
        type            inletOutlet;
        inletValue      nonuniform 0();
        value           nonuniform 0();
    }
    procBoundary0to1
    {
        type            processor;
        value           uniform 4.08447e-15;
    }
}


// ************************************************************************* //
