/*--------------------------------*- C++ -*----------------------------------*\
| =========                 |                                                 |
| \\      /  F ield         | OpenFOAM: The Open Source CFD Toolbox           |
|  \\    /   O peration     | Version:  dev                                   |
|   \\  /    A nd           | Web:      www.OpenFOAM.org                      |
|    \\/     M anipulation  |                                                 |
\*---------------------------------------------------------------------------*/
FoamFile
{
    version     2.0;
    format      ascii;
    class       volScalarField;
    location    "0.005";
    object      C6H8;
}
// * * * * * * * * * * * * * * * * * * * * * * * * * * * * * * * * * * * * * //

dimensions      [0 0 0 0 0 0 0];

internalField   nonuniform List<scalar> 
25
(
1.30982e-15
3.97769e-15
5.54402e-15
5.92508e-15
5.35516e-15
4.25416e-15
3.07124e-15
2.07839e-15
1.32354e-15
7.45681e-16
5.22622e-16
3.55943e-16
2.65635e-16
2.0794e-16
1.69664e-16
1.44941e-16
1.30239e-16
1.23053e-16
1.21463e-16
1.23899e-16
1.29005e-16
1.35582e-16
1.42574e-16
1.49107e-16
1.54509e-16
)
;

boundaryField
{
    wall
    {
        type            zeroGradient;
    }
    fuel
    {
        type            fixedValue;
        value           uniform 0;
    }
    outlet
    {
        type            inletOutlet;
        inletValue      nonuniform 0();
        value           nonuniform 0();
    }
    procBoundary0to1
    {
        type            processor;
        value           uniform 1.58313e-16;
    }
}


// ************************************************************************* //
