/*--------------------------------*- C++ -*----------------------------------*\
| =========                 |                                                 |
| \\      /  F ield         | OpenFOAM: The Open Source CFD Toolbox           |
|  \\    /   O peration     | Version:  dev                                   |
|   \\  /    A nd           | Web:      www.OpenFOAM.org                      |
|    \\/     M anipulation  |                                                 |
\*---------------------------------------------------------------------------*/
FoamFile
{
    version     2.0;
    format      ascii;
    class       volScalarField;
    location    "0.005";
    object      l-C6H6;
}
// * * * * * * * * * * * * * * * * * * * * * * * * * * * * * * * * * * * * * //

dimensions      [0 0 0 0 0 0 0];

internalField   nonuniform List<scalar> 
25
(
1.74484e-11
5.1989e-11
6.47408e-11
6.16819e-11
5.04449e-11
3.69091e-11
2.4961e-11
1.6099e-11
1.01163e-11
6.29701e-12
3.93896e-12
2.49821e-12
1.6208e-12
1.08884e-12
7.63904e-13
5.64876e-13
4.43106e-13
3.69066e-13
3.24417e-13
2.97431e-13
2.80413e-13
2.6827e-13
2.57688e-13
2.46662e-13
2.34148e-13
)
;

boundaryField
{
    wall
    {
        type            zeroGradient;
    }
    fuel
    {
        type            fixedValue;
        value           uniform 0;
    }
    outlet
    {
        type            inletOutlet;
        inletValue      nonuniform 0();
        value           nonuniform 0();
    }
    procBoundary0to1
    {
        type            processor;
        value           uniform 2.19815e-13;
    }
}


// ************************************************************************* //
