/*--------------------------------*- C++ -*----------------------------------*\
| =========                 |                                                 |
| \\      /  F ield         | OpenFOAM: The Open Source CFD Toolbox           |
|  \\    /   O peration     | Version:  dev                                   |
|   \\  /    A nd           | Web:      www.OpenFOAM.org                      |
|    \\/     M anipulation  |                                                 |
\*---------------------------------------------------------------------------*/
FoamFile
{
    version     2.0;
    format      ascii;
    class       volScalarField;
    location    "0.005";
    object      n-C4H5;
}
// * * * * * * * * * * * * * * * * * * * * * * * * * * * * * * * * * * * * * //

dimensions      [0 0 0 0 0 0 0];

internalField   nonuniform List<scalar> 
25
(
9.22147e-11
1.11829e-10
8.65395e-11
6.00362e-11
3.93912e-11
2.48627e-11
1.52398e-11
9.18247e-12
5.46492e-12
3.22926e-12
1.87877e-12
1.03662e-12
7.00371e-13
4.49193e-13
2.95284e-13
2.0357e-13
1.48679e-13
1.15414e-13
9.50159e-14
8.24447e-14
7.47872e-14
7.03572e-14
6.81946e-14
6.7771e-14
6.88308e-14
)
;

boundaryField
{
    wall
    {
        type            zeroGradient;
    }
    fuel
    {
        type            fixedValue;
        value           uniform 0;
    }
    outlet
    {
        type            inletOutlet;
        inletValue      nonuniform 0();
        value           nonuniform 0();
    }
    procBoundary0to1
    {
        type            processor;
        value           uniform 7.12778e-14;
    }
}


// ************************************************************************* //
