/*--------------------------------*- C++ -*----------------------------------*\
| =========                 |                                                 |
| \\      /  F ield         | OpenFOAM: The Open Source CFD Toolbox           |
|  \\    /   O peration     | Version:  dev                                   |
|   \\  /    A nd           | Web:      www.OpenFOAM.org                      |
|    \\/     M anipulation  |                                                 |
\*---------------------------------------------------------------------------*/
FoamFile
{
    version     2.0;
    format      ascii;
    class       volScalarField;
    location    "0.17";
    object      A1C2H;
}
// * * * * * * * * * * * * * * * * * * * * * * * * * * * * * * * * * * * * * //

dimensions      [0 0 0 0 0 0 0];

internalField   nonuniform List<scalar> 
250
(
6.31848e-07
1.89918e-05
1.69345e-05
1.66133e-05
1.65667e-05
1.65528e-05
1.65601e-05
1.65618e-05
1.65576e-05
1.50957e-06
1.92635e-05
1.5677e-05
1.51359e-05
1.50568e-05
1.5043e-05
1.50441e-05
1.50456e-05
1.50451e-05
2.21288e-06
1.77136e-05
1.31422e-05
1.24499e-05
1.23491e-05
1.23349e-05
1.23321e-05
1.23348e-05
1.23356e-05
2.76248e-06
1.59785e-05
1.0803e-05
1.00108e-05
9.89794e-06
9.88377e-06
9.87535e-06
9.88216e-06
9.88385e-06
3.19028e-06
1.42785e-05
8.78444e-06
7.94037e-06
7.82569e-06
7.81206e-06
7.79582e-06
7.80966e-06
7.81205e-06
3.51917e-06
1.27487e-05
7.11402e-06
6.22789e-06
6.06982e-06
6.05266e-06
6.05743e-06
6.0479e-06
6.05152e-06
3.7562e-06
1.14472e-05
5.78076e-06
4.90075e-06
4.73859e-06
4.72063e-06
4.72038e-06
4.71583e-06
4.71947e-06
3.88643e-06
1.03687e-05
4.67792e-06
3.89486e-06
3.72287e-06
3.70307e-06
3.69615e-06
3.69858e-06
3.70185e-06
3.87465e-06
9.47593e-06
3.88063e-06
3.08345e-06
2.94396e-06
2.9327e-06
2.93178e-06
2.92873e-06
2.93203e-06
3.77812e-06
8.72132e-06
3.24909e-06
2.45757e-06
2.38577e-06
2.37472e-06
2.37146e-06
2.37134e-06
2.37407e-06
3.76899e-06
8.06218e-06
2.73398e-06
2.05209e-06
1.96588e-06
1.9515e-06
1.94449e-06
1.94752e-06
1.95043e-06
1.9479e-06
3.88849e-06
7.46651e-06
2.33644e-06
1.71708e-06
1.62928e-06
1.61529e-06
1.6052e-06
1.61158e-06
1.6141e-06
1.6123e-06
4.13685e-06
6.91291e-06
2.06389e-06
1.4641e-06
1.3783e-06
1.36502e-06
1.35007e-06
1.3613e-06
1.36362e-06
1.36243e-06
4.5264e-06
6.38216e-06
1.82577e-06
1.27014e-06
1.18767e-06
1.17537e-06
1.17917e-06
1.1713e-06
1.17353e-06
1.17282e-06
5.01516e-06
5.88016e-06
1.62562e-06
1.11798e-06
1.03978e-06
1.02835e-06
1.03101e-06
1.02379e-06
1.02618e-06
1.02585e-06
5.51402e-06
5.36609e-06
1.45732e-06
9.9603e-07
9.22662e-07
9.11986e-07
9.1399e-07
9.06734e-07
9.09612e-07
9.09583e-07
5.92841e-06
4.9038e-06
1.33186e-06
8.96432e-07
8.28217e-07
8.18212e-07
8.19711e-07
8.11954e-07
8.15741e-07
8.15944e-07
6.18872e-06
4.41462e-06
1.21382e-06
8.13632e-07
7.50993e-07
7.41574e-07
7.42641e-07
7.33788e-07
7.39119e-07
7.39487e-07
6.26685e-06
3.93733e-06
1.10839e-06
7.43754e-07
6.8723e-07
6.78357e-07
6.79103e-07
6.76544e-07
6.76034e-07
6.76492e-07
6.1703e-06
3.48977e-06
1.01662e-06
6.91526e-07
6.34345e-07
6.25988e-07
6.26432e-07
6.23566e-07
6.23853e-07
6.24376e-07
5.92832e-06
3.07672e-06
9.36695e-07
6.44883e-07
5.9047e-07
5.82662e-07
5.82856e-07
5.79481e-07
5.80762e-07
5.81324e-07
5.57899e-06
2.6993e-06
8.67442e-07
6.04093e-07
5.54274e-07
5.47088e-07
5.47119e-07
5.47257e-07
5.45459e-07
5.46033e-07
5.16072e-06
2.3951e-06
8.08152e-07
5.7433e-07
5.28279e-07
5.21727e-07
5.21643e-07
5.21845e-07
5.20345e-07
5.20931e-07
4.70681e-06
2.12511e-06
7.57988e-07
5.50077e-07
5.08436e-07
5.01001e-07
5.00816e-07
5.01075e-07
4.99812e-07
5.00391e-07
4.2453e-06
1.88591e-06
7.16307e-07
5.32746e-07
4.94495e-07
4.8749e-07
4.87235e-07
4.87614e-07
4.86516e-07
4.8711e-07
3.79942e-06
1.6875e-06
6.86598e-07
5.2123e-07
4.86301e-07
4.79709e-07
4.79406e-07
4.79917e-07
4.78932e-07
4.79546e-07
)
;

boundaryField
{
    fuel
    {
        type            fixedValue;
        value           uniform 0;
    }
    wall
    {
        type            zeroGradient;
    }
    outlet
    {
        type            zeroGradient;
    }
    frontAndBack
    {
        type            empty;
    }
    procBoundary2to0
    {
        type            processor;
        value           nonuniform List<scalar> 
12
(
4.86133e-07
3.34137e-06
1.51302e-06
6.64486e-07
5.15746e-07
4.83791e-07
4.77605e-07
4.77271e-07
4.77924e-07
4.77007e-07
4.78785e-07
4.77646e-07
)
;
    }
    procBoundary2to3
    {
        type            processor;
        value           nonuniform List<scalar> 
25
(
1.65593e-05
1.50451e-05
1.23343e-05
9.8813e-06
7.80861e-06
6.04704e-06
4.71494e-06
3.69761e-06
2.92879e-06
2.3715e-06
2.3715e-06
1.95022e-06
1.61368e-06
1.36301e-06
1.17276e-06
1.02532e-06
9.08695e-07
8.14804e-07
7.3818e-07
6.75083e-07
6.22926e-07
5.79889e-07
5.44667e-07
5.19657e-07
4.99238e-07
)
;
    }
}


// ************************************************************************* //
