/*--------------------------------*- C++ -*----------------------------------*\
| =========                 |                                                 |
| \\      /  F ield         | OpenFOAM: The Open Source CFD Toolbox           |
|  \\    /   O peration     | Version:  dev                                   |
|   \\  /    A nd           | Web:      www.OpenFOAM.org                      |
|    \\/     M anipulation  |                                                 |
\*---------------------------------------------------------------------------*/
FoamFile
{
    version     2.0;
    format      ascii;
    class       volScalarField;
    location    "0.17";
    object      A2C2HA*;
}
// * * * * * * * * * * * * * * * * * * * * * * * * * * * * * * * * * * * * * //

dimensions      [0 0 0 0 0 0 0];

internalField   nonuniform List<scalar> 
50
(
7.81091e-20
6.994e-20
6.26941e-20
5.62712e-20
5.0571e-20
4.54902e-20
4.09585e-20
3.69173e-20
3.33125e-20
3.0094e-20
2.72184e-20
2.46422e-20
2.23381e-20
2.02719e-20
1.8418e-20
1.67529e-20
1.52561e-20
1.39083e-20
1.26924e-20
1.15968e-20
1.06079e-20
9.71491e-21
8.90932e-21
8.18227e-21
7.52461e-21
6.92905e-21
6.38909e-21
5.89888e-21
5.45319e-21
5.04729e-21
4.67704e-21
4.339e-21
4.02989e-21
3.74662e-21
3.48642e-21
3.24659e-21
3.02459e-21
2.81989e-21
2.63069e-21
2.45437e-21
2.29048e-21
2.13832e-21
1.99749e-21
1.86627e-21
1.74339e-21
1.62847e-21
1.5206e-21
1.41943e-21
1.32433e-21
1.23549e-21
)
;

boundaryField
{
    wall
    {
        type            zeroGradient;
    }
    fuel
    {
        type            fixedValue;
        value           nonuniform 0();
    }
    outlet
    {
        type            inletOutlet;
        inletValue      nonuniform 0();
        value           nonuniform 0();
    }
    procBoundary2to1
    {
        type            processor;
        value           uniform 8.72043e-20;
    }
    procBoundary2to3
    {
        type            processor;
        value           uniform 1.1494e-21;
    }
}


// ************************************************************************* //
