/*--------------------------------*- C++ -*----------------------------------*\
| =========                 |                                                 |
| \\      /  F ield         | OpenFOAM: The Open Source CFD Toolbox           |
|  \\    /   O peration     | Version:  dev                                   |
|   \\  /    A nd           | Web:      www.OpenFOAM.org                      |
|    \\/     M anipulation  |                                                 |
\*---------------------------------------------------------------------------*/
FoamFile
{
    version     2.0;
    format      ascii;
    class       volScalarField;
    location    "0.17";
    object      A3-1;
}
// * * * * * * * * * * * * * * * * * * * * * * * * * * * * * * * * * * * * * //

dimensions      [0 0 0 0 0 0 0];

internalField   nonuniform List<scalar> 
50
(
1.0593e-20
9.67117e-21
8.84881e-21
8.11513e-21
7.45925e-21
6.86996e-21
6.33985e-21
5.86283e-21
5.43337e-21
5.04628e-21
4.69714e-21
4.3814e-21
4.09637e-21
3.83842e-21
3.60492e-21
3.39338e-21
3.20162e-21
3.0276e-21
2.86944e-21
2.72592e-21
2.59554e-21
2.47715e-21
2.36977e-21
2.27242e-21
2.184e-21
2.10363e-21
2.03051e-21
1.96388e-21
1.90305e-21
1.84737e-21
1.79623e-21
1.74911e-21
1.70551e-21
1.66492e-21
1.62688e-21
1.59093e-21
1.55662e-21
1.52379e-21
1.49209e-21
1.46105e-21
1.43056e-21
1.40045e-21
1.37066e-21
1.34088e-21
1.31088e-21
1.2806e-21
1.2499e-21
1.21875e-21
1.18708e-21
1.15518e-21
)
;

boundaryField
{
    wall
    {
        type            zeroGradient;
    }
    fuel
    {
        type            fixedValue;
        value           nonuniform 0();
    }
    outlet
    {
        type            inletOutlet;
        inletValue      nonuniform 0();
        value           nonuniform 0();
    }
    procBoundary2to1
    {
        type            processor;
        value           uniform 1.16085e-20;
    }
    procBoundary2to3
    {
        type            processor;
        value           uniform 1.12184e-21;
    }
}


// ************************************************************************* //
