/*--------------------------------*- C++ -*----------------------------------*\
| =========                 |                                                 |
| \\      /  F ield         | OpenFOAM: The Open Source CFD Toolbox           |
|  \\    /   O peration     | Version:  dev                                   |
|   \\  /    A nd           | Web:      www.OpenFOAM.org                      |
|    \\/     M anipulation  |                                                 |
\*---------------------------------------------------------------------------*/
FoamFile
{
    version     2.0;
    format      ascii;
    class       volScalarField;
    location    "0.17";
    object      dQ;
}
// * * * * * * * * * * * * * * * * * * * * * * * * * * * * * * * * * * * * * //

dimensions      [1 2 -3 0 0 0 0];

internalField   nonuniform List<scalar> 
250
(
0.0288242
34.0929
34.218
34.2673
34.2717
34.2689
34.2651
34.2735
34.2672
0.0365795
7.96547
7.63785
7.63021
7.62515
7.62644
7.62586
7.62593
7.62642
0.0293206
2.26268
1.99606
1.99071
1.98804
1.98895
1.98842
1.9884
1.98906
0.0225678
0.86174
0.654707
0.651356
0.650498
0.650993
0.650194
0.650703
0.651083
0.0189644
0.42345
0.254914
0.252673
0.253177
0.253503
0.25156
0.253386
0.253591
0.0193266
0.252839
0.110201
0.106806
0.105318
0.105334
0.106597
0.105192
0.105342
0.0268728
0.173206
0.0507316
0.0474978
0.046605
0.0465931
0.046896
0.0465201
0.0466038
0.0671312
0.128803
0.0226459
0.0208905
0.020047
0.0199867
0.0200051
0.0199494
0.0199944
0.331084
0.0995542
0.00995895
0.00736425
0.00701049
0.00705504
0.0071274
0.00703828
0.00706726
0.900194
0.0777833
0.00336638
0.000512628
0.000701402
0.000722272
0.00075864
0.000718805
0.00073153
1.36863
0.060731
-0.000205033
-0.00249162
-0.00254027
-0.002557
-0.00254524
-0.0025587
-0.00255217
-0.00256773
1.31045
0.0473062
-0.00204772
-0.0041407
-0.00426189
-0.00428345
-0.00428201
-0.00427795
-0.00427928
-0.00428711
0.945051
0.0368433
-0.00283899
-0.00489588
-0.00504406
-0.00506837
-0.00508971
-0.00505759
-0.00506401
-0.0050677
0.616713
0.0286425
-0.00328508
-0.00517667
-0.00533535
-0.00535997
-0.00533622
-0.00534513
-0.0053555
-0.00535697
0.398372
0.0224855
-0.00348838
-0.00520306
-0.00536291
-0.00538712
-0.00537569
-0.00536844
-0.00538187
-0.00538213
0.264466
0.0174579
-0.00355112
-0.00508904
-0.00524377
-0.00526725
-0.0052617
-0.00524578
-0.00526098
-0.00526051
0.182679
0.0138479
-0.00348238
-0.00489463
-0.00503903
-0.00506158
-0.00505906
-0.00504088
-0.00505427
-0.00505321
0.131064
0.010758
-0.00338333
-0.00465337
-0.00478094
-0.00480214
-0.00480114
-0.00479269
-0.0047938
-0.00479213
0.0968017
0.00829719
-0.00324603
-0.00438959
-0.00448633
-0.00450569
-0.00450493
-0.00447947
-0.00449629
-0.00449398
0.0728322
0.0063644
-0.00307095
-0.00407245
-0.00416498
-0.00418174
-0.00418094
-0.00416518
-0.00417125
-0.00416816
0.0553699
0.00483992
-0.00286379
-0.00374542
-0.00382563
-0.00383797
-0.00383683
-0.00384128
-0.00382629
-0.00382232
0.0423426
0.00363677
-0.00262589
-0.00342233
-0.00348351
-0.003487
-0.00348463
-0.00346099
-0.00347381
-0.00346904
0.0325133
0.00276803
-0.00235536
-0.00303692
-0.00308443
-0.00307033
-0.00306671
-0.00304793
-0.00305486
-0.00304895
0.0250486
0.00209759
-0.00205636
-0.00264164
-0.00266131
-0.00266732
-0.00266266
-0.00264706
-0.00265135
-0.00264507
0.0193486
0.00159882
-0.00174044
-0.00219923
-0.00220558
-0.00220296
-0.00219731
-0.00218127
-0.00218511
-0.0021779
0.0149764
0.00127794
-0.0013502
-0.00172695
-0.00171193
-0.00170334
-0.00169684
-0.00167966
-0.00168379
-0.00167573
)
;

boundaryField
{
    fuel
    {
        type            calculated;
        value           uniform 0;
    }
    wall
    {
        type            calculated;
        value           nonuniform 0();
    }
    outlet
    {
        type            calculated;
        value           uniform 0;
    }
    frontAndBack
    {
        type            empty;
    }
    procBoundary2to0
    {
        type            processor;
        value           uniform 0;
    }
    procBoundary2to3
    {
        type            processor;
        value           uniform 0;
    }
}


// ************************************************************************* //
