/*--------------------------------*- C++ -*----------------------------------*\
| =========                 |                                                 |
| \\      /  F ield         | OpenFOAM: The Open Source CFD Toolbox           |
|  \\    /   O peration     | Version:  dev                                   |
|   \\  /    A nd           | Web:      www.OpenFOAM.org                      |
|    \\/     M anipulation  |                                                 |
\*---------------------------------------------------------------------------*/
FoamFile
{
    version     2.0;
    format      ascii;
    class       volScalarField;
    location    "0.17";
    object      l-C6H6;
}
// * * * * * * * * * * * * * * * * * * * * * * * * * * * * * * * * * * * * * //

dimensions      [0 0 0 0 0 0 0];

internalField   nonuniform List<scalar> 
250
(
9.96332e-09
4.36466e-08
3.46796e-08
3.34654e-08
3.33213e-08
3.3661e-08
3.33077e-08
3.31239e-08
3.3401e-08
2.78852e-08
3.13409e-08
2.82891e-08
2.7773e-08
2.76952e-08
2.77509e-08
2.76873e-08
2.76548e-08
2.77071e-08
4.65537e-08
2.69468e-08
2.45015e-08
2.39712e-08
2.38869e-08
2.38917e-08
2.38753e-08
2.38718e-08
2.38854e-08
6.48429e-08
2.33737e-08
2.08474e-08
2.02099e-08
2.01153e-08
2.01105e-08
2.00947e-08
2.01038e-08
2.01109e-08
8.23337e-08
1.99255e-08
1.72688e-08
1.65392e-08
1.64447e-08
1.64385e-08
1.641e-08
1.64339e-08
1.64404e-08
9.90999e-08
1.68948e-08
1.41075e-08
1.32606e-08
1.3078e-08
1.30635e-08
1.30776e-08
1.30552e-08
1.30635e-08
1.16108e-07
1.44312e-08
1.15292e-08
1.06336e-08
1.04346e-08
1.04169e-08
1.04209e-08
1.04087e-08
1.04168e-08
1.36164e-07
1.25078e-08
9.39604e-09
8.61762e-09
8.38752e-09
8.36429e-09
8.35429e-09
8.35668e-09
8.36382e-09
1.65527e-07
1.1035e-08
7.86385e-09
6.98523e-09
6.80642e-09
6.7986e-09
6.80018e-09
6.79187e-09
6.799e-09
2.13572e-07
9.9194e-09
6.66211e-09
5.72234e-09
5.667e-09
5.65801e-09
5.65449e-09
5.65224e-09
5.65821e-09
2.8138e-07
9.06887e-09
5.69135e-09
4.89939e-09
4.80493e-09
4.78763e-09
4.77621e-09
4.78042e-09
4.78678e-09
4.7811e-09
3.2307e-07
8.36123e-09
4.94657e-09
4.21584e-09
4.10847e-09
4.09047e-09
4.07221e-09
4.08349e-09
4.08916e-09
4.08504e-09
2.98536e-07
7.69569e-09
4.43607e-09
3.69473e-09
3.58268e-09
3.56474e-09
3.53554e-09
3.5574e-09
3.56281e-09
3.55995e-09
2.29496e-07
7.0487e-09
3.99109e-09
3.28975e-09
3.1765e-09
3.15944e-09
3.16921e-09
3.15098e-09
3.15639e-09
3.15454e-09
1.53206e-07
6.45732e-09
3.61649e-09
2.96629e-09
2.85459e-09
2.83834e-09
2.84522e-09
2.82838e-09
2.8344e-09
2.83335e-09
9.17181e-08
5.9033e-09
3.29956e-09
2.70104e-09
2.59285e-09
2.57734e-09
2.58254e-09
2.56537e-09
2.57273e-09
2.57231e-09
5.05712e-08
5.44874e-09
3.05992e-09
2.47821e-09
2.375e-09
2.36014e-09
2.36408e-09
2.34539e-09
2.35508e-09
2.35516e-09
2.63942e-08
5.01081e-09
2.8314e-09
2.28662e-09
2.19e-09
2.17572e-09
2.1786e-09
2.15683e-09
2.17046e-09
2.17089e-09
1.34848e-08
4.6064e-09
2.62305e-09
2.11829e-09
2.03025e-09
2.01656e-09
2.01862e-09
2.01181e-09
2.01136e-09
2.01195e-09
7.06654e-09
4.23352e-09
2.43641e-09
1.98568e-09
1.89048e-09
1.87739e-09
1.87868e-09
1.87061e-09
1.87238e-09
1.87308e-09
4.0538e-09
3.88428e-09
2.26761e-09
1.86035e-09
1.76673e-09
1.75443e-09
1.75506e-09
1.74522e-09
1.74974e-09
1.75046e-09
2.7226e-09
3.55258e-09
2.11413e-09
1.74275e-09
1.65594e-09
1.64472e-09
1.64488e-09
1.64489e-09
1.64042e-09
1.64108e-09
2.18795e-09
3.27072e-09
1.97428e-09
1.64762e-09
1.56645e-09
1.55657e-09
1.55639e-09
1.55612e-09
1.55265e-09
1.55325e-09
2.01328e-09
3.00356e-09
1.84602e-09
1.55907e-09
1.48636e-09
1.47235e-09
1.47182e-09
1.47124e-09
1.46855e-09
1.46899e-09
1.9855e-09
2.74807e-09
1.72731e-09
1.48163e-09
1.41454e-09
1.40143e-09
1.40063e-09
1.39997e-09
1.39788e-09
1.39823e-09
1.99993e-09
2.51708e-09
1.62797e-09
1.41035e-09
1.34956e-09
1.33729e-09
1.33628e-09
1.33553e-09
1.33393e-09
1.33418e-09
)
;

boundaryField
{
    fuel
    {
        type            fixedValue;
        value           uniform 0;
    }
    wall
    {
        type            zeroGradient;
    }
    outlet
    {
        type            zeroGradient;
    }
    frontAndBack
    {
        type            empty;
    }
    procBoundary2to0
    {
        type            processor;
        value           nonuniform List<scalar> 
12
(
1.39404e-09
2.0032e-09
2.293e-09
1.53537e-09
1.34533e-09
1.28981e-09
1.2784e-09
1.27722e-09
1.27635e-09
1.27516e-09
1.33013e-09
1.27528e-09
)
;
    }
    procBoundary2to3
    {
        type            processor;
        value           nonuniform List<scalar> 
25
(
3.33175e-08
2.76883e-08
2.38766e-08
2.01028e-08
1.64314e-08
1.3053e-08
1.04066e-08
8.35442e-09
6.79176e-09
5.65248e-09
5.65248e-09
4.78626e-09
4.08818e-09
3.56135e-09
3.15449e-09
2.83215e-09
2.57019e-09
2.35231e-09
2.16748e-09
2.00812e-09
1.86896e-09
1.74618e-09
1.63676e-09
1.54893e-09
1.46467e-09
)
;
    }
}


// ************************************************************************* //
