/*--------------------------------*- C++ -*----------------------------------*\
| =========                 |                                                 |
| \\      /  F ield         | OpenFOAM: The Open Source CFD Toolbox           |
|  \\    /   O peration     | Version:  dev                                   |
|   \\  /    A nd           | Web:      www.OpenFOAM.org                      |
|    \\/     M anipulation  |                                                 |
\*---------------------------------------------------------------------------*/
FoamFile
{
    version     2.0;
    format      ascii;
    class       volScalarField;
    location    "0.17";
    object      P2;
}
// * * * * * * * * * * * * * * * * * * * * * * * * * * * * * * * * * * * * * //

dimensions      [0 0 0 0 0 0 0];

internalField   nonuniform List<scalar> 
50
(
1.66814e-21
1.54168e-21
1.42665e-21
1.32208e-21
1.22683e-21
1.13963e-21
1.05969e-21
9.8637e-22
9.19074e-22
8.57225e-22
8.00333e-22
7.47848e-22
6.99499e-22
6.54835e-22
6.13541e-22
5.75312e-22
5.39876e-22
5.06964e-22
4.76326e-22
4.47817e-22
4.21231e-22
3.96413e-22
3.73243e-22
3.51584e-22
3.31273e-22
3.12184e-22
2.94205e-22
2.77229e-22
2.61162e-22
2.45915e-22
2.3141e-22
2.17589e-22
2.04393e-22
1.91765e-22
1.79657e-22
1.68016e-22
1.56792e-22
1.46027e-22
1.357e-22
1.25737e-22
1.16178e-22
1.07048e-22
9.83858e-23
9.01502e-23
8.23168e-23
7.49141e-23
6.79317e-23
6.13878e-23
5.5275e-23
4.96278e-23
)
;

boundaryField
{
    wall
    {
        type            zeroGradient;
    }
    fuel
    {
        type            fixedValue;
        value           nonuniform 0();
    }
    outlet
    {
        type            inletOutlet;
        inletValue      nonuniform 0();
        value           nonuniform 0();
    }
    procBoundary2to1
    {
        type            processor;
        value           uniform 1.80499e-21;
    }
    procBoundary2to3
    {
        type            processor;
        value           uniform 4.42486e-23;
    }
}


// ************************************************************************* //
