/*--------------------------------*- C++ -*----------------------------------*\
| =========                 |                                                 |
| \\      /  F ield         | OpenFOAM: The Open Source CFD Toolbox           |
|  \\    /   O peration     | Version:  dev                                   |
|   \\  /    A nd           | Web:      www.OpenFOAM.org                      |
|    \\/     M anipulation  |                                                 |
\*---------------------------------------------------------------------------*/
FoamFile
{
    version     2.0;
    format      ascii;
    class       volScalarField;
    location    "0.17";
    object      T;
}
// * * * * * * * * * * * * * * * * * * * * * * * * * * * * * * * * * * * * * //

dimensions      [0 0 0 1 0 0 0];

internalField   nonuniform List<scalar> 
250
(
437.172
1694.9
1742.54
1746.13
1746.44
1746.43
1746.45
1746.44
1746.44
545.008
1898.57
1959.25
1963.79
1964.18
1964.18
1964.2
1964.19
1964.18
622.677
1935.76
2016.68
2022.72
2023.24
2023.24
2023.27
2023.25
2023.25
678.773
1933.44
2034.96
2042.72
2043.4
2043.4
2043.43
2043.41
2043.42
724.264
1922.6
2040.86
2050.31
2051.14
2051.14
2051.2
2051.15
2051.19
768.501
1912.71
2042.15
2053.16
2054.16
2054.18
2054.18
2054.19
2054.17
818.895
1906.61
2041.62
2053.91
2055.05
2055.06
2055.08
2055.07
2055.08
881.509
1904.28
2040.43
2053.7
2054.97
2054.98
2055.01
2054.99
2055.01
961.309
1905.12
2038.95
2052.96
2054.39
2054.4
2054.43
2054.4
2054.44
1059.22
1908.07
2037.45
2051.9
2053.45
2053.55
2053.59
2053.54
2053.6
1169.77
1913.24
2036.19
2050.79
2052.43
2052.54
2052.58
2052.52
2052.59
2052.57
1280.42
1920.2
2034.96
2049.48
2051.18
2051.29
2051.35
2051.25
2051.35
2051.3
1383.06
1927.35
2033.79
2048.05
2049.81
2049.9
2049.99
2049.83
2049.96
2049.9
1476.59
1935.09
2032.65
2046.49
2048.29
2048.37
2048.48
2048.26
2048.43
2048.35
1560.5
1943.05
2031.47
2044.79
2046.62
2046.66
2046.82
2046.51
2046.73
2046.63
1634.66
1950.88
2030.19
2042.92
2044.75
2044.75
2044.94
2044.54
2044.83
2044.7
1699.22
1958.27
2028.72
2040.84
2042.65
2042.59
2042.82
2042.3
2042.68
2042.51
1754.52
1965.9
2027
2038.48
2040.25
2040.12
2040.39
2039.74
2040.22
2040.01
1801.04
1971.73
2024.94
2035.79
2037.5
2037.29
2037.6
2037.05
2037.4
2037.14
1839.37
1976.5
2022.69
2032.69
2034.33
2034.01
2034.37
2033.68
2034.13
2033.82
1870.22
1980.23
2019.93
2029.1
2030.64
2030.21
2030.62
2029.76
2030.34
2029.96
1894.33
1982.6
2016.44
2024.91
2026.34
2025.77
2026.24
2025.58
2025.93
2025.46
1912.44
1983.65
2012.26
2020.47
2021.75
2021.02
2021.57
2020.75
2021.21
2020.65
1925.29
1983.37
2007.66
2015.19
2016.23
2015.25
2015.9
2014.86
2015.47
2014.78
1933.54
1981.6
2001.85
2009.2
2010.05
2008.86
2009.6
2008.37
2009.12
2008.3
1937.82
1978.5
1995.4
2002.26
2002.89
2001.47
2002.31
2000.87
2001.77
2000.82
)
;

boundaryField
{
    fuel
    {
        type            fixedValue;
        value           uniform 353;
    }
    wall
    {
        type            fixedValue;
        value           nonuniform 0();
    }
    outlet
    {
        type            inletOutlet;
        inletValue      uniform 353;
        value           nonuniform List<scalar> 
26
(
353
353
353
353
353
353
353
353
353
353
353
1283.35
1386.3
1480.02
1564
1638.13
1702.57
1757.67
1803.93
1841.96
1872.48
1896.24
1914.01
1926.53
1934.48
1938.49
)
;
    }
    frontAndBack
    {
        type            empty;
    }
    procBoundary2to0
    {
        type            processor;
        value           nonuniform List<scalar> 
12
(
2008.56
1938.55
1973.56
1987.82
1994.2
1994.6
1992.93
1993.87
1992.2
1993.28
2001.13
1992.17
)
;
    }
    procBoundary2to3
    {
        type            processor;
        value           nonuniform List<scalar> 
25
(
1746.44
1964.19
2023.25
2043.41
2051.16
2054.2
2055.09
2055.01
2054.43
2053.58
2053.58
2052.56
2051.3
2049.91
2048.36
2046.65
2044.72
2042.55
2040.06
2037.21
2033.9
2030.07
2025.6
2020.82
2014.99
)
;
    }
}


// ************************************************************************* //
