/*--------------------------------*- C++ -*----------------------------------*\
| =========                 |                                                 |
| \\      /  F ield         | OpenFOAM: The Open Source CFD Toolbox           |
|  \\    /   O peration     | Version:  dev                                   |
|   \\  /    A nd           | Web:      www.OpenFOAM.org                      |
|    \\/     M anipulation  |                                                 |
\*---------------------------------------------------------------------------*/
FoamFile
{
    version     2.0;
    format      ascii;
    class       volVectorField;
    location    "0.17";
    object      U;
}
// * * * * * * * * * * * * * * * * * * * * * * * * * * * * * * * * * * * * * //

dimensions      [0 1 -1 0 0 0 0];

internalField   nonuniform List<vector> 
250
(
(0 -0.00299901 0.117778)
(0 0.0855304 0.472565)
(0 0.0218164 0.490604)
(0 0.0610605 0.490783)
(0 0.0357706 0.49163)
(0 0.0389675 0.490677)
(0 0.0237265 0.491413)
(0 0.0202578 0.490942)
(0 0.00923327 0.491171)
(0 -0.102599 0.135541)
(0 0.137027 0.672142)
(0 0.0384163 0.689427)
(0 0.110671 0.689821)
(0 0.0656445 0.690332)
(0 0.0705124 0.688664)
(0 0.0440676 0.68999)
(0 0.0362529 0.689115)
(0 0.0174143 0.689497)
(0 -0.201467 0.142514)
(0 0.180539 0.735749)
(0 0.0549702 0.735932)
(0 0.156819 0.737113)
(0 0.0946751 0.736442)
(0 0.0997018 0.733982)
(0 0.0643247 0.735548)
(0 0.0507721 0.733906)
(0 0.0257846 0.734429)
(0 -0.262124 0.155757)
(0 0.223905 0.758755)
(0 0.0713953 0.730982)
(0 0.200431 0.732977)
(0 0.12386 0.729773)
(0 0.127181 0.72686)
(0 0.083242 0.728956)
(0 0.0623028 0.727147)
(0 0.0332387 0.727776)
(0 -0.290648 0.179891)
(0 0.269259 0.787744)
(0 0.0929858 0.727342)
(0 0.241662 0.730955)
(0 0.153574 0.724031)
(0 0.153003 0.720979)
(0 0.104152 0.723239)
(0 0.0743272 0.72129)
(0 0.0419993 0.722082)
(0 -0.295159 0.214059)
(0 0.317194 0.822369)
(0 0.118767 0.727584)
(0 0.280538 0.733653)
(0 0.183987 0.722079)
(0 0.177205 0.719169)
(0 0.125604 0.721366)
(0 0.0854781 0.719413)
(0 0.0510516 0.720263)
(0 -0.280378 0.257324)
(0 0.367622 0.856906)
(0 0.149232 0.727306)
(0 0.317114 0.736803)
(0 0.21517 0.719839)
(0 0.199924 0.717304)
(0 0.147511 0.719189)
(0 0.0959316 0.717249)
(0 0.0603335 0.718075)
(0 -0.24742 0.30942)
(0 0.419749 0.888611)
(0 0.184631 0.725267)
(0 0.351541 0.739074)
(0 0.247123 0.716183)
(0 0.221385 0.714199)
(0 0.169741 0.715672)
(0 0.105887 0.713639)
(0 0.0697643 0.714571)
(0 -0.193883 0.369436)
(0 0.472125 0.915744)
(0 0.224933 0.721728)
(0 0.384072 0.740629)
(0 0.279789 0.711495)
(0 0.241888 0.710166)
(0 0.192134 0.711198)
(0 0.115558 0.708955)
(0 0.079268 0.710128)
(0 -0.115437 0.431536)
(0 0.523597 0.936808)
(0 0.269815 0.716961)
(0 0.415041 0.741595)
(0 0.313081 0.706126)
(0 0.261791 0.70549)
(0 0.214542 0.706093)
(0 0.125142 0.703525)
(0 0.0887811 0.705044)
(0 -0.00701862 0.484323)
(0 0.573558 0.951082)
(0 0.318685 0.711089)
(0 0.44484 0.74187)
(0 0.346898 0.700201)
(0 0.281467 0.700234)
(0 0.236841 0.700461)
(0 0.134821 0.697439)
(0 0.0982571 0.699408)
(0 -0.00351923 0.699735)
(0 0.104497 0.523141)
(0 0.621289 0.959023)
(0 0.370778 0.704224)
(0 0.474009 0.741324)
(0 0.381016 0.693763)
(0 0.301272 0.694384)
(0 0.258925 0.694321)
(0 0.144752 0.690714)
(0 0.107667 0.693231)
(0 -0.00421121 0.693143)
(0 0.208611 0.551444)
(0 0.6669 0.962167)
(0 0.425301 0.696494)
(0 0.503129 0.739847)
(0 0.415189 0.686835)
(0 0.321501 0.687908)
(0 0.280717 0.687665)
(0 0.155061 0.683345)
(0 0.116999 0.686502)
(0 -0.00455346 0.685894)
(0 0.319236 0.574354)
(0 0.711063 0.96185)
(0 0.481516 0.688025)
(0 0.532718 0.737337)
(0 0.449265 0.679419)
(0 0.342314 0.680782)
(0 0.302168 0.680479)
(0 0.165835 0.675333)
(0 0.126252 0.679205)
(0 -0.00449961 0.67799)
(0 0.433317 0.591906)
(0 0.754523 0.958632)
(0 0.538732 0.678925)
(0 0.563193 0.733723)
(0 0.483108 0.671508)
(0 0.363815 0.672993)
(0 0.323253 0.672749)
(0 0.17712 0.666682)
(0 0.135434 0.67133)
(0 -0.00402435 0.669436)
(0 0.548326 0.60396)
(0 0.79799 0.952751)
(0 0.596329 0.669276)
(0 0.594825 0.728957)
(0 0.516606 0.663077)
(0 0.386042 0.66453)
(0 0.343964 0.664455)
(0 0.18892 0.6574)
(0 0.144554 0.662866)
(0 -0.00312333 0.660238)
(0 0.662211 0.610925)
(0 0.842064 0.944445)
(0 0.65379 0.659131)
(0 0.627722 0.723007)
(0 0.549668 0.654091)
(0 0.40897 0.655385)
(0 0.3643 0.655573)
(0 0.2012 0.647492)
(0 0.153619 0.653797)
(0 -0.0018117 0.650401)
(0 0.773342 0.613471)
(0 0.887176 0.93401)
(0 0.71073 0.648532)
(0 0.66181 0.715849)
(0 0.582224 0.644509)
(0 0.432512 0.64555)
(0 0.384264 0.646078)
(0 0.213897 0.636968)
(0 0.162629 0.644107)
(0 -0.000121709 0.639925)
(0 0.880464 0.612313)
(0 0.933549 0.921646)
(0 0.766928 0.637455)
(0 0.696815 0.707498)
(0 0.614219 0.634291)
(0 0.456532 0.635019)
(0 0.403857 0.635948)
(0 0.22692 0.625827)
(0 0.171577 0.633781)
(0 0.00190062 0.628812)
(0 0.982667 0.608144)
(0 0.981198 0.907602)
(0 0.822204 0.625846)
(0 0.732387 0.697953)
(0 0.645598 0.623403)
(0 0.480863 0.623784)
(0 0.42307 0.62516)
(0 0.240164 0.614055)
(0 0.180448 0.622801)
(0 0.00419934 0.617057)
(0 1.07934 0.601602)
(0 1.02994 0.892062)
(0 0.876295 0.613651)
(0 0.768249 0.68718)
(0 0.676313 0.611819)
(0 0.505316 0.611844)
(0 0.44189 0.613693)
(0 0.253515 0.601665)
(0 0.189218 0.611154)
(0 0.00671248 0.60466)
(0 1.17014 0.593258)
(0 1.07945 0.875154)
(0 0.928957 0.600784)
(0 0.804081 0.675218)
(0 0.706314 0.599538)
(0 0.529699 0.599213)
(0 0.460294 0.601549)
(0 0.266857 0.588681)
(0 0.197861 0.598847)
(0 0.00937587 0.591637)
(0 1.25495 0.583598)
(0 1.12933 0.857088)
(0 0.979946 0.587198)
(0 0.839551 0.662107)
(0 0.735551 0.586554)
(0 0.553821 0.585898)
(0 0.47825 0.588723)
(0 0.280077 0.57508)
(0 0.206342 0.585881)
(0 0.0121264 0.577995)
(0 1.33387 0.573018)
(0 1.17912 0.838008)
(0 1.029 0.572796)
(0 0.874355 0.647863)
(0 0.763965 0.572846)
(0 0.577507 0.571888)
(0 0.495724 0.575193)
(0 0.29307 0.560839)
(0 0.214625 0.572236)
(0 0.0149044 0.56372)
(0 1.40712 0.56181)
(0 1.22831 0.817953)
(0 1.07597 0.557568)
(0 0.908228 0.632508)
(0 0.791497 0.558406)
(0 0.600598 0.557188)
(0 0.512678 0.560954)
(0 0.30574 0.545978)
(0 0.222677 0.557909)
(0 0.0176563 0.548815)
(0 1.47502 0.550166)
(0 1.27639 0.796961)
(0 1.12071 0.541485)
(0 0.940947 0.616068)
(0 0.818078 0.54323)
(0 0.622952 0.541795)
(0 0.529068 0.545997)
(0 0.318003 0.530497)
(0 0.230462 0.542892)
(0 0.0203346 0.533278)
)
;

boundaryField
{
    fuel
    {
        type            fixedValue;
        value           uniform (0 0 0.1055);
    }
    wall
    {
        type            slip;
    }
    outlet
    {
        type            pressureInletOutletVelocity;
        value           nonuniform List<vector> 
26
(
(0 -0.00299901 0)
(0 -0.102599 0)
(0 -0.201467 0)
(0 -0.262124 0)
(0 -0.290648 0)
(0 -0.295159 0)
(0 -0.280378 0)
(0 -0.24742 0)
(0 -0.193883 0)
(0 -0.115437 0)
(0 -0.00701862 0)
(0 0.104497 0.523141)
(0 0.208611 0.551444)
(0 0.319236 0.574354)
(0 0.433317 0.591906)
(0 0.548326 0.60396)
(0 0.662211 0.610925)
(0 0.773342 0.613471)
(0 0.880464 0.612313)
(0 0.982667 0.608144)
(0 1.07934 0.601602)
(0 1.17014 0.593258)
(0 1.25495 0.583598)
(0 1.33387 0.573018)
(0 1.40712 0.56181)
(0 1.47502 0.550166)
)
;
    }
    frontAndBack
    {
        type            empty;
    }
    procBoundary2to0
    {
        type            processor;
        value           nonuniform List<vector> 
12
(
(0 -0.0753793 0.55017)
(0 1.538 0.53819)
(0 1.32288 0.775116)
(0 1.16311 0.52451)
(0 0.972334 0.59857)
(0 0.843634 0.527301)
(0 0.644453 0.52569)
(0 0.544849 0.530302)
(0 0.329782 0.514374)
(0 0.23795 0.527165)
(0 -0.0762811 0.534971)
(0 0.0228999 0.517088)
)
;
    }
    procBoundary2to3
    {
        type            processor;
        value           nonuniform List<vector> 
25
(
(0 0.00218772 0.491156)
(0 0.00332108 0.689549)
(0 0.00378732 0.734625)
(0 0.00372491 0.728119)
(0 0.00319421 0.722569)
(0 0.00230674 0.720925)
(0 0.00116999 0.718914)
(0 -9.47629e-05 0.715467)
(0 -0.00136943 0.710951)
(0 -0.00254389 0.705677)
(0 -0.00254389 0.705677)
(0 -0.0447532 0.696344)
(0 -0.0482885 0.68978)
(0 -0.0516889 0.682654)
(0 -0.0549154 0.674956)
(0 -0.0579325 0.666683)
(0 -0.0607116 0.657826)
(0 -0.0632342 0.648376)
(0 -0.0654935 0.638321)
(0 -0.0674946 0.627648)
(0 -0.0692529 0.616343)
(0 -0.0707925 0.604393)
(0 -0.0721431 0.591807)
(0 -0.073337 0.578585)
(0 -0.074406 0.564706)
)
;
    }
}


// ************************************************************************* //
