/*--------------------------------*- C++ -*----------------------------------*\
| =========                 |                                                 |
| \\      /  F ield         | OpenFOAM: The Open Source CFD Toolbox           |
|  \\    /   O peration     | Version:  dev                                   |
|   \\  /    A nd           | Web:      www.OpenFOAM.org                      |
|    \\/     M anipulation  |                                                 |
\*---------------------------------------------------------------------------*/
FoamFile
{
    version     2.0;
    format      ascii;
    class       volScalarField;
    location    "0.09";
    object      A1C2H;
}
// * * * * * * * * * * * * * * * * * * * * * * * * * * * * * * * * * * * * * //

dimensions      [0 0 0 0 0 0 0];

internalField   nonuniform List<scalar> 
25
(
4.40289e-16
5.1749e-16
6.08679e-16
7.16718e-16
8.35796e-16
9.55171e-16
1.07401e-15
1.18345e-15
1.27422e-15
1.33783e-15
1.36802e-15
1.36186e-15
1.3202e-15
1.24748e-15
1.15088e-15
1.03908e-15
9.20856e-16
8.0389e-16
6.93946e-16
5.95028e-16
5.09533e-16
4.3931e-16
3.81836e-16
3.35099e-16
2.9682e-16
)
;

boundaryField
{
    wall
    {
        type            zeroGradient;
    }
    fuel
    {
        type            fixedValue;
        value           nonuniform 0();
    }
    outlet
    {
        type            inletOutlet;
        inletValue      nonuniform 0();
        value           nonuniform 0();
    }
    procBoundary2to1
    {
        type            processor;
        value           uniform 3.7569e-16;
    }
    procBoundary2to3
    {
        type            processor;
        value           uniform 2.63998e-16;
    }
}


// ************************************************************************* //
