/*--------------------------------*- C++ -*----------------------------------*\
| =========                 |                                                 |
| \\      /  F ield         | OpenFOAM: The Open Source CFD Toolbox           |
|  \\    /   O peration     | Version:  dev                                   |
|   \\  /    A nd           | Web:      www.OpenFOAM.org                      |
|    \\/     M anipulation  |                                                 |
\*---------------------------------------------------------------------------*/
FoamFile
{
    version     2.0;
    format      ascii;
    class       volScalarField;
    location    "0.09";
    object      A2;
}
// * * * * * * * * * * * * * * * * * * * * * * * * * * * * * * * * * * * * * //

dimensions      [0 0 0 0 0 0 0];

internalField   nonuniform List<scalar> 
25
(
2.36901e-15
3.25826e-15
4.51035e-15
6.31909e-15
8.81691e-15
1.20378e-14
1.62868e-14
2.17394e-14
2.85547e-14
3.6854e-14
4.67036e-14
5.81045e-14
7.099e-14
8.52303e-14
1.00643e-13
1.1701e-13
1.34107e-13
1.51747e-13
1.69832e-13
1.88238e-13
2.06631e-13
2.24481e-13
2.41966e-13
2.59045e-13
2.75709e-13
)
;

boundaryField
{
    wall
    {
        type            zeroGradient;
    }
    fuel
    {
        type            fixedValue;
        value           nonuniform 0();
    }
    outlet
    {
        type            inletOutlet;
        inletValue      nonuniform 0();
        value           nonuniform 0();
    }
    procBoundary2to1
    {
        type            processor;
        value           uniform 1.73877e-15;
    }
    procBoundary2to3
    {
        type            processor;
        value           uniform 2.91924e-13;
    }
}


// ************************************************************************* //
