/*--------------------------------*- C++ -*----------------------------------*\
| =========                 |                                                 |
| \\      /  F ield         | OpenFOAM: The Open Source CFD Toolbox           |
|  \\    /   O peration     | Version:  dev                                   |
|   \\  /    A nd           | Web:      www.OpenFOAM.org                      |
|    \\/     M anipulation  |                                                 |
\*---------------------------------------------------------------------------*/
FoamFile
{
    version     2.0;
    format      ascii;
    class       volScalarField;
    location    "0.09";
    object      A3-1;
}
// * * * * * * * * * * * * * * * * * * * * * * * * * * * * * * * * * * * * * //

dimensions      [0 0 0 0 0 0 0];

internalField   nonuniform List<scalar> 
25
(
6.75392e-16
6.06312e-16
5.41984e-16
4.818e-16
4.25831e-16
3.74353e-16
3.28094e-16
2.85811e-16
2.46955e-16
2.12693e-16
1.81994e-16
1.54648e-16
1.30442e-16
1.09167e-16
9.05964e-17
7.45123e-17
6.06364e-17
4.89537e-17
3.91532e-17
3.08926e-17
2.42156e-17
1.8793e-17
1.44429e-17
1.0995e-17
8.29354e-18
)
;

boundaryField
{
    wall
    {
        type            zeroGradient;
    }
    fuel
    {
        type            fixedValue;
        value           nonuniform 0();
    }
    outlet
    {
        type            inletOutlet;
        inletValue      nonuniform 0();
        value           nonuniform 0();
    }
    procBoundary2to1
    {
        type            processor;
        value           uniform 7.49279e-16;
    }
    procBoundary2to3
    {
        type            processor;
        value           uniform 6.20051e-18;
    }
}


// ************************************************************************* //
