/*--------------------------------*- C++ -*----------------------------------*\
| =========                 |                                                 |
| \\      /  F ield         | OpenFOAM: The Open Source CFD Toolbox           |
|  \\    /   O peration     | Version:  dev                                   |
|   \\  /    A nd           | Web:      www.OpenFOAM.org                      |
|    \\/     M anipulation  |                                                 |
\*---------------------------------------------------------------------------*/
FoamFile
{
    version     2.0;
    format      ascii;
    class       volScalarField;
    location    "0.09";
    object      A3-4;
}
// * * * * * * * * * * * * * * * * * * * * * * * * * * * * * * * * * * * * * //

dimensions      [0 0 0 0 0 0 0];

internalField   nonuniform List<scalar> 
25
(
8.50562e-16
7.68393e-16
6.91318e-16
6.18672e-16
5.506e-16
4.87505e-16
4.30363e-16
3.77714e-16
3.28934e-16
2.85565e-16
2.46375e-16
2.11163e-16
1.79717e-16
1.51825e-16
1.27253e-16
1.0578e-16
8.70468e-17
7.11019e-17
5.75764e-17
4.60427e-17
3.66076e-17
2.88482e-17
2.25413e-17
1.74735e-17
1.34461e-17
)
;

boundaryField
{
    wall
    {
        type            zeroGradient;
    }
    fuel
    {
        type            fixedValue;
        value           nonuniform 0();
    }
    outlet
    {
        type            inletOutlet;
        inletValue      nonuniform 0();
        value           nonuniform 0();
    }
    procBoundary2to1
    {
        type            processor;
        value           uniform 9.3782e-16;
    }
    procBoundary2to3
    {
        type            processor;
        value           uniform 1.0279e-17;
    }
}


// ************************************************************************* //
