/*--------------------------------*- C++ -*----------------------------------*\
| =========                 |                                                 |
| \\      /  F ield         | OpenFOAM: The Open Source CFD Toolbox           |
|  \\    /   O peration     | Version:  dev                                   |
|   \\  /    A nd           | Web:      www.OpenFOAM.org                      |
|    \\/     M anipulation  |                                                 |
\*---------------------------------------------------------------------------*/
FoamFile
{
    version     2.0;
    format      ascii;
    class       volScalarField;
    location    "0.09";
    object      C3H3;
}
// * * * * * * * * * * * * * * * * * * * * * * * * * * * * * * * * * * * * * //

dimensions      [0 0 0 0 0 0 0];

internalField   nonuniform List<scalar> 
25
(
2.50277e-14
2.49494e-14
2.52385e-14
2.58845e-14
2.68536e-14
2.8065e-14
2.95483e-14
3.12849e-14
3.32579e-14
3.54488e-14
3.78358e-14
4.03924e-14
4.30862e-14
4.5878e-14
4.87209e-14
5.156e-14
5.43347e-14
5.69829e-14
5.94472e-14
6.16617e-14
6.35268e-14
6.49374e-14
6.58657e-14
6.62645e-14
6.60956e-14
)
;

boundaryField
{
    wall
    {
        type            zeroGradient;
    }
    fuel
    {
        type            fixedValue;
        value           nonuniform 0();
    }
    outlet
    {
        type            inletOutlet;
        inletValue      nonuniform 0();
        value           nonuniform 0();
    }
    procBoundary2to1
    {
        type            processor;
        value           uniform 2.54871e-14;
    }
    procBoundary2to3
    {
        type            processor;
        value           uniform 6.52539e-14;
    }
}


// ************************************************************************* //
