/*--------------------------------*- C++ -*----------------------------------*\
| =========                 |                                                 |
| \\      /  F ield         | OpenFOAM: The Open Source CFD Toolbox           |
|  \\    /   O peration     | Version:  dev                                   |
|   \\  /    A nd           | Web:      www.OpenFOAM.org                      |
|    \\/     M anipulation  |                                                 |
\*---------------------------------------------------------------------------*/
FoamFile
{
    version     2.0;
    format      ascii;
    class       volScalarField;
    location    "0.09";
    object      C5H4OH;
}
// * * * * * * * * * * * * * * * * * * * * * * * * * * * * * * * * * * * * * //

dimensions      [0 0 0 0 0 0 0];

internalField   nonuniform List<scalar> 
25
(
5.24129e-17
6.7268e-17
8.57253e-17
1.09329e-16
1.3852e-16
1.7296e-16
2.15469e-16
2.67944e-16
3.33024e-16
4.1434e-16
5.16904e-16
6.47644e-16
8.16079e-16
1.035e-15
1.32079e-15
1.69253e-15
2.16867e-15
2.76041e-15
3.46146e-15
4.23373e-15
5.00356e-15
5.66185e-15
6.12922e-15
6.34114e-15
6.27139e-15
)
;

boundaryField
{
    wall
    {
        type            zeroGradient;
    }
    fuel
    {
        type            fixedValue;
        value           nonuniform 0();
    }
    outlet
    {
        type            inletOutlet;
        inletValue      nonuniform 0();
        value           nonuniform 0();
    }
    procBoundary2to1
    {
        type            processor;
        value           uniform 4.04984e-17;
    }
    procBoundary2to3
    {
        type            processor;
        value           uniform 5.93202e-15;
    }
}


// ************************************************************************* //
