/*--------------------------------*- C++ -*----------------------------------*\
| =========                 |                                                 |
| \\      /  F ield         | OpenFOAM: The Open Source CFD Toolbox           |
|  \\    /   O peration     | Version:  dev                                   |
|   \\  /    A nd           | Web:      www.OpenFOAM.org                      |
|    \\/     M anipulation  |                                                 |
\*---------------------------------------------------------------------------*/
FoamFile
{
    version     2.0;
    format      ascii;
    class       volScalarField;
    location    "0.09";
    object      C6H5O;
}
// * * * * * * * * * * * * * * * * * * * * * * * * * * * * * * * * * * * * * //

dimensions      [0 0 0 0 0 0 0];

internalField   nonuniform List<scalar> 
25
(
7.92333e-16
1.07766e-15
1.43589e-15
1.8896e-15
2.43259e-15
3.03745e-15
3.72683e-15
4.49042e-15
5.3131e-15
6.17414e-15
7.04723e-15
7.90135e-15
8.70261e-15
9.41638e-15
1.001e-14
1.04553e-14
1.0731e-14
1.08244e-14
1.0732e-14
1.04596e-14
1.00156e-14
9.43239e-15
8.7321e-15
7.94421e-15
7.10079e-15
)
;

boundaryField
{
    wall
    {
        type            zeroGradient;
    }
    fuel
    {
        type            fixedValue;
        value           nonuniform 0();
    }
    outlet
    {
        type            inletOutlet;
        inletValue      nonuniform 0();
        value           nonuniform 0();
    }
    procBoundary2to1
    {
        type            processor;
        value           uniform 5.70042e-16;
    }
    procBoundary2to3
    {
        type            processor;
        value           uniform 6.21683e-15;
    }
}


// ************************************************************************* //
