/*--------------------------------*- C++ -*----------------------------------*\
| =========                 |                                                 |
| \\      /  F ield         | OpenFOAM: The Open Source CFD Toolbox           |
|  \\    /   O peration     | Version:  dev                                   |
|   \\  /    A nd           | Web:      www.OpenFOAM.org                      |
|    \\/     M anipulation  |                                                 |
\*---------------------------------------------------------------------------*/
FoamFile
{
    version     2.0;
    format      ascii;
    class       volScalarField;
    location    "0.09";
    object      CH2O;
}
// * * * * * * * * * * * * * * * * * * * * * * * * * * * * * * * * * * * * * //

dimensions      [0 0 0 0 0 0 0];

internalField   nonuniform List<scalar> 
25
(
8.80547e-09
8.67621e-09
8.54818e-09
8.4163e-09
8.28469e-09
8.15888e-09
8.0322e-09
7.90465e-09
7.77596e-09
7.64582e-09
7.51397e-09
7.38014e-09
7.24415e-09
7.10585e-09
6.96509e-09
6.82185e-09
6.67608e-09
6.52738e-09
6.37476e-09
6.21774e-09
6.0582e-09
5.89987e-09
5.74062e-09
5.58048e-09
5.41988e-09
)
;

boundaryField
{
    wall
    {
        type            zeroGradient;
    }
    fuel
    {
        type            fixedValue;
        value           nonuniform 0();
    }
    outlet
    {
        type            inletOutlet;
        inletValue      nonuniform 0();
        value           nonuniform 0();
    }
    procBoundary2to1
    {
        type            processor;
        value           uniform 8.93569e-09;
    }
    procBoundary2to3
    {
        type            processor;
        value           uniform 5.25853e-09;
    }
}


// ************************************************************************* //
