/*--------------------------------*- C++ -*----------------------------------*\
| =========                 |                                                 |
| \\      /  F ield         | OpenFOAM: The Open Source CFD Toolbox           |
|  \\    /   O peration     | Version:  dev                                   |
|   \\  /    A nd           | Web:      www.OpenFOAM.org                      |
|    \\/     M anipulation  |                                                 |
\*---------------------------------------------------------------------------*/
FoamFile
{
    version     2.0;
    format      ascii;
    class       volScalarField;
    location    "0.09";
    object      CH3O;
}
// * * * * * * * * * * * * * * * * * * * * * * * * * * * * * * * * * * * * * //

dimensions      [0 0 0 0 0 0 0];

internalField   nonuniform List<scalar> 
25
(
1.04838e-13
1.02037e-13
1.00323e-13
9.94845e-14
9.94307e-14
9.99971e-14
1.0106e-13
1.0251e-13
1.04242e-13
1.06161e-13
1.08179e-13
1.10218e-13
1.12204e-13
1.14066e-13
1.15741e-13
1.17166e-13
1.18289e-13
1.19058e-13
1.19414e-13
1.19277e-13
1.18607e-13
1.17392e-13
1.15582e-13
1.13129e-13
1.09992e-13
)
;

boundaryField
{
    wall
    {
        type            zeroGradient;
    }
    fuel
    {
        type            fixedValue;
        value           nonuniform 0();
    }
    outlet
    {
        type            inletOutlet;
        inletValue      nonuniform 0();
        value           nonuniform 0();
    }
    procBoundary2to1
    {
        type            processor;
        value           uniform 1.089e-13;
    }
    procBoundary2to3
    {
        type            processor;
        value           uniform 1.06084e-13;
    }
}


// ************************************************************************* //
