/*--------------------------------*- C++ -*----------------------------------*\
| =========                 |                                                 |
| \\      /  F ield         | OpenFOAM: The Open Source CFD Toolbox           |
|  \\    /   O peration     | Version:  dev                                   |
|   \\  /    A nd           | Web:      www.OpenFOAM.org                      |
|    \\/     M anipulation  |                                                 |
\*---------------------------------------------------------------------------*/
FoamFile
{
    version     2.0;
    format      ascii;
    class       volScalarField;
    location    "0.16";
    object      A1C2H3*;
}
// * * * * * * * * * * * * * * * * * * * * * * * * * * * * * * * * * * * * * //

dimensions      [0 0 0 0 0 0 0];

internalField   nonuniform List<scalar> 
50
(
8.58194e-22
7.79593e-22
7.0899e-22
6.45578e-22
5.88605e-22
5.37879e-22
4.91955e-22
4.50512e-22
4.13199e-22
3.796e-22
3.49514e-22
3.2205e-22
2.97424e-22
2.75118e-22
2.54785e-22
2.36424e-22
2.1974e-22
2.04562e-22
1.90638e-22
1.7804e-22
1.66498e-22
1.55904e-22
1.46317e-22
1.37551e-22
1.29532e-22
1.22191e-22
1.15466e-22
1.09304e-22
1.03653e-22
9.84266e-23
9.36149e-23
8.92281e-23
8.51714e-23
8.14237e-23
7.79386e-23
7.46645e-23
7.15924e-23
6.8645e-23
6.58408e-23
6.3121e-23
6.04449e-23
5.77826e-23
5.51255e-23
5.2455e-23
4.97587e-23
4.70573e-23
4.43142e-23
4.15545e-23
3.87775e-23
3.59779e-23
)
;

boundaryField
{
    wall
    {
        type            zeroGradient;
    }
    fuel
    {
        type            fixedValue;
        value           nonuniform 0();
    }
    outlet
    {
        type            inletOutlet;
        inletValue      nonuniform 0();
        value           nonuniform 0();
    }
    procBoundary2to1
    {
        type            processor;
        value           uniform 9.46833e-22;
    }
    procBoundary2to3
    {
        type            processor;
        value           uniform 3.32193e-23;
    }
}


// ************************************************************************* //
