/*--------------------------------*- C++ -*----------------------------------*\
| =========                 |                                                 |
| \\      /  F ield         | OpenFOAM: The Open Source CFD Toolbox           |
|  \\    /   O peration     | Version:  dev                                   |
|   \\  /    A nd           | Web:      www.OpenFOAM.org                      |
|    \\/     M anipulation  |                                                 |
\*---------------------------------------------------------------------------*/
FoamFile
{
    version     2.0;
    format      ascii;
    class       volScalarField;
    location    "0.16";
    object      A2C2HA;
}
// * * * * * * * * * * * * * * * * * * * * * * * * * * * * * * * * * * * * * //

dimensions      [0 0 0 0 0 0 0];

internalField   nonuniform List<scalar> 
250
(
2.74763e-09
4.28967e-08
4.08964e-08
3.96328e-08
3.95748e-08
3.9491e-08
3.95119e-08
3.94975e-08
3.95052e-08
1.05248e-08
3.24245e-08
2.92314e-08
2.73984e-08
2.72909e-08
2.71829e-08
2.72101e-08
2.71909e-08
2.71999e-08
3.25179e-09
1.99277e-08
1.73674e-08
1.55698e-08
1.5509e-08
1.53825e-08
1.54189e-08
1.53939e-08
1.54067e-08
1.25629e-09
1.36078e-08
1.13617e-08
9.66434e-09
9.6437e-09
9.50843e-09
9.54665e-09
9.52166e-09
9.53659e-09
7.55343e-10
1.03433e-08
8.1502e-09
6.54027e-09
6.5504e-09
6.41328e-09
6.44503e-09
6.42732e-09
6.4431e-09
6.30775e-10
8.49633e-09
6.10986e-09
4.69409e-09
4.7307e-09
4.59784e-09
4.61071e-09
4.61205e-09
4.62776e-09
6.58554e-10
7.25231e-09
4.82011e-09
3.49526e-09
3.51494e-09
3.37924e-09
3.43389e-09
3.39192e-09
3.40694e-09
8.33562e-10
6.43088e-09
3.9321e-09
2.71136e-09
2.74393e-09
2.61632e-09
2.64513e-09
2.62829e-09
2.64249e-09
1.22311e-09
5.87411e-09
3.14712e-09
2.13443e-09
2.16302e-09
2.04513e-09
2.10772e-09
2.05519e-09
2.06764e-09
1.95786e-09
5.49085e-09
2.66417e-09
1.71946e-09
1.74011e-09
1.64072e-09
1.68304e-09
1.64851e-09
1.6586e-09
3.23905e-09
5.19225e-09
2.24106e-09
1.42272e-09
1.43527e-09
1.35214e-09
1.38086e-09
1.35802e-09
1.36628e-09
1.36045e-09
5.37537e-09
4.92769e-09
1.92216e-09
1.20602e-09
1.21078e-09
1.14108e-09
1.16076e-09
1.14537e-09
1.15225e-09
1.14738e-09
8.7915e-09
4.69752e-09
1.68124e-09
1.04387e-09
1.04177e-09
9.82776e-10
9.95704e-10
9.85718e-10
9.91614e-10
9.87575e-10
1.38722e-08
4.49766e-09
1.49487e-09
9.19127e-10
9.11458e-10
8.60873e-10
8.67252e-10
8.62624e-10
8.67881e-10
8.64533e-10
2.06232e-08
4.30001e-09
1.34567e-09
8.203e-10
8.0839e-10
7.64525e-10
7.77811e-10
7.65103e-10
7.70004e-10
7.67224e-10
2.84043e-08
4.09066e-09
1.22165e-09
7.39737e-10
7.24793e-10
6.86275e-10
7.00125e-10
6.85676e-10
6.90569e-10
6.88248e-10
3.60249e-08
3.86182e-09
1.11509e-09
6.72365e-10
6.55397e-10
6.21199e-10
6.32127e-10
6.1931e-10
6.24603e-10
6.22643e-10
4.21858e-08
3.60697e-09
1.02076e-09
6.14811e-10
5.96627e-10
5.66043e-10
5.74872e-10
5.62566e-10
5.68764e-10
5.67081e-10
4.59622e-08
3.33317e-09
9.33914e-10
5.64813e-10
5.4604e-10
5.18606e-10
5.25894e-10
5.19119e-10
5.20798e-10
5.19315e-10
4.70487e-08
3.04794e-09
8.72269e-10
5.20875e-10
5.01932e-10
4.77384e-10
4.83406e-10
4.77034e-10
4.79117e-10
4.77811e-10
4.57035e-08
2.76339e-09
8.10508e-10
4.85348e-10
4.6306e-10
4.41342e-10
4.46231e-10
4.39984e-10
4.42639e-10
4.41505e-10
4.25216e-08
2.48275e-09
7.49107e-10
4.53048e-10
4.28391e-10
4.09768e-10
4.13529e-10
4.10962e-10
4.10586e-10
4.09642e-10
3.82548e-08
2.22018e-09
6.93116e-10
4.25937e-10
4.02154e-10
3.85114e-10
3.88439e-10
3.86074e-10
3.8584e-10
3.8497e-10
3.37707e-08
1.98194e-09
6.41704e-10
4.01346e-10
3.7794e-10
3.62608e-10
3.65273e-10
3.63239e-10
3.63028e-10
3.62289e-10
2.82529e-08
1.76865e-09
5.93713e-10
3.81873e-10
3.58844e-10
3.45264e-10
3.47389e-10
3.45691e-10
3.45488e-10
3.44887e-10
2.43186e-08
1.58251e-09
5.58609e-10
3.664e-10
3.43286e-10
3.31726e-10
3.3328e-10
3.31974e-10
3.31729e-10
3.31289e-10
)
;

boundaryField
{
    fuel
    {
        type            fixedValue;
        value           uniform 0;
    }
    wall
    {
        type            zeroGradient;
    }
    outlet
    {
        type            zeroGradient;
    }
    frontAndBack
    {
        type            empty;
    }
    procBoundary2to0
    {
        type            processor;
        value           nonuniform List<scalar> 
12
(
3.45556e-10
2.05013e-08
1.419e-09
5.28448e-10
3.55189e-10
3.319e-10
3.22266e-10
3.2321e-10
3.2236e-10
3.22025e-10
3.31872e-10
3.21773e-10
)
;
    }
    procBoundary2to3
    {
        type            processor;
        value           nonuniform List<scalar> 
25
(
3.95023e-08
2.71967e-08
1.54011e-08
9.52939e-09
6.43502e-09
4.61934e-09
3.39814e-09
2.63384e-09
2.05947e-09
1.65168e-09
1.65168e-09
1.3629e-09
1.14957e-09
9.89491e-10
8.66183e-10
7.68631e-10
6.89444e-10
6.23666e-10
5.67957e-10
5.20055e-10
4.78396e-10
4.41888e-10
4.09788e-10
3.85115e-10
3.62829e-10
)
;
    }
}


// ************************************************************************* //
