/*--------------------------------*- C++ -*----------------------------------*\
| =========                 |                                                 |
| \\      /  F ield         | OpenFOAM: The Open Source CFD Toolbox           |
|  \\    /   O peration     | Version:  dev                                   |
|   \\  /    A nd           | Web:      www.OpenFOAM.org                      |
|    \\/     M anipulation  |                                                 |
\*---------------------------------------------------------------------------*/
FoamFile
{
    version     2.0;
    format      ascii;
    class       volScalarField;
    location    "0.16";
    object      A2C2HB*;
}
// * * * * * * * * * * * * * * * * * * * * * * * * * * * * * * * * * * * * * //

dimensions      [0 0 0 0 0 0 0];

internalField   nonuniform List<scalar> 
250
(
1.34787e-11
1.2968e-09
1.19882e-09
1.17683e-09
1.17334e-09
1.17298e-09
1.17275e-09
1.1726e-09
1.17278e-09
1.14272e-11
1.81937e-09
1.29016e-09
1.22046e-09
1.21101e-09
1.21012e-09
1.20972e-09
1.20968e-09
1.20989e-09
3.95696e-12
1.15421e-09
6.76366e-10
6.20745e-10
6.13251e-10
6.12565e-10
6.12274e-10
6.1225e-10
6.12427e-10
1.20336e-12
6.92077e-10
3.42624e-10
3.04615e-10
2.99522e-10
2.99024e-10
2.98861e-10
2.98852e-10
2.98986e-10
4.50916e-13
4.49413e-10
1.9122e-10
1.64085e-10
1.60566e-10
1.60104e-10
1.6011e-10
1.60129e-10
1.6023e-10
2.27241e-13
3.18881e-10
1.19297e-10
9.82619e-11
9.58732e-11
9.51866e-11
9.5582e-11
9.56279e-11
9.57014e-11
1.51948e-13
2.42205e-10
8.20181e-11
6.42828e-11
6.16069e-11
6.17217e-11
6.10586e-11
6.11593e-11
6.12283e-11
1.36015e-13
1.92784e-10
5.88013e-11
4.49156e-11
4.2867e-11
4.27919e-11
4.24639e-11
4.25378e-11
4.25888e-11
1.78939e-13
1.5831e-10
4.57772e-11
3.27881e-11
3.14533e-11
3.13516e-11
3.1207e-11
3.12204e-11
3.12572e-11
3.3375e-13
1.32701e-10
3.62848e-11
2.48711e-11
2.3458e-11
2.33295e-11
2.32854e-11
2.32333e-11
2.32503e-11
7.03085e-13
1.12797e-10
2.94099e-11
1.92574e-11
1.80099e-11
1.78937e-11
1.7861e-11
1.78226e-11
1.78308e-11
1.78017e-11
1.49941e-12
9.68545e-11
2.49247e-11
1.53516e-11
1.42171e-11
1.41113e-11
1.40044e-11
1.40551e-11
1.40607e-11
1.40421e-11
2.67035e-12
8.3815e-11
2.12274e-11
1.25354e-11
1.14991e-11
1.14031e-11
1.15023e-11
1.13551e-11
1.13624e-11
1.13549e-11
3.91809e-12
7.20399e-11
1.81008e-11
1.04424e-11
9.49771e-12
9.40842e-12
9.57403e-12
9.36528e-12
9.37898e-12
9.38071e-12
5.0994e-12
6.27668e-11
1.58243e-11
8.84506e-12
7.98598e-12
7.90096e-12
7.98703e-12
7.85955e-12
7.88315e-12
7.89e-12
6.19222e-12
5.36225e-11
1.37049e-11
7.59259e-12
6.81652e-12
6.73527e-12
6.77693e-12
6.69113e-12
6.72664e-12
6.73464e-12
7.15672e-12
4.53172e-11
1.18426e-11
6.58468e-12
5.89099e-12
5.81386e-12
5.83053e-12
5.76146e-12
5.81082e-12
5.81734e-12
7.92738e-12
3.90015e-11
1.02429e-11
5.75164e-12
5.14231e-12
5.0699e-12
5.07286e-12
5.00211e-12
5.06908e-12
5.07285e-12
8.45275e-12
3.32301e-11
8.86016e-12
5.04337e-12
4.52395e-12
4.45683e-12
4.45304e-12
4.44347e-12
4.45585e-12
4.4564e-12
8.73667e-12
2.82348e-11
7.66402e-12
4.50611e-12
4.00319e-12
3.94168e-12
3.93438e-12
3.91816e-12
3.93886e-12
3.9366e-12
8.81983e-12
2.37853e-11
6.62684e-12
4.02588e-12
3.55599e-12
3.50074e-12
3.49187e-12
3.46569e-12
3.49544e-12
3.49089e-12
8.75318e-12
1.98507e-11
5.72715e-12
3.57456e-12
3.16436e-12
3.11641e-12
3.1074e-12
3.11347e-12
3.1088e-12
3.1024e-12
8.57383e-12
1.64097e-11
4.94975e-12
3.22015e-12
2.85404e-12
2.81441e-12
2.80551e-12
2.8071e-12
2.80499e-12
2.7974e-12
8.29768e-12
1.34665e-11
4.28082e-12
2.89433e-12
2.57912e-12
2.52563e-12
2.51683e-12
2.51426e-12
2.51452e-12
2.50556e-12
7.92548e-12
1.10055e-11
3.70503e-12
2.61441e-12
2.33518e-12
2.28788e-12
2.27948e-12
2.27451e-12
2.27592e-12
2.26661e-12
7.45073e-12
8.98617e-12
3.25638e-12
2.36505e-12
2.11849e-12
2.07681e-12
2.06892e-12
2.06236e-12
2.0645e-12
2.05519e-12
)
;

boundaryField
{
    fuel
    {
        type            fixedValue;
        value           uniform 0;
    }
    wall
    {
        type            zeroGradient;
    }
    outlet
    {
        type            zeroGradient;
    }
    frontAndBack
    {
        type            empty;
    }
    procBoundary2to0
    {
        type            processor;
        value           nonuniform List<scalar> 
12
(
2.26084e-12
6.87609e-12
7.35541e-12
2.86789e-12
2.14333e-12
1.92651e-12
1.89e-12
1.88269e-12
1.87525e-12
1.87777e-12
2.05084e-12
1.8688e-12
)
;
    }
    procBoundary2to3
    {
        type            processor;
        value           nonuniform List<scalar> 
25
(
1.17262e-09
1.20975e-09
6.123e-10
2.98887e-10
1.60158e-10
9.5649e-11
6.1156e-11
4.25294e-11
3.12128e-11
2.32117e-11
2.32117e-11
1.78414e-11
1.40657e-11
1.13598e-11
9.3682e-12
7.86515e-12
6.70348e-12
5.78497e-12
5.04267e-12
4.43022e-12
3.91505e-12
3.47386e-12
3.0894e-12
2.78732e-12
2.49793e-12
)
;
    }
}


// ************************************************************************* //
