/*--------------------------------*- C++ -*----------------------------------*\
| =========                 |                                                 |
| \\      /  F ield         | OpenFOAM: The Open Source CFD Toolbox           |
|  \\    /   O peration     | Version:  dev                                   |
|   \\  /    A nd           | Web:      www.OpenFOAM.org                      |
|    \\/     M anipulation  |                                                 |
\*---------------------------------------------------------------------------*/
FoamFile
{
    version     2.0;
    format      ascii;
    class       volScalarField;
    location    "0.16";
    object      C2O;
}
// * * * * * * * * * * * * * * * * * * * * * * * * * * * * * * * * * * * * * //

dimensions      [0 0 0 0 0 0 0];

internalField   nonuniform List<scalar> 
50
(
2.28943e-13
2.17599e-13
2.07135e-13
1.97468e-13
1.88528e-13
1.80332e-13
1.72699e-13
1.6562e-13
1.59082e-13
1.53057e-13
1.47553e-13
1.42447e-13
1.37817e-13
1.33597e-13
1.29751e-13
1.26307e-13
1.23229e-13
1.20505e-13
1.18105e-13
1.16051e-13
1.14307e-13
1.12861e-13
1.1172e-13
1.10857e-13
1.10261e-13
1.09916e-13
1.0981e-13
1.09926e-13
1.10248e-13
1.10766e-13
1.11457e-13
1.12295e-13
1.1327e-13
1.14361e-13
1.15549e-13
1.1682e-13
1.18139e-13
1.19505e-13
1.20866e-13
1.22212e-13
1.23528e-13
1.24788e-13
1.25962e-13
1.27025e-13
1.27958e-13
1.28734e-13
1.29351e-13
1.29789e-13
1.30034e-13
1.30064e-13
)
;

boundaryField
{
    wall
    {
        type            zeroGradient;
    }
    fuel
    {
        type            fixedValue;
        value           nonuniform 0();
    }
    outlet
    {
        type            inletOutlet;
        inletValue      nonuniform 0();
        value           nonuniform 0();
    }
    procBoundary2to1
    {
        type            processor;
        value           uniform 2.41418e-13;
    }
    procBoundary2to3
    {
        type            processor;
        value           uniform 1.29898e-13;
    }
}


// ************************************************************************* //
