/*--------------------------------*- C++ -*----------------------------------*\
| =========                 |                                                 |
| \\      /  F ield         | OpenFOAM: The Open Source CFD Toolbox           |
|  \\    /   O peration     | Version:  dev                                   |
|   \\  /    A nd           | Web:      www.OpenFOAM.org                      |
|    \\/     M anipulation  |                                                 |
\*---------------------------------------------------------------------------*/
FoamFile
{
    version     2.0;
    format      ascii;
    class       volScalarField;
    location    "0.16";
    object      C6H5OH;
}
// * * * * * * * * * * * * * * * * * * * * * * * * * * * * * * * * * * * * * //

dimensions      [0 0 0 0 0 0 0];

internalField   nonuniform List<scalar> 
50
(
1.03603e-19
9.74733e-20
9.18939e-20
8.68159e-20
8.21965e-20
7.80376e-20
7.42353e-20
7.0777e-20
6.76467e-20
6.48216e-20
6.22944e-20
5.99981e-20
5.79596e-20
5.61416e-20
5.45212e-20
5.31034e-20
5.18687e-20
5.08072e-20
4.99037e-20
4.91651e-20
4.85759e-20
4.81317e-20
4.78347e-20
4.76765e-20
4.76534e-20
4.77618e-20
4.79983e-20
4.83594e-20
4.88413e-20
4.94446e-20
5.01628e-20
5.09821e-20
5.19056e-20
5.29224e-20
5.40271e-20
5.52164e-20
5.64705e-20
5.77967e-20
5.9159e-20
6.0557e-20
6.1983e-20
6.34242e-20
6.48568e-20
6.6264e-20
6.76279e-20
6.89162e-20
7.01273e-20
7.12315e-20
7.2212e-20
7.30528e-20
)
;

boundaryField
{
    wall
    {
        type            zeroGradient;
    }
    fuel
    {
        type            fixedValue;
        value           nonuniform 0();
    }
    outlet
    {
        type            inletOutlet;
        inletValue      nonuniform 0();
        value           nonuniform 0();
    }
    procBoundary2to1
    {
        type            processor;
        value           uniform 1.10394e-19;
    }
    procBoundary2to3
    {
        type            processor;
        value           uniform 7.37253e-20;
    }
}


// ************************************************************************* //
