/*--------------------------------*- C++ -*----------------------------------*\
| =========                 |                                                 |
| \\      /  F ield         | OpenFOAM: The Open Source CFD Toolbox           |
|  \\    /   O peration     | Version:  dev                                   |
|   \\  /    A nd           | Web:      www.OpenFOAM.org                      |
|    \\/     M anipulation  |                                                 |
\*---------------------------------------------------------------------------*/
FoamFile
{
    version     2.0;
    format      ascii;
    class       volScalarField;
    location    "0.16";
    object      H;
}
// * * * * * * * * * * * * * * * * * * * * * * * * * * * * * * * * * * * * * //

dimensions      [0 0 0 0 0 0 0];

internalField   nonuniform List<scalar> 
50
(
0.000142385
0.000139601
0.000136854
0.000134142
0.000131468
0.000128855
0.000126264
0.000123703
0.000121182
0.000118702
0.000116281
0.000113872
0.000111523
0.000109211
0.000106925
0.000104688
0.000102488
0.000100324
9.81806e-05
9.6089e-05
9.4024e-05
9.19832e-05
8.9997e-05
8.80452e-05
8.61274e-05
8.42427e-05
8.23905e-05
8.05702e-05
7.8781e-05
7.70079e-05
7.52615e-05
7.35619e-05
7.18875e-05
7.0245e-05
6.86298e-05
6.70338e-05
6.54704e-05
6.39169e-05
6.24023e-05
6.09113e-05
5.94366e-05
5.7976e-05
5.65378e-05
5.51219e-05
5.37284e-05
5.23715e-05
5.10312e-05
4.97165e-05
4.84212e-05
4.71358e-05
)
;

boundaryField
{
    wall
    {
        type            zeroGradient;
    }
    fuel
    {
        type            fixedValue;
        value           nonuniform 0();
    }
    outlet
    {
        type            inletOutlet;
        inletValue      nonuniform 0();
        value           nonuniform 0();
    }
    procBoundary2to1
    {
        type            processor;
        value           uniform 0.000145204;
    }
    procBoundary2to3
    {
        type            processor;
        value           uniform 4.58783e-05;
    }
}


// ************************************************************************* //
