/*--------------------------------*- C++ -*----------------------------------*\
| =========                 |                                                 |
| \\      /  F ield         | OpenFOAM: The Open Source CFD Toolbox           |
|  \\    /   O peration     | Version:  dev                                   |
|   \\  /    A nd           | Web:      www.OpenFOAM.org                      |
|    \\/     M anipulation  |                                                 |
\*---------------------------------------------------------------------------*/
FoamFile
{
    version     2.0;
    format      ascii;
    class       volScalarField;
    location    "0.16";
    object      H2C4O;
}
// * * * * * * * * * * * * * * * * * * * * * * * * * * * * * * * * * * * * * //

dimensions      [0 0 0 0 0 0 0];

internalField   nonuniform List<scalar> 
250
(
2.72067e-06
1.60329e-05
1.6019e-05
1.59778e-05
1.59683e-05
1.59673e-05
1.59664e-05
1.59659e-05
1.59666e-05
4.82591e-06
1.10375e-05
1.01601e-05
1.00083e-05
9.98247e-06
9.97984e-06
9.97814e-06
9.97787e-06
9.97893e-06
5.18938e-06
8.39262e-06
7.36054e-06
7.17439e-06
7.14089e-06
7.13702e-06
7.13449e-06
7.13434e-06
7.13575e-06
5.02385e-06
7.15847e-06
6.07352e-06
5.86158e-06
5.82112e-06
5.81567e-06
5.81233e-06
5.81262e-06
5.81435e-06
4.79215e-06
6.43163e-06
5.3311e-06
5.0964e-06
5.04968e-06
5.04175e-06
5.03842e-06
5.03957e-06
5.0415e-06
4.61206e-06
5.9084e-06
4.81773e-06
4.56286e-06
4.51239e-06
4.49922e-06
4.49914e-06
4.50133e-06
4.50327e-06
4.50174e-06
5.48482e-06
4.42315e-06
4.14879e-06
4.08059e-06
4.07658e-06
4.06048e-06
4.06386e-06
4.06581e-06
4.43629e-06
5.11987e-06
4.06351e-06
3.8046e-06
3.73626e-06
3.72873e-06
3.71701e-06
3.71941e-06
3.72089e-06
4.29491e-06
4.79503e-06
3.78493e-06
3.50419e-06
3.44573e-06
3.43728e-06
3.42955e-06
3.42948e-06
3.43034e-06
3.76063e-06
4.49966e-06
3.51325e-06
3.2441e-06
3.17192e-06
3.16157e-06
3.15646e-06
3.15385e-06
3.1537e-06
2.69144e-06
4.22815e-06
3.26073e-06
3.00183e-06
2.92645e-06
2.91549e-06
2.90964e-06
2.90825e-06
2.90758e-06
2.90384e-06
1.61799e-06
3.97802e-06
3.06086e-06
2.78638e-06
2.70747e-06
2.69596e-06
2.6848e-06
2.68906e-06
2.68845e-06
2.6858e-06
9.93991e-07
3.74716e-06
2.86586e-06
2.59248e-06
2.51079e-06
2.49896e-06
2.50397e-06
2.49206e-06
2.49217e-06
2.49091e-06
7.83525e-07
3.51472e-06
2.67562e-06
2.41651e-06
2.33309e-06
2.3209e-06
2.33376e-06
2.31371e-06
2.31531e-06
2.31529e-06
8.01316e-07
3.31345e-06
2.52095e-06
2.25592e-06
2.17182e-06
2.15924e-06
2.16565e-06
2.15135e-06
2.15514e-06
2.15587e-06
9.23751e-07
3.0971e-06
2.36222e-06
2.10848e-06
2.02505e-06
2.0122e-06
2.01473e-06
2.00296e-06
2.00947e-06
2.01041e-06
1.08565e-06
2.88478e-06
2.21034e-06
1.97234e-06
1.8912e-06
1.87827e-06
1.87849e-06
1.86686e-06
1.87656e-06
1.8773e-06
1.25025e-06
2.71127e-06
2.0692e-06
1.84568e-06
1.76896e-06
1.75617e-06
1.75504e-06
1.74151e-06
1.75501e-06
1.75531e-06
1.39541e-06
2.54147e-06
1.93836e-06
1.72681e-06
1.65717e-06
1.64474e-06
1.64297e-06
1.64022e-06
1.64377e-06
1.6435e-06
1.51013e-06
2.38424e-06
1.81759e-06
1.62975e-06
1.55485e-06
1.54295e-06
1.54084e-06
1.53653e-06
1.54182e-06
1.54103e-06
1.59096e-06
2.23411e-06
1.70614e-06
1.53743e-06
1.46095e-06
1.44983e-06
1.44758e-06
1.44104e-06
1.44836e-06
1.44714e-06
1.63935e-06
2.09149e-06
1.60339e-06
1.44583e-06
1.37442e-06
1.36442e-06
1.36226e-06
1.3633e-06
1.36258e-06
1.36099e-06
1.65933e-06
1.95704e-06
1.50918e-06
1.37133e-06
1.30365e-06
1.29515e-06
1.29307e-06
1.29332e-06
1.29296e-06
1.29113e-06
1.65593e-06
1.8324e-06
1.42313e-06
1.30073e-06
1.23946e-06
1.22699e-06
1.22494e-06
1.22435e-06
1.22441e-06
1.22226e-06
1.63405e-06
1.71842e-06
1.34446e-06
1.23871e-06
1.18146e-06
1.16995e-06
1.16799e-06
1.16686e-06
1.16712e-06
1.16487e-06
1.5977e-06
1.6151e-06
1.27959e-06
1.18234e-06
1.12911e-06
1.11853e-06
1.11666e-06
1.1151e-06
1.11551e-06
1.11321e-06
)
;

boundaryField
{
    fuel
    {
        type            fixedValue;
        value           uniform 0;
    }
    wall
    {
        type            zeroGradient;
    }
    outlet
    {
        type            zeroGradient;
    }
    frontAndBack
    {
        type            empty;
    }
    procBoundary2to0
    {
        type            processor;
        value           nonuniform List<scalar> 
12
(
1.16333e-06
1.5506e-06
1.52193e-06
1.21991e-06
1.13113e-06
1.08182e-06
1.07214e-06
1.07037e-06
1.0685e-06
1.06902e-06
1.11199e-06
1.06671e-06
)
;
    }
    procBoundary2to3
    {
        type            processor;
        value           nonuniform List<scalar> 
25
(
1.5966e-05
9.97817e-06
7.13472e-06
5.81301e-06
5.03978e-06
4.50108e-06
4.06255e-06
3.71718e-06
3.42646e-06
3.14956e-06
3.14956e-06
2.91007e-06
2.69027e-06
2.49294e-06
2.31479e-06
2.15329e-06
2.00643e-06
1.87262e-06
1.75049e-06
1.63894e-06
1.53697e-06
1.44366e-06
1.35813e-06
1.28876e-06
1.22034e-06
)
;
    }
}


// ************************************************************************* //
