/*--------------------------------*- C++ -*----------------------------------*\
| =========                 |                                                 |
| \\      /  F ield         | OpenFOAM: The Open Source CFD Toolbox           |
|  \\    /   O peration     | Version:  dev                                   |
|   \\  /    A nd           | Web:      www.OpenFOAM.org                      |
|    \\/     M anipulation  |                                                 |
\*---------------------------------------------------------------------------*/
FoamFile
{
    version     2.0;
    format      ascii;
    class       volScalarField;
    location    "0.16";
    object      i-C6H7;
}
// * * * * * * * * * * * * * * * * * * * * * * * * * * * * * * * * * * * * * //

dimensions      [0 0 0 0 0 0 0];

internalField   nonuniform List<scalar> 
250
(
5.73099e-11
3.71423e-09
3.23798e-09
3.16736e-09
3.14608e-09
3.1495e-09
3.14722e-09
3.14848e-09
3.14774e-09
2.27099e-09
1.8955e-10
1.69201e-10
1.62451e-10
1.61826e-10
1.61522e-10
1.61649e-10
1.61555e-10
1.61593e-10
2.40672e-10
1.19039e-11
1.10747e-11
1.0268e-11
1.03082e-11
1.0218e-11
1.02619e-11
1.0232e-11
1.02462e-11
2.71315e-11
1.58671e-12
1.53916e-12
1.37263e-12
1.39122e-12
1.36757e-12
1.37834e-12
1.37102e-12
1.37461e-12
3.57708e-12
6.15106e-13
6.03554e-13
5.17722e-13
5.28645e-13
5.16268e-13
5.20774e-13
5.17951e-13
5.19744e-13
7.31742e-13
3.70929e-13
3.52251e-13
2.9679e-13
3.06253e-13
2.97118e-13
2.98665e-13
2.98386e-13
2.99708e-13
3.06404e-13
2.50943e-13
2.39849e-13
1.93621e-13
1.99478e-13
1.91478e-13
1.9587e-13
1.92419e-13
1.93458e-13
2.07886e-13
1.87023e-13
1.77779e-13
1.38539e-13
1.44025e-13
1.37362e-13
1.39452e-13
1.38144e-13
1.39001e-13
1.79686e-13
1.50357e-13
1.32426e-13
1.03793e-13
1.08169e-13
1.02562e-13
1.06264e-13
1.03159e-13
1.03832e-13
1.86391e-13
1.2825e-13
1.08051e-13
8.15655e-14
8.49681e-14
8.05823e-14
8.29015e-14
8.10185e-14
8.15237e-14
2.19504e-13
1.1298e-13
8.87613e-14
6.69507e-14
6.96048e-14
6.61239e-14
6.76174e-14
6.64427e-14
6.6836e-14
6.65746e-14
2.68885e-13
1.01233e-13
7.51849e-14
5.68799e-14
5.89376e-14
5.61243e-14
5.71141e-14
5.63539e-14
5.66724e-14
5.64582e-14
3.18517e-13
9.2213e-14
6.54185e-14
4.96278e-14
5.12133e-14
4.88893e-14
4.95327e-14
4.90482e-14
4.93185e-14
4.91414e-14
3.51828e-13
8.52407e-14
5.81248e-14
4.41735e-14
4.5393e-14
4.34284e-14
4.37604e-14
4.35276e-14
4.37696e-14
4.36218e-14
3.59748e-13
7.92091e-14
5.24318e-14
3.98939e-14
4.08352e-14
3.91417e-14
3.97673e-14
3.91841e-14
3.94127e-14
3.92882e-14
3.43629e-13
7.37129e-14
4.77831e-14
3.64017e-14
3.71351e-14
3.56465e-14
3.62927e-14
3.56327e-14
3.58648e-14
3.57587e-14
3.11557e-13
6.85494e-14
4.38332e-14
3.34541e-14
3.40334e-14
3.27035e-14
3.32209e-14
3.26289e-14
3.2883e-14
3.27911e-14
2.72761e-13
6.35342e-14
4.03554e-14
3.08963e-14
3.13624e-14
3.01614e-14
3.05888e-14
3.00129e-14
3.03116e-14
3.02303e-14
2.3413e-13
5.86963e-14
3.71556e-14
2.86277e-14
2.90115e-14
2.79216e-14
2.82841e-14
2.79574e-14
2.80492e-14
2.79751e-14
1.99383e-13
5.40174e-14
3.48626e-14
2.6583e-14
2.69054e-14
2.59181e-14
2.62275e-14
2.59111e-14
2.60259e-14
2.59582e-14
1.69737e-13
4.95438e-14
3.25385e-14
2.48737e-14
2.4989e-14
2.41054e-14
2.43669e-14
2.40494e-14
2.41938e-14
2.41323e-14
1.44979e-13
4.51907e-14
3.01897e-14
2.32584e-14
2.32138e-14
2.24498e-14
2.26627e-14
2.25247e-14
2.25164e-14
2.2462e-14
1.24516e-13
4.10728e-14
2.7993e-14
2.18286e-14
2.17972e-14
2.10789e-14
2.12784e-14
2.11409e-14
2.11437e-14
2.10901e-14
1.08188e-13
3.72104e-14
2.59025e-14
2.04381e-14
2.04011e-14
1.97301e-14
1.99054e-14
1.97742e-14
1.97819e-14
1.97315e-14
9.15529e-14
3.3588e-14
2.38559e-14
1.92123e-14
1.91867e-14
1.8563e-14
1.87222e-14
1.85963e-14
1.86091e-14
1.85613e-14
8.07744e-14
3.02076e-14
2.2243e-14
1.80642e-14
1.80398e-14
1.74739e-14
1.76187e-14
1.74977e-14
1.75144e-14
1.7469e-14
)
;

boundaryField
{
    fuel
    {
        type            fixedValue;
        value           uniform 0;
    }
    wall
    {
        type            zeroGradient;
    }
    outlet
    {
        type            zeroGradient;
    }
    frontAndBack
    {
        type            empty;
    }
    procBoundary2to0
    {
        type            processor;
        value           nonuniform List<scalar> 
12
(
1.85888e-14
7.08526e-14
2.70313e-14
2.07099e-14
1.697e-14
1.69708e-14
1.64405e-14
1.65744e-14
1.64563e-14
1.64769e-14
1.74907e-14
1.64331e-14
)
;
    }
    procBoundary2to3
    {
        type            processor;
        value           nonuniform List<scalar> 
25
(
3.14804e-09
1.61564e-10
1.02375e-11
1.37262e-12
5.18814e-13
2.99017e-13
1.9287e-13
1.385e-13
1.03409e-13
8.11956e-14
8.11956e-14
6.66731e-14
5.65468e-14
4.92198e-14
4.36902e-14
3.93473e-14
3.58093e-14
3.28342e-14
3.02665e-14
2.80043e-14
2.59788e-14
2.41417e-14
2.24588e-14
2.10882e-14
1.97517e-14
)
;
    }
}


// ************************************************************************* //
