/*--------------------------------*- C++ -*----------------------------------*\
| =========                 |                                                 |
| \\      /  F ield         | OpenFOAM: The Open Source CFD Toolbox           |
|  \\    /   O peration     | Version:  dev                                   |
|   \\  /    A nd           | Web:      www.OpenFOAM.org                      |
|    \\/     M anipulation  |                                                 |
\*---------------------------------------------------------------------------*/
FoamFile
{
    version     2.0;
    format      ascii;
    class       volScalarField;
    location    "0.16";
    object      n-C6H7;
}
// * * * * * * * * * * * * * * * * * * * * * * * * * * * * * * * * * * * * * //

dimensions      [0 0 0 0 0 0 0];

internalField   nonuniform List<scalar> 
50
(
1.63974e-24
1.51465e-24
1.40117e-24
1.29817e-24
1.20464e-24
1.12046e-24
1.04342e-24
9.73167e-25
9.09253e-25
8.51122e-25
7.98557e-25
7.50108e-25
7.06266e-25
6.66194e-25
6.29343e-25
5.95781e-25
5.65025e-25
5.36813e-25
5.10709e-25
4.86888e-25
4.64862e-25
4.44443e-25
4.25759e-25
4.08458e-25
3.92391e-25
3.77419e-25
3.63409e-25
3.50236e-25
3.37781e-25
3.25838e-25
3.14377e-25
3.03426e-25
2.92762e-25
2.82349e-25
2.72092e-25
2.61883e-25
2.51759e-25
2.41541e-25
2.3139e-25
2.21198e-25
2.10919e-25
2.00549e-25
1.90164e-25
1.79792e-25
1.69466e-25
1.5933e-25
1.49282e-25
1.39437e-25
1.29795e-25
1.20329e-25
)
;

boundaryField
{
    wall
    {
        type            zeroGradient;
    }
    fuel
    {
        type            fixedValue;
        value           nonuniform 0();
    }
    outlet
    {
        type            inletOutlet;
        inletValue      nonuniform 0();
        value           nonuniform 0();
    }
    procBoundary2to1
    {
        type            processor;
        value           uniform 1.77893e-24;
    }
    procBoundary2to3
    {
        type            processor;
        value           uniform 1.11221e-25;
    }
}


// ************************************************************************* //
