/*--------------------------------*- C++ -*----------------------------------*\
| =========                 |                                                 |
| \\      /  F ield         | OpenFOAM: The Open Source CFD Toolbox           |
|  \\    /   O peration     | Version:  dev                                   |
|   \\  /    A nd           | Web:      www.OpenFOAM.org                      |
|    \\/     M anipulation  |                                                 |
\*---------------------------------------------------------------------------*/
FoamFile
{
    version     2.0;
    format      ascii;
    class       volScalarField;
    location    "0.16";
    object      O;
}
// * * * * * * * * * * * * * * * * * * * * * * * * * * * * * * * * * * * * * //

dimensions      [0 0 0 0 0 0 0];

internalField   nonuniform List<scalar> 
50
(
3.8317e-06
3.65622e-06
3.48732e-06
3.32484e-06
3.16861e-06
3.01989e-06
2.8761e-06
2.73772e-06
2.605e-06
2.47789e-06
2.35699e-06
2.23995e-06
2.12883e-06
2.02242e-06
1.92001e-06
1.82254e-06
1.72932e-06
1.64018e-06
1.55435e-06
1.47295e-06
1.39488e-06
1.31993e-06
1.2491e-06
1.18151e-06
1.11705e-06
1.05558e-06
9.96984e-07
9.41141e-07
8.87942e-07
8.36869e-07
7.88155e-07
7.42249e-07
6.98478e-07
6.56941e-07
6.17448e-07
5.79743e-07
5.44074e-07
5.0987e-07
4.777e-07
4.47173e-07
4.18093e-07
3.90378e-07
3.64132e-07
3.393e-07
3.15824e-07
2.93877e-07
2.73081e-07
2.53531e-07
2.3509e-07
2.17589e-07
)
;

boundaryField
{
    wall
    {
        type            zeroGradient;
    }
    fuel
    {
        type            fixedValue;
        value           nonuniform 0();
    }
    outlet
    {
        type            inletOutlet;
        inletValue      nonuniform 0();
        value           nonuniform 0();
    }
    procBoundary2to1
    {
        type            processor;
        value           uniform 4.01389e-06;
    }
    procBoundary2to3
    {
        type            processor;
        value           uniform 2.01216e-07;
    }
}


// ************************************************************************* //
