/*--------------------------------*- C++ -*----------------------------------*\
| =========                 |                                                 |
| \\      /  F ield         | OpenFOAM: The Open Source CFD Toolbox           |
|  \\    /   O peration     | Version:  dev                                   |
|   \\  /    A nd           | Web:      www.OpenFOAM.org                      |
|    \\/     M anipulation  |                                                 |
\*---------------------------------------------------------------------------*/
FoamFile
{
    version     2.0;
    format      ascii;
    class       volScalarField;
    location    "0.16";
    object      O2;
}
// * * * * * * * * * * * * * * * * * * * * * * * * * * * * * * * * * * * * * //

dimensions      [0 0 0 0 0 0 0];

internalField   nonuniform List<scalar> 
50
(
1.7935e-06
1.71129e-06
1.63211e-06
1.55591e-06
1.48264e-06
1.41288e-06
1.34545e-06
1.28055e-06
1.21832e-06
1.15873e-06
1.10207e-06
1.04722e-06
9.95165e-07
9.45328e-07
8.97381e-07
8.51759e-07
8.08137e-07
7.66443e-07
7.26304e-07
6.88252e-07
6.51763e-07
6.1675e-07
5.83669e-07
5.52122e-07
5.22046e-07
4.93382e-07
4.66071e-07
4.40059e-07
4.15291e-07
3.91526e-07
3.6887e-07
3.47537e-07
3.27213e-07
3.07943e-07
2.89639e-07
2.72179e-07
2.55679e-07
2.39873e-07
2.25025e-07
2.10954e-07
1.97566e-07
1.84822e-07
1.72769e-07
1.61383e-07
1.50638e-07
1.40614e-07
1.31136e-07
1.22245e-07
1.13878e-07
1.05955e-07
)
;

boundaryField
{
    wall
    {
        type            zeroGradient;
    }
    fuel
    {
        type            fixedValue;
        value           nonuniform 0();
    }
    outlet
    {
        type            inletOutlet;
        inletValue      nonuniform 0();
        value           nonuniform 0();
    }
    procBoundary2to1
    {
        type            processor;
        value           uniform 1.8791e-06;
    }
    procBoundary2to3
    {
        type            processor;
        value           uniform 9.85343e-08;
    }
}


// ************************************************************************* //
