/*--------------------------------*- C++ -*----------------------------------*\
| =========                 |                                                 |
| \\      /  F ield         | OpenFOAM: The Open Source CFD Toolbox           |
|  \\    /   O peration     | Version:  dev                                   |
|   \\  /    A nd           | Web:      www.OpenFOAM.org                      |
|    \\/     M anipulation  |                                                 |
\*---------------------------------------------------------------------------*/
FoamFile
{
    version     2.0;
    format      ascii;
    class       volScalarField;
    location    "0.16";
    object      p;
}
// * * * * * * * * * * * * * * * * * * * * * * * * * * * * * * * * * * * * * //

dimensions      [1 -1 -2 0 0 0 0];

internalField   nonuniform List<scalar> 
250
(
99988.8
99997.1
99998.7
99995.9
99998.2
99995.7
99996.6
99995.1
99995
99987
99996.9
99998.5
99995.7
99998.1
99995.6
99996.4
99995
99994.8
99986.1
99996.9
99998.5
99995.6
99998
99995.5
99996.3
99994.9
99994.8
99986.5
99996.9
99998.5
99995.6
99998
99995.5
99996.3
99994.9
99994.8
99987.6
99996.9
99998.5
99995.6
99998
99995.5
99996.3
99994.9
99994.8
99988.8
99996.9
99998.6
99995.6
99998
99995.5
99996.3
99994.9
99994.8
99989.9
99996.8
99998.6
99995.6
99998
99995.5
99996.3
99994.9
99994.8
99990.9
99996.8
99998.7
99995.6
99998
99995.6
99996.3
99994.9
99994.8
99991.9
99996.7
99998.7
99995.6
99998.1
99995.6
99996.3
99994.9
99994.8
99992.8
99996.6
99998.8
99995.6
99998.1
99995.6
99996.3
99995
99994.8
99993.7
99996.5
99998.9
99995.6
99998.1
99995.6
99996.3
99995
99994.8
99994
99994.5
99996.4
99999
99995.6
99998.1
99995.6
99996.3
99995
99994.8
99994
99995.2
99996.3
99999
99995.6
99998.1
99995.6
99996.3
99995
99994.8
99994
99995.8
99996.2
99999.1
99995.6
99998.1
99995.7
99996.3
99995
99994.8
99994
99996.4
99996.2
99999.2
99995.6
99998.1
99995.7
99996.2
99995
99994.7
99994
99997
99996.1
99999.3
99995.6
99998.1
99995.7
99996.2
99995
99994.7
99994
99997.5
99996.1
99999.4
99995.6
99998.1
99995.7
99996.2
99995
99994.7
99994
99998
99996
99999.5
99995.7
99998.1
99995.7
99996.2
99995
99994.7
99994
99998.5
99996
99999.6
99995.7
99998.1
99995.8
99996.2
99995
99994.7
99994
99998.9
99995.9
99999.6
99995.7
99998
99995.8
99996.2
99995
99994.7
99994
99999.3
99995.9
99999.7
99995.8
99998
99995.8
99996.2
99995
99994.7
99994
99999.6
99995.9
99999.8
99995.8
99998
99995.8
99996.2
99995.1
99994.7
99994
100000
99995.9
99999.8
99995.8
99998
99995.9
99996.2
99995.1
99994.7
99994
100000
99995.9
99999.9
99995.9
99998
99995.9
99996.2
99995.1
99994.7
99994
100001
99995.9
99999.9
99995.9
99998
99995.9
99996.2
99995.1
99994.7
99994
100001
99995.9
99999.9
99996
99998
99995.9
99996.2
99995.1
99994.7
99994
)
;

boundaryField
{
    fuel
    {
        type            zeroGradient;
    }
    wall
    {
        type            zeroGradient;
    }
    outlet
    {
        type            totalPressure;
        rho             none;
        psi             none;
        gamma           1;
        p0              uniform 100000;
        value           uniform 100000;
    }
    frontAndBack
    {
        type            empty;
    }
    procBoundary2to0
    {
        type            processor;
        value           nonuniform List<scalar> 
12
(
99993.6
100001
99995.9
100000
99996
99998
99996
99996.2
99995.1
99994.7
99993.6
99994
)
;
    }
    procBoundary2to3
    {
        type            processor;
        value           nonuniform List<scalar> 
25
(
99994.2
99994
99993.9
99993.9
99993.9
99993.9
99993.9
99993.9
99994
99994
99994
99993.6
99993.6
99993.6
99993.6
99993.6
99993.6
99993.6
99993.6
99993.6
99993.6
99993.6
99993.6
99993.6
99993.6
)
;
    }
}


// ************************************************************************* //
