/*--------------------------------*- C++ -*----------------------------------*\
| =========                 |                                                 |
| \\      /  F ield         | OpenFOAM: The Open Source CFD Toolbox           |
|  \\    /   O peration     | Version:  dev                                   |
|   \\  /    A nd           | Web:      www.OpenFOAM.org                      |
|    \\/     M anipulation  |                                                 |
\*---------------------------------------------------------------------------*/
FoamFile
{
    version     2.0;
    format      ascii;
    class       volScalarField;
    location    "0.16";
    object      P2;
}
// * * * * * * * * * * * * * * * * * * * * * * * * * * * * * * * * * * * * * //

dimensions      [0 0 0 0 0 0 0];

internalField   nonuniform List<scalar> 
250
(
6.47292e-09
9.60185e-08
9.19744e-08
8.9182e-08
8.90595e-08
8.88678e-08
8.89208e-08
8.88837e-08
8.8903e-08
2.37283e-08
1.15882e-07
1.05326e-07
9.89462e-08
9.86122e-08
9.82039e-08
9.83191e-08
9.82353e-08
9.82756e-08
1.23575e-08
8.80229e-08
7.75184e-08
6.92969e-08
6.91364e-08
6.84949e-08
6.87075e-08
6.85593e-08
6.86321e-08
4.44216e-09
5.86032e-08
4.97507e-08
4.15184e-08
4.16119e-08
4.08688e-08
4.11207e-08
4.09533e-08
4.10444e-08
1.72659e-09
3.85433e-08
3.08557e-08
2.35922e-08
2.38473e-08
2.31478e-08
2.33526e-08
2.32319e-08
2.33208e-08
8.56718e-10
2.64937e-08
1.87037e-08
1.33332e-08
1.36662e-08
1.30895e-08
1.3171e-08
1.31622e-08
1.32373e-08
5.66248e-10
1.88312e-08
1.18577e-08
7.63385e-09
7.81763e-09
7.33517e-09
7.57373e-09
7.38757e-09
7.44518e-09
5.17184e-10
1.43527e-08
7.88863e-09
4.61749e-09
4.79464e-09
4.42722e-09
4.53464e-09
4.46701e-09
4.51056e-09
6.80909e-10
1.17259e-08
5.06215e-09
2.86649e-09
2.98959e-09
2.71775e-09
2.88611e-09
2.74449e-09
2.77456e-09
1.28358e-09
1.01732e-08
3.63285e-09
1.87542e-09
1.95287e-09
1.7674e-09
1.86059e-09
1.78438e-09
1.80375e-09
3.0578e-09
9.13639e-09
2.60295e-09
1.30775e-09
1.35396e-09
1.22552e-09
1.27782e-09
1.23632e-09
1.24918e-09
1.24064e-09
7.74721e-09
8.35149e-09
1.95431e-09
9.67335e-10
9.92054e-10
9.00733e-10
9.30972e-10
9.07586e-10
9.16481e-10
9.10446e-10
1.83599e-08
7.75695e-09
1.5367e-09
7.52624e-10
7.62755e-10
6.95623e-10
7.12926e-10
6.99892e-10
7.06367e-10
7.02002e-10
3.81469e-08
7.29918e-09
1.25621e-09
6.09938e-10
6.10356e-10
5.5927e-10
5.67039e-10
5.61754e-10
5.66762e-10
5.63541e-10
6.80869e-08
6.88629e-09
1.05788e-09
5.10186e-10
5.04269e-10
4.64217e-10
4.77133e-10
4.65323e-10
4.69452e-10
4.67036e-10
1.04767e-07
6.47003e-09
9.09926e-10
4.37176e-10
4.27221e-10
3.94955e-10
4.07048e-10
3.94933e-10
3.98656e-10
3.96819e-10
1.41001e-07
6.01983e-09
7.94104e-10
3.81644e-10
3.69191e-10
3.42619e-10
3.51375e-10
3.41555e-10
3.45275e-10
3.43861e-10
1.69029e-07
5.51408e-09
6.99536e-10
3.38134e-10
3.24205e-10
3.01992e-10
3.08493e-10
2.99786e-10
3.03912e-10
3.02808e-10
1.83825e-07
4.96591e-09
6.18467e-10
3.03333e-10
2.886e-10
2.6988e-10
2.7481e-10
2.70344e-10
2.71269e-10
2.70391e-10
1.84434e-07
4.39487e-09
5.64157e-10
2.75204e-10
2.60061e-10
2.44279e-10
2.48007e-10
2.44184e-10
2.45248e-10
2.44558e-10
1.73207e-07
3.83257e-09
5.12964e-10
2.54393e-10
2.37074e-10
2.23902e-10
2.26644e-10
2.23222e-10
2.24515e-10
2.23995e-10
1.54082e-07
3.29136e-09
4.65308e-10
2.37334e-10
2.1858e-10
2.07925e-10
2.09787e-10
2.08497e-10
2.08199e-10
2.07846e-10
1.31352e-07
2.80174e-09
4.24864e-10
2.24784e-10
2.06232e-10
1.97114e-10
1.98512e-10
1.97545e-10
1.97257e-10
1.97006e-10
1.09306e-07
2.37644e-09
3.90722e-10
2.15391e-10
1.96703e-10
1.89174e-10
1.90027e-10
1.89441e-10
1.89102e-10
1.88984e-10
8.43289e-08
2.01192e-09
3.61951e-10
2.10058e-10
1.91094e-10
1.85087e-10
1.85465e-10
1.85247e-10
1.8484e-10
1.84857e-10
6.78129e-08
1.71436e-09
3.43286e-10
2.08358e-10
1.88846e-10
1.84393e-10
1.84286e-10
1.84461e-10
1.83956e-10
1.84124e-10
)
;

boundaryField
{
    fuel
    {
        type            fixedValue;
        value           uniform 0;
    }
    wall
    {
        type            zeroGradient;
    }
    outlet
    {
        type            zeroGradient;
    }
    frontAndBack
    {
        type            empty;
    }
    procBoundary2to0
    {
        type            processor;
        value           nonuniform List<scalar> 
12
(
1.85229e-10
5.30234e-08
1.46552e-09
3.29832e-10
2.10436e-10
1.90157e-10
1.87264e-10
1.86648e-10
1.87256e-10
1.8662e-10
1.84462e-10
1.86956e-10
)
;
    }
    procBoundary2to3
    {
        type            processor;
        value           nonuniform List<scalar> 
25
(
8.88958e-08
9.82605e-08
6.86007e-08
4.10019e-08
2.32774e-08
1.31993e-08
7.41351e-09
4.48573e-09
2.7561e-09
1.79133e-09
1.79133e-09
1.24366e-09
9.12794e-10
7.03852e-10
5.65008e-10
4.68206e-10
3.9776e-10
3.4463e-10
3.03446e-10
2.70925e-10
2.44997e-10
2.24329e-10
2.08068e-10
1.97211e-10
1.89316e-10
)
;
    }
}


// ************************************************************************* //
