/*--------------------------------*- C++ -*----------------------------------*\
| =========                 |                                                 |
| \\      /  F ield         | OpenFOAM: The Open Source CFD Toolbox           |
|  \\    /   O peration     | Version:  dev                                   |
|   \\  /    A nd           | Web:      www.OpenFOAM.org                      |
|    \\/     M anipulation  |                                                 |
\*---------------------------------------------------------------------------*/
FoamFile
{
    version     2.0;
    format      ascii;
    class       volScalarField;
    location    "0.055";
    object      c-C6H7;
}
// * * * * * * * * * * * * * * * * * * * * * * * * * * * * * * * * * * * * * //

dimensions      [0 0 0 0 0 0 0];

internalField   nonuniform List<scalar> 
25
(
8.30413e-21
6.89804e-21
5.79295e-21
4.94442e-21
4.33302e-21
3.98133e-21
3.99317e-21
4.61086e-21
6.4021e-21
1.0554e-20
1.94444e-20
3.76605e-20
7.3719e-20
1.4276e-19
2.70428e-19
5.04373e-19
9.20334e-19
1.63453e-18
2.77728e-18
4.60271e-18
7.45967e-18
1.18532e-17
1.80255e-17
2.68102e-17
3.92862e-17
)
;

boundaryField
{
    wall
    {
        type            zeroGradient;
    }
    fuel
    {
        type            fixedValue;
        value           nonuniform 0();
    }
    outlet
    {
        type            inletOutlet;
        inletValue      nonuniform 0();
        value           nonuniform 0();
    }
    procBoundary1to0
    {
        type            processor;
        value           uniform 1.01266e-20;
    }
    procBoundary1to2
    {
        type            processor;
        value           uniform 5.57501e-17;
    }
}


// ************************************************************************* //
