/*--------------------------------*- C++ -*----------------------------------*\
| =========                 |                                                 |
| \\      /  F ield         | OpenFOAM: The Open Source CFD Toolbox           |
|  \\    /   O peration     | Version:  dev                                   |
|   \\  /    A nd           | Web:      www.OpenFOAM.org                      |
|    \\/     M anipulation  |                                                 |
\*---------------------------------------------------------------------------*/
FoamFile
{
    version     2.0;
    format      ascii;
    class       volScalarField;
    location    "0.055";
    object      HO2;
}
// * * * * * * * * * * * * * * * * * * * * * * * * * * * * * * * * * * * * * //

dimensions      [0 0 0 0 0 0 0];

internalField   nonuniform List<scalar> 
25
(
2.98388e-09
2.67867e-09
2.39816e-09
2.14148e-09
1.90768e-09
1.69529e-09
1.50847e-09
1.3395e-09
1.18725e-09
1.05041e-09
9.27672e-10
8.17808e-10
7.19637e-10
6.32058e-10
5.54232e-10
4.84069e-10
4.21558e-10
3.66457e-10
3.19482e-10
2.77976e-10
2.41086e-10
2.0823e-10
1.80723e-10
1.56764e-10
1.35602e-10
)
;

boundaryField
{
    wall
    {
        type            zeroGradient;
    }
    fuel
    {
        type            fixedValue;
        value           nonuniform 0();
    }
    outlet
    {
        type            inletOutlet;
        inletValue      nonuniform 0();
        value           nonuniform 0();
    }
    procBoundary1to0
    {
        type            processor;
        value           uniform 3.31646e-09;
    }
    procBoundary1to2
    {
        type            processor;
        value           uniform 1.17576e-10;
    }
}


// ************************************************************************* //
