/*--------------------------------*- C++ -*----------------------------------*\
| =========                 |                                                 |
| \\      /  F ield         | OpenFOAM: The Open Source CFD Toolbox           |
|  \\    /   O peration     | Version:  dev                                   |
|   \\  /    A nd           | Web:      www.OpenFOAM.org                      |
|    \\/     M anipulation  |                                                 |
\*---------------------------------------------------------------------------*/
FoamFile
{
    version     2.0;
    format      ascii;
    class       volScalarField;
    location    "0.18";
    object      A2C2HA;
}
// * * * * * * * * * * * * * * * * * * * * * * * * * * * * * * * * * * * * * //

dimensions      [0 0 0 0 0 0 0];

internalField   nonuniform List<scalar> 
50
(
6.77508e-12
4.33628e-12
2.48367e-12
1.43115e-12
8.46035e-13
5.18809e-13
3.33625e-13
2.27367e-13
1.64585e-13
1.26619e-13
1.0255e-13
8.64341e-14
7.47672e-14
6.56372e-14
5.81166e-14
5.16511e-14
4.59424e-14
4.0876e-14
3.62989e-14
3.2185e-14
2.84831e-14
2.51468e-14
2.21532e-14
1.95103e-14
1.71637e-14
1.50763e-14
1.32254e-14
1.16088e-14
1.01744e-14
8.92472e-15
7.82262e-15
6.85212e-15
6.00923e-15
5.26867e-15
4.61676e-15
4.0463e-15
3.54717e-15
3.11048e-15
2.72839e-15
2.39406e-15
2.10148e-15
1.84538e-15
1.62116e-15
1.42481e-15
1.25281e-15
1.10206e-15
9.69856e-16
8.53825e-16
7.5185e-16
6.62046e-16
)
;

boundaryField
{
    wall
    {
        type            zeroGradient;
    }
    fuel
    {
        type            fixedValue;
        value           uniform 0;
    }
    outlet
    {
        type            inletOutlet;
        inletValue      nonuniform 0();
        value           nonuniform 0();
    }
    procBoundary0to1
    {
        type            processor;
        value           uniform 5.83451e-16;
    }
}


// ************************************************************************* //
