/*--------------------------------*- C++ -*----------------------------------*\
| =========                 |                                                 |
| \\      /  F ield         | OpenFOAM: The Open Source CFD Toolbox           |
|  \\    /   O peration     | Version:  dev                                   |
|   \\  /    A nd           | Web:      www.OpenFOAM.org                      |
|    \\/     M anipulation  |                                                 |
\*---------------------------------------------------------------------------*/
FoamFile
{
    version     2.0;
    format      ascii;
    class       volScalarField;
    location    "0.18";
    object      A4-;
}
// * * * * * * * * * * * * * * * * * * * * * * * * * * * * * * * * * * * * * //

dimensions      [0 0 0 0 0 0 0];

internalField   nonuniform List<scalar> 
50
(
5.3591e-12
4.15013e-12
3.05942e-12
2.34533e-12
1.88612e-12
1.5853e-12
1.37887e-12
1.22612e-12
1.10107e-12
9.91074e-13
8.89017e-13
7.92841e-13
7.01178e-13
6.13857e-13
5.32497e-13
4.5788e-13
3.90514e-13
3.31125e-13
2.78847e-13
2.33653e-13
1.94878e-13
1.61761e-13
1.33721e-13
1.10431e-13
9.10196e-14
7.48382e-14
6.14083e-14
5.04365e-14
4.13366e-14
3.39265e-14
2.78202e-14
2.27957e-14
1.87168e-14
1.53666e-14
1.26092e-14
1.03523e-14
8.5046e-15
6.99141e-15
5.75161e-15
4.7353e-15
3.90175e-15
3.2177e-15
2.65599e-15
2.19444e-15
1.81493e-15
1.50263e-15
1.24542e-15
1.03331e-15
8.58109e-16
7.12975e-16
)
;

boundaryField
{
    wall
    {
        type            zeroGradient;
    }
    fuel
    {
        type            fixedValue;
        value           uniform 0;
    }
    outlet
    {
        type            inletOutlet;
        inletValue      nonuniform 0();
        value           nonuniform 0();
    }
    procBoundary0to1
    {
        type            processor;
        value           uniform 5.9307e-16;
    }
}


// ************************************************************************* //
