/*--------------------------------*- C++ -*----------------------------------*\
| =========                 |                                                 |
| \\      /  F ield         | OpenFOAM: The Open Source CFD Toolbox           |
|  \\    /   O peration     | Version:  dev                                   |
|   \\  /    A nd           | Web:      www.OpenFOAM.org                      |
|    \\/     M anipulation  |                                                 |
\*---------------------------------------------------------------------------*/
FoamFile
{
    version     2.0;
    format      ascii;
    class       volScalarField;
    location    "0.18";
    object      CH3O;
}
// * * * * * * * * * * * * * * * * * * * * * * * * * * * * * * * * * * * * * //

dimensions      [0 0 0 0 0 0 0];

internalField   nonuniform List<scalar> 
50
(
7.46817e-08
9.30809e-08
8.84859e-08
7.71183e-08
6.4301e-08
5.20662e-08
4.1464e-08
3.27106e-08
2.56433e-08
2.00826e-08
1.57399e-08
1.23825e-08
9.76642e-09
7.70377e-09
6.08297e-09
4.80352e-09
3.78975e-09
2.99166e-09
2.35531e-09
1.85119e-09
1.45122e-09
1.13319e-09
8.81279e-10
6.84869e-10
5.30916e-10
4.10111e-10
3.1571e-10
2.43117e-10
1.86495e-10
1.43173e-10
1.09672e-10
8.38366e-11
6.42017e-11
4.91225e-11
3.75309e-11
2.86785e-11
2.19218e-11
1.67661e-11
1.28323e-11
9.8305e-12
7.53903e-12
5.78896e-12
4.45148e-12
3.4285e-12
2.64532e-12
2.04506e-12
1.58439e-12
1.23024e-12
9.57339e-13
7.46258e-13
)
;

boundaryField
{
    wall
    {
        type            zeroGradient;
    }
    fuel
    {
        type            fixedValue;
        value           uniform 0;
    }
    outlet
    {
        type            inletOutlet;
        inletValue      nonuniform 0();
        value           nonuniform 0();
    }
    procBoundary0to1
    {
        type            processor;
        value           uniform 5.83307e-13;
    }
}


// ************************************************************************* //
