/*--------------------------------*- C++ -*----------------------------------*\
| =========                 |                                                 |
| \\      /  F ield         | OpenFOAM: The Open Source CFD Toolbox           |
|  \\    /   O peration     | Version:  dev                                   |
|   \\  /    A nd           | Web:      www.OpenFOAM.org                      |
|    \\/     M anipulation  |                                                 |
\*---------------------------------------------------------------------------*/
FoamFile
{
    version     2.0;
    format      ascii;
    class       volScalarField;
    location    "0.18";
    object      H2;
}
// * * * * * * * * * * * * * * * * * * * * * * * * * * * * * * * * * * * * * //

dimensions      [0 0 0 0 0 0 0];

internalField   nonuniform List<scalar> 
250
(
0.00914234
0.00914122
0.00914145
0.00914097
0.00914118
0.00913284
0.00911273
0.00901956
0.00883273
0.00820395
0.0091711
0.00917015
0.00917027
0.00916964
0.00916983
0.00916175
0.00914286
0.00905418
0.00888359
0.00831603
0.00881535
0.00892067
0.00910266
0.00915666
0.00918747
0.00919383
0.00919471
0.0091965
0.00919588
0.00919743
0.00919773
0.00919692
0.00919699
0.00919623
0.00919637
0.00918862
0.00917057
0.00908725
0.00893245
0.00844176
0.008856
0.00896523
0.00913212
0.00918309
0.00921252
0.00921847
0.00921933
0.00922124
0.00922058
0.00922215
0.00922233
0.00922164
0.00922169
0.00922082
0.00922091
0.00921353
0.00919631
0.00911865
0.00897917
0.00854264
0.00889536
0.00900992
0.00915973
0.00920775
0.00923563
0.00924123
0.00924208
0.00924405
0.00924335
0.00924493
0.00924501
0.00924444
0.00924447
0.00924352
0.00924355
0.00923658
0.00922023
0.00914833
0.0090237
0.00863418
0.00893326
0.00904699
0.00918556
0.00923073
0.00925691
0.00926223
0.00926308
0.00926505
0.00926433
0.00926589
0.00926589
0.00926542
0.00926546
0.00926445
0.00926441
0.00925786
0.00924244
0.00917622
0.00906306
0.0087223
0.00896979
0.00908169
0.00920966
0.00925216
0.00927645
0.00928156
0.00928244
0.00928435
0.0092836
0.00928513
0.00928507
0.00928472
0.00928475
0.0092837
0.0092836
0.00927748
0.00926302
0.00920233
0.00909999
0.00881239
0.00900504
0.00911422
0.00923207
0.00927211
0.00929433
0.0092993
0.00930024
0.00930201
0.00930127
0.00930275
0.00930264
0.00930241
0.00930237
0.00930134
0.00930119
0.0092955
0.00928206
0.00922663
0.00913441
0.00888253
0.00903904
0.00914474
0.00925411
0.00929056
0.00931131
0.00931602
0.00931654
0.00931871
0.00931791
0.00931938
0.00931919
0.00931857
0.00931887
0.00931791
0.00931773
0.00931253
0.00929959
0.00924905
0.0091663
0.00895022
0.00907182
0.00917332
0.00927462
0.00930747
0.00932631
0.00933079
0.00933131
0.00933334
0.00933257
0.00933395
0.00933374
0.00933318
0.00933343
0.00933253
0.00933232
0.00932756
0.00931558
0.00927128
0.00919714
0.00900859
0.00910334
0.00919995
0.0092925
0.00932278
0.00933977
0.00934399
0.00934451
0.00934636
0.00934564
0.00934691
0.0093467
0.0093462
0.00934644
0.00934558
0.00934533
0.00934101
0.00932998
0.0092903
0.00922407
0.00906101
0.00913347
0.00922457
0.00930866
0.00933639
0.00935159
0.0093555
0.00935601
0.00935767
0.00935702
0.00935817
0.00935795
0.00935752
0.00935774
0.00935695
0.00935665
0.00935276
0.00934266
0.00930741
0.00924837
0.00910784
0.00916189
0.00924707
0.00932293
0.00934816
0.00936162
0.0093652
0.00936569
0.00936715
0.00936658
0.00936758
0.00936738
0.00936701
0.0093672
0.00936649
0.00936615
0.00936269
0.00935349
0.00932246
0.00926998
0.0091494
0.00937486
0.00937455
0.00937469
0.00937408
0.0093737
0.00937066
0.00936233
0.0093353
0.00928881
0.00918596
)
;

boundaryField
{
    fuel
    {
        type            fixedValue;
        value           nonuniform 0();
    }
    wall
    {
        type            zeroGradient;
    }
    outlet
    {
        type            zeroGradient;
    }
    frontAndBack
    {
        type            empty;
    }
    procBoundary0to1
    {
        type            processor;
        value           nonuniform List<scalar> 
21
(
0.00918847
0.00926734
0.00933513
0.00935794
0.00936969
0.00937294
0.00937341
0.00937465
0.00937419
0.00937503
0.00937503
0.00938028
0.00938005
0.00938013
0.00937962
0.0093792
0.00937657
0.00936907
0.00934579
0.00930481
0.00921757
)
;
    }
    procBoundary0to2
    {
        type            processor;
        value           nonuniform List<scalar> 
12
(
0.0091417
0.00877326
0.0088765
0.00907129
0.00912838
0.00916038
0.0091672
0.00916811
0.00916971
0.00916914
0.00917065
0.00917065
)
;
    }
    procBoundary0to3
    {
        type            processor;
        value           nonuniform List<scalar> 10(0.00911136 0.00911005 0.0091105 0.00911013 0.00911036 0.00910176 0.00908102 0.00897748 0.00878017 0.0080792);
    }
}


// ************************************************************************* //
