/*--------------------------------*- C++ -*----------------------------------*\
| =========                 |                                                 |
| \\      /  F ield         | OpenFOAM: The Open Source CFD Toolbox           |
|  \\    /   O peration     | Version:  dev                                   |
|   \\  /    A nd           | Web:      www.OpenFOAM.org                      |
|    \\/     M anipulation  |                                                 |
\*---------------------------------------------------------------------------*/
FoamFile
{
    version     2.0;
    format      ascii;
    class       volScalarField;
    location    "0.18";
    object      O2;
}
// * * * * * * * * * * * * * * * * * * * * * * * * * * * * * * * * * * * * * //

dimensions      [0 0 0 0 0 0 0];

internalField   nonuniform List<scalar> 
50
(
0.110738
0.0560622
0.0301956
0.0167594
0.00947187
0.00542196
0.00313436
0.00182956
0.00107259
0.000634363
0.000379148
0.000230946
0.000143393
9.11877e-05
6.02515e-05
4.18955e-05
3.09981e-05
2.45857e-05
2.07785e-05
1.85428e-05
1.72356e-05
1.64756e-05
1.6039e-05
1.57926e-05
1.56506e-05
1.55633e-05
1.5501e-05
1.54465e-05
1.53881e-05
1.53207e-05
1.52401e-05
1.51444e-05
1.50345e-05
1.49091e-05
1.47682e-05
1.46134e-05
1.44453e-05
1.42651e-05
1.40736e-05
1.38719e-05
1.3661e-05
1.34417e-05
1.3215e-05
1.29818e-05
1.2743e-05
1.24992e-05
1.22513e-05
1.19998e-05
1.17452e-05
1.14881e-05
)
;

boundaryField
{
    wall
    {
        type            zeroGradient;
    }
    fuel
    {
        type            fixedValue;
        value           uniform 0.1914;
    }
    outlet
    {
        type            inletOutlet;
        inletValue      nonuniform 0();
        value           nonuniform 0();
    }
    procBoundary0to1
    {
        type            processor;
        value           uniform 1.12305e-05;
    }
}


// ************************************************************************* //
