/*--------------------------------*- C++ -*----------------------------------*\
| =========                 |                                                 |
| \\      /  F ield         | OpenFOAM: The Open Source CFD Toolbox           |
|  \\    /   O peration     | Version:  dev                                   |
|   \\  /    A nd           | Web:      www.OpenFOAM.org                      |
|    \\/     M anipulation  |                                                 |
\*---------------------------------------------------------------------------*/
FoamFile
{
    version     2.0;
    format      ascii;
    class       surfaceScalarField;
    location    "0.18";
    object      phi;
}
// * * * * * * * * * * * * * * * * * * * * * * * * * * * * * * * * * * * * * //

dimensions      [1 0 -1 0 0 0 0];

internalField   nonuniform List<scalar> 
466
(
1.41874e-07
6.12454e-06
2.87538e-07
6.2017e-06
4.37018e-07
6.10891e-06
5.8523e-07
6.33831e-06
7.31704e-07
6.03349e-06
8.9769e-07
7.03486e-06
1.01657e-06
5.45849e-06
1.29153e-06
1.00084e-05
1.29494e-06
3.386e-06
1.82291e-05
1.46863e-07
5.96996e-06
2.97633e-07
6.04916e-06
4.52134e-07
5.95236e-06
6.05941e-07
6.18305e-06
7.57457e-07
5.88004e-06
9.30967e-07
6.86174e-06
1.05422e-06
5.33337e-06
1.34054e-06
9.72754e-06
1.34781e-06
3.38385e-06
1.74007e-05
-1.47176e-06
7.14331e-06
-1.28905e-06
7.9193e-06
-1.10588e-06
6.05495e-06
-9.47371e-07
6.51135e-06
-7.90415e-07
5.78025e-06
-6.33038e-07
5.89067e-06
-4.7824e-07
5.8799e-06
-3.19573e-07
5.8014e-06
-1.64312e-07
5.87185e-06
-5.8528e-09
5.83298e-06
1.51717e-07
5.8103e-06
3.07557e-07
5.89146e-06
4.67024e-07
5.79079e-06
6.26351e-07
6.02224e-06
7.82884e-07
5.72145e-06
9.6364e-07
6.68162e-06
1.09165e-06
5.20214e-06
1.3882e-06
9.43714e-06
1.39973e-06
3.3748e-06
1.65783e-05
-1.52777e-06
6.94097e-06
-1.33511e-06
7.71123e-06
-1.14447e-06
5.86181e-06
-9.77823e-07
6.34352e-06
-8.16345e-07
5.61746e-06
-6.53481e-07
5.72669e-06
-4.93497e-07
5.71815e-06
-3.29924e-07
5.63639e-06
-1.69549e-07
5.7095e-06
-6.08443e-09
5.66775e-06
1.56462e-07
5.64561e-06
3.17347e-07
5.72868e-06
4.81744e-07
5.6242e-06
6.46525e-07
5.856e-06
8.08051e-07
5.55778e-06
9.95822e-07
6.49481e-06
1.12893e-06
5.0652e-06
1.43472e-06
9.13832e-06
1.45249e-06
3.35718e-06
1.57767e-05
-1.58311e-06
6.73761e-06
-1.38028e-06
7.49465e-06
-1.18283e-06
5.66227e-06
-1.00832e-06
6.16777e-06
-8.42261e-07
5.44999e-06
-6.73964e-07
5.55721e-06
-5.08761e-07
5.55105e-06
-3.40314e-07
5.46645e-06
-1.74814e-07
5.54192e-06
-6.38362e-09
5.4975e-06
1.61135e-07
5.4759e-06
3.27054e-07
5.56085e-06
4.96351e-07
5.45264e-06
6.66537e-07
5.68442e-06
8.33039e-07
5.38905e-06
1.02763e-06
6.30155e-06
1.16612e-06
4.92248e-06
1.48034e-06
8.83205e-06
1.50532e-06
3.33068e-06
1.49915e-05
-1.63757e-06
6.53182e-06
-1.42442e-06
7.26906e-06
-1.22103e-06
5.45725e-06
-1.03891e-06
5.98438e-06
-8.68203e-07
5.27777e-06
-6.94522e-07
5.38231e-06
-5.24056e-07
5.37859e-06
-3.50744e-07
5.29164e-06
-1.80108e-07
5.36911e-06
-6.73314e-09
5.32228e-06
1.65762e-07
5.30117e-06
3.36727e-07
5.38798e-06
5.10909e-07
5.27637e-06
6.86475e-07
5.50766e-06
8.57945e-07
5.21526e-06
1.05918e-06
6.10203e-06
1.2033e-06
4.77375e-06
1.52516e-06
8.51927e-06
1.55792e-06
3.29388e-06
1.42258e-05
-1.69136e-06
6.32238e-06
-1.46783e-06
7.0343e-06
-1.25919e-06
5.24744e-06
-1.06969e-06
5.79359e-06
-8.94229e-07
5.10069e-06
-7.15201e-07
5.20203e-06
-5.39417e-07
5.20075e-06
-3.61228e-07
5.11195e-06
-1.85435e-07
5.19107e-06
-7.10943e-09
5.14212e-06
1.70378e-07
5.1214e-06
3.46423e-07
5.21003e-06
5.25487e-07
5.09614e-06
7.06432e-07
5.32587e-06
8.82879e-07
5.0364e-06
1.09064e-06
5.89639e-06
1.24055e-06
4.61881e-06
1.5695e-06
8.20069e-06
1.61051e-06
3.24658e-06
1.348e-05
-1.74463e-06
6.10826e-06
-1.51069e-06
6.79021e-06
-1.29745e-06
5.03336e-06
-1.10076e-06
5.5956e-06
-9.20419e-07
4.91858e-06
-7.36067e-07
5.0165e-06
-5.5489e-07
5.01745e-06
-3.71789e-07
4.92746e-06
-1.90801e-07
5.00788e-06
-7.49385e-09
4.95708e-06
1.75021e-07
4.93665e-06
3.56207e-07
5.02696e-06
5.40152e-07
4.91221e-06
7.26512e-07
5.13878e-06
9.0797e-07
4.85248e-06
1.12216e-06
5.68467e-06
1.27801e-06
4.4575e-06
1.61361e-06
7.8769e-06
1.66362e-06
3.18797e-06
1.27525e-05
-1.79761e-06
5.8885e-06
-1.55359e-06
6.53701e-06
-1.33631e-06
4.81549e-06
-1.13241e-06
5.39038e-06
-9.47129e-07
4.7315e-06
-7.57304e-07
4.82553e-06
-5.70614e-07
4.82858e-06
-3.82569e-07
4.73801e-06
-1.96267e-07
4.81916e-06
-7.87274e-09
4.76685e-06
1.7974e-07
4.74665e-06
3.66209e-07
4.83861e-06
5.55128e-07
4.71889e-06
7.47021e-07
4.94556e-06
9.33579e-07
4.66332e-06
1.1541e-06
5.4677e-06
1.31581e-06
4.28987e-06
1.65778e-06
7.54855e-06
1.71722e-06
3.11717e-06
1.2043e-05
-1.85058e-06
5.66227e-06
-1.59669e-06
6.27474e-06
-1.3758e-06
4.59393e-06
-1.16454e-06
5.17775e-06
-9.7407e-07
4.5391e-06
-7.78845e-07
4.62927e-06
-5.86554e-07
4.63404e-06
-3.93435e-07
4.5436e-06
-2.01765e-07
4.62511e-06
-8.2284e-09
4.5716e-06
1.84563e-07
4.55151e-06
3.7638e-07
4.64493e-06
5.70306e-07
4.52146e-06
7.67792e-07
4.74678e-06
9.59449e-07
4.46902e-06
1.18648e-06
5.24467e-06
1.35467e-06
4.11525e-06
1.70318e-06
7.21388e-06
1.77164e-06
3.03651e-06
1.13501e-05
-1.90394e-06
5.42904e-06
-1.63995e-06
6.00302e-06
-1.41582e-06
4.36944e-06
-1.19749e-06
4.95801e-06
-1.00163e-06
4.34122e-06
-8.00927e-07
4.42755e-06
-6.02875e-07
4.43366e-06
-4.04546e-07
4.34403e-06
-2.07367e-07
4.42545e-06
-8.55374e-09
4.3711e-06
1.89536e-07
4.351e-06
3.86868e-07
4.44576e-06
5.8593e-07
4.31992e-06
7.89156e-07
4.54264e-06
9.85965e-07
4.26942e-06
1.21966e-06
5.0155e-06
1.3939e-06
3.93402e-06
1.74873e-06
6.87464e-06
1.8268e-06
2.94356e-06
1.0672e-05
-1.95819e-06
5.18859e-06
-1.6842e-06
5.72177e-06
-1.45708e-06
4.14232e-06
-1.23155e-06
4.73106e-06
-1.03006e-06
4.13766e-06
-8.23737e-07
4.22031e-06
-6.19723e-07
4.22721e-06
-4.15998e-07
4.13915e-06
-2.13119e-07
4.22002e-06
-8.83832e-09
4.1652e-06
1.94711e-07
4.14494e-06
3.97785e-07
4.24088e-06
6.0214e-07
4.11333e-06
8.11322e-07
4.33284e-06
1.01342e-06
4.06434e-06
1.25388e-06
4.78014e-06
1.43423e-06
3.74607e-06
1.79562e-06
6.53057e-06
1.88331e-06
2.83867e-06
1.0007e-05
-2.01394e-06
-1.73004e-06
-1.50002e-06
-1.26708e-06
-1.05967e-06
-8.47516e-07
-6.37281e-07
-4.27911e-07
-2.1908e-07
-9.08116e-09
2.00151e-07
3.93315e-06
4.0926e-07
4.03004e-06
6.19119e-07
3.90114e-06
8.34553e-07
4.11696e-06
1.04213e-06
3.85362e-06
1.28959e-06
4.53849e-06
1.47603e-06
3.55138e-06
1.84446e-06
6.18127e-06
1.94168e-06
2.72211e-06
9.35312e-06
2.05933e-07
4.21453e-07
6.371e-07
8.5918e-07
1.07249e-06
1.32725e-06
1.51987e-06
1.89593e-06
2.00259e-06
)
;

boundaryField
{
    fuel
    {
        type            calculated;
        value           nonuniform 0();
    }
    wall
    {
        type            calculated;
        value           nonuniform 0();
    }
    outlet
    {
        type            calculated;
        value           nonuniform List<scalar> 
25
(
1.61677e-06
1.68117e-06
1.74523e-06
1.80896e-06
1.8724e-06
1.93566e-06
1.99891e-06
2.06241e-06
2.12654e-06
2.1918e-06
2.25878e-06
2.14301e-06
2.17343e-06
2.20307e-06
2.2362e-06
2.2709e-06
2.3067e-06
2.3438e-06
2.38326e-06
2.42489e-06
2.46868e-06
2.51513e-06
2.56475e-06
2.61819e-06
2.67631e-06
)
;
    }
    frontAndBack
    {
        type            empty;
        value           nonuniform 0();
    }
    procBoundary0to1
    {
        type            processor;
        value           nonuniform List<scalar> 
21
(
4.93979e-06
5.43086e-06
3.91265e-06
4.49665e-06
3.92811e-06
4.00738e-06
4.01437e-06
3.92868e-06
4.00848e-06
3.95359e-06
9.27177e-09
3.71527e-06
3.81282e-06
3.68294e-06
3.89448e-06
3.63694e-06
4.29034e-06
3.34986e-06
5.82618e-06
2.59429e-06
8.70805e-06
)
;
    }
    procBoundary0to2
    {
        type            processor;
        value           nonuniform List<scalar> 
12
(
5.69441e-09
-7.34545e-06
-8.11886e-06
-6.24102e-06
-6.67106e-06
-5.93848e-06
-6.04918e-06
-6.03642e-06
-5.96155e-06
-6.02908e-06
5.71761e-09
-5.99326e-06
)
;
    }
    procBoundary0to3
    {
        type            processor;
        value           nonuniform List<scalar> 10(-6.27414e-06 -6.34919e-06 -6.26048e-06 -6.48807e-06 -6.18189e-06 -7.20076e-06 -5.58139e-06 -1.02784e-05 -3.3814e-06 -1.90689e-05);
    }
}


// ************************************************************************* //
