/*--------------------------------*- C++ -*----------------------------------*\
| =========                 |                                                 |
| \\      /  F ield         | OpenFOAM: The Open Source CFD Toolbox           |
|  \\    /   O peration     | Version:  dev                                   |
|   \\  /    A nd           | Web:      www.OpenFOAM.org                      |
|    \\/     M anipulation  |                                                 |
\*---------------------------------------------------------------------------*/
FoamFile
{
    version     2.0;
    format      ascii;
    class       volVectorField;
    location    "0.18";
    object      U;
}
// * * * * * * * * * * * * * * * * * * * * * * * * * * * * * * * * * * * * * //

dimensions      [0 1 -1 0 0 0 0];

internalField   nonuniform List<vector> 
250
(
(0 -0.051315 0.549547)
(0 -0.230425 0.556365)
(0 -0.326198 0.548282)
(0 -0.542952 0.568624)
(0 -0.577294 0.541484)
(0 -0.909542 0.6311)
(0 -0.744727 0.48858)
(0 -1.41378 0.892334)
(0 -0.794514 0.28961)
(0 -1.82611 1.46442)
(0 -0.0530442 0.534249)
(0 -0.237438 0.541228)
(0 -0.337094 0.532775)
(0 -0.558292 0.553236)
(0 -0.599299 0.526322)
(0 -0.931169 0.614016)
(0 -0.785637 0.476065)
(0 -1.43572 0.865809)
(0 -0.865438 0.289458)
(0 -1.86564 1.40916)
(0 1.47466 0.59738)
(0 1.28475 0.689904)
(0 1.1716 0.538435)
(0 0.979986 0.580364)
(0 0.860091 0.515768)
(0 0.677643 0.525509)
(0 0.554718 0.524454)
(0 0.373748 0.517511)
(0 0.249682 0.523708)
(0 0.0675357 0.520247)
(0 -0.0545967 0.518242)
(0 -0.24411 0.525364)
(0 -0.347485 0.516637)
(0 -0.572943 0.537081)
(0 -0.620368 0.510462)
(0 -0.951855 0.59607)
(0 -0.824781 0.462942)
(0 -1.45721 0.83812)
(0 -0.933246 0.288634)
(0 -1.90603 1.35331)
(0 1.5418 0.584068)
(0 1.32888 0.671724)
(0 1.21026 0.519753)
(0 1.00674 0.56346)
(0 0.884098 0.4993)
(0 0.696547 0.508915)
(0 0.569605 0.508053)
(0 0.383951 0.500823)
(0 0.256553 0.507262)
(0 0.0693112 0.50349)
(0 -0.0559793 0.501561)
(0 -0.250446 0.508824)
(0 -0.357365 0.499798)
(0 -0.586886 0.520218)
(0 -0.640466 0.493929)
(0 -0.971553 0.577222)
(0 -0.862109 0.449109)
(0 -1.47812 0.809294)
(0 -0.997862 0.286934)
(0 -1.94677 1.29638)
(0 1.606 0.569325)
(0 1.3703 0.652119)
(0 1.24687 0.500239)
(0 1.03266 0.545542)
(0 0.906968 0.482158)
(0 0.714784 0.491561)
(0 0.583821 0.49089)
(0 0.393762 0.483409)
(0 0.263164 0.490053)
(0 0.0710501 0.486032)
(0 -0.0572102 0.484191)
(0 -0.256449 0.491582)
(0 -0.366721 0.482265)
(0 -0.600096 0.502613)
(0 -0.659556 0.476703)
(0 -0.990209 0.557509)
(0 -0.897559 0.434531)
(0 -1.49832 0.779377)
(0 -1.05923 0.284241)
(0 -1.98722 1.23874)
(0 1.66696 0.553185)
(0 1.4088 0.631159)
(0 1.28128 0.479955)
(0 1.05759 0.526662)
(0 0.928597 0.464376)
(0 0.732237 0.47349)
(0 0.597309 0.473019)
(0 0.403108 0.465332)
(0 0.269477 0.472143)
(0 0.0727147 0.467931)
(0 -0.0582925 0.466122)
(0 -0.26212 0.473629)
(0 -0.375537 0.464051)
(0 -0.612546 0.484273)
(0 -0.677599 0.458781)
(0 -1.00777 0.536943)
(0 -0.931054 0.41919)
(0 -1.51766 0.748442)
(0 -1.11725 0.280482)
(0 -2.02681 1.18054)
(0 1.72438 0.535662)
(0 1.44424 0.608792)
(0 1.31336 0.458922)
(0 1.08139 0.506789)
(0 0.948878 0.445895)
(0 0.748782 0.454664)
(0 0.610005 0.454395)
(0 0.41191 0.446562)
(0 0.27546 0.453502)
(0 0.0742662 0.449102)
(0 -0.0592349 0.447344)
(0 -0.267458 0.454958)
(0 -0.383791 0.445217)
(0 -0.6242 0.46521)
(0 -0.694546 0.440153)
(0 -1.02416 0.51552)
(0 -0.962506 0.403065)
(0 -1.53596 0.716555)
(0 -1.17184 0.275576)
(0 -2.06503 1.12188)
(0 1.77797 0.516752)
(0 1.47646 0.584991)
(0 1.343 0.437169)
(0 1.10389 0.485948)
(0 0.967701 0.426686)
(0 0.764292 0.435075)
(0 0.621844 0.435017)
(0 0.42009 0.427076)
(0 0.281078 0.434112)
(0 0.0756678 0.429543)
(0 -0.0600427 0.42784)
(0 -0.272464 0.435565)
(0 -0.391457 0.425739)
(0 -0.635008 0.445384)
(0 -0.710343 0.420803)
(0 -1.03931 0.49322)
(0 -0.991831 0.386147)
(0 -1.55302 0.683762)
(0 -1.22287 0.269437)
(0 -2.10141 1.0626)
(0 1.82745 0.496455)
(0 1.50536 0.559773)
(0 1.3701 0.414711)
(0 1.12492 0.464155)
(0 0.984971 0.406752)
(0 0.778645 0.414728)
(0 0.632759 0.414888)
(0 0.42758 0.406879)
(0 0.286301 0.413962)
(0 0.0768859 0.409258)
(0 -0.060719 0.407605)
(0 -0.277126 0.415447)
(0 -0.398504 0.405436)
(0 -0.644927 0.424765)
(0 -0.724933 0.400731)
(0 -1.05313 0.47008)
(0 -1.01896 0.368438)
(0 -1.56862 0.650025)
(0 -1.2702 0.261976)
(0 -2.13548 1.00273)
(0 1.87256 0.474781)
(0 1.53085 0.533185)
(0 1.39453 0.391659)
(0 1.14428 0.441414)
(0 1.00056 0.386133)
(0 0.791698 0.393673)
(0 0.642682 0.394011)
(0 0.434294 0.386022)
(0 0.291092 0.393097)
(0 0.0778865 0.388296)
(0 -0.0612592 0.386691)
(0 -0.28142 0.394609)
(0 -0.404881 0.384335)
(0 -0.653902 0.403391)
(0 -0.73823 0.379985)
(0 -1.06547 0.446211)
(0 -1.0438 0.349886)
(0 -1.58253 0.615296)
(0 -1.31371 0.25325)
(0 -2.16682 0.942408)
(0 1.91304 0.451777)
(0 1.55283 0.505271)
(0 1.41617 0.368162)
(0 1.16179 0.417753)
(0 1.01436 0.364837)
(0 0.803329 0.371941)
(0 0.651539 0.372396)
(0 0.440163 0.364526)
(0 0.295422 0.371526)
(0 0.0786403 0.366665)
(0 -0.0616545 0.365124)
(0 -0.285322 0.373063)
(0 -0.410547 0.362646)
(0 -0.661872 0.381313)
(0 -0.750157 0.358594)
(0 -1.07623 0.421596)
(0 -1.06621 0.330521)
(0 -1.59451 0.579754)
(0 -1.35319 0.243287)
(0 -2.19497 0.881704)
(0 1.94863 0.427458)
(0 1.57123 0.476056)
(0 1.4349 0.344291)
(0 1.17722 0.39322)
(0 1.02625 0.342873)
(0 0.813403 0.349542)
(0 0.659257 0.350076)
(0 0.445112 0.3424)
(0 0.29926 0.349296)
(0 0.0791185 0.344422)
(0 -0.0618957 0.342887)
(0 -0.288816 0.350827)
(0 -0.415449 0.340401)
(0 -0.668762 0.358554)
(0 -0.760627 0.336561)
(0 -1.08533 0.39616)
(0 -1.08592 0.31045)
(0 -1.60438 0.543514)
(0 -1.38849 0.23206)
(0 -2.21953 0.820661)
(0 1.9791 0.401903)
(0 1.58599 0.445605)
(0 1.4506 0.320044)
(0 1.19038 0.367848)
(0 1.03612 0.320243)
(0 0.821785 0.326495)
(0 0.665757 0.327051)
(0 0.449068 0.319658)
(0 0.30257 0.326403)
(0 0.0793005 0.321568)
(0 -0.0619635 0.320042)
(0 -0.291875 0.327931)
(0 -0.419532 0.317565)
(0 -0.67449 0.33513)
(0 -0.769548 0.313912)
(0 -1.09264 0.370062)
(0 -1.1028 0.2896)
(0 -1.61185 0.506624)
(0 -1.41942 0.219556)
(0 -2.24003 0.75925)
(0 -0.0618467 0.296611)
(0 -0.294466 0.304398)
(0 -0.422737 0.294143)
(0 -0.678972 0.311047)
(0 -0.776829 0.290698)
(0 -1.09802 0.343259)
(0 -1.11674 0.268176)
(0 -1.61662 0.468976)
(0 -1.44579 0.205916)
(0 -2.25604 0.697608)
)
;

boundaryField
{
    fuel
    {
        type            fixedValue;
        value           nonuniform 0();
    }
    wall
    {
        type            slip;
    }
    outlet
    {
        type            pressureInletOutletVelocity;
        value           nonuniform List<vector> 
25
(
(0 1.47466 0.59738)
(0 1.5418 0.584068)
(0 1.606 0.569325)
(0 1.66696 0.553185)
(0 1.72438 0.535662)
(0 1.77797 0.516752)
(0 1.82745 0.496455)
(0 1.87256 0.474781)
(0 1.91304 0.451777)
(0 1.94863 0.427458)
(0 1.9791 0.401903)
(0 -1.82611 1.46442)
(0 -1.86564 1.40916)
(0 -1.90603 1.35331)
(0 -1.94677 1.29638)
(0 -1.98722 1.23874)
(0 -2.02681 1.18054)
(0 -2.06503 1.12188)
(0 -2.10141 1.0626)
(0 -2.13548 1.00273)
(0 -2.16682 0.942408)
(0 -2.19497 0.881704)
(0 -2.21953 0.820661)
(0 -2.24003 0.75925)
(0 -2.25604 0.697608)
)
;
    }
    frontAndBack
    {
        type            empty;
    }
    procBoundary0to1
    {
        type            processor;
        value           nonuniform List<vector> 
21
(
(0 2.0042 0.375116)
(0 1.59702 0.414006)
(0 1.46314 0.295485)
(0 1.20102 0.341681)
(0 1.04386 0.296993)
(0 0.828339 0.302857)
(0 0.670964 0.303373)
(0 0.451959 0.296335)
(0 0.305326 0.302867)
(0 0.0791549 0.298116)
(0 0.0791549 0.298116)
(0 -0.0615246 0.272637)
(0 -0.296558 0.28028)
(0 -0.425003 0.270204)
(0 -0.682123 0.286364)
(0 -0.782365 0.266963)
(0 -1.10133 0.315865)
(0 -1.12761 0.246165)
(0 -1.61837 0.430763)
(0 -1.46743 0.191178)
(0 -2.26707 0.635805)
)
;
    }
    procBoundary0to2
    {
        type            processor;
        value           nonuniform List<vector> 
12
(
(0 0.0640435 0.551705)
(0 1.40483 0.609135)
(0 1.23821 0.706652)
(0 1.13099 0.556173)
(0 0.952502 0.596252)
(0 0.835053 0.531596)
(0 0.658185 0.541369)
(0 0.539216 0.54015)
(0 0.36323 0.533538)
(0 0.242583 0.539471)
(0 0.0657696 0.536306)
(0 0.0657696 0.536306)
)
;
    }
    procBoundary0to3
    {
        type            processor;
        value           nonuniform List<vector> 10((0 -0.0493994 0.56422) (0 -0.223054 0.57085) (0 -0.314804 0.563119) (0 -0.526947 0.583323) (0 -0.554371 0.55601) (0 -0.887005 0.647296) (0 -0.702108 0.500576) (0 -1.39145 0.917623) (0 -0.720433 0.289104) (0 -1.78824 1.51911));
    }
}


// ************************************************************************* //
