# Probe 0 (0 0 0.0079)
#       Probe             0
#        Time
    0.0102941   1.08669e-12
    0.0105882   1.14612e-12
    0.0108824   1.20658e-12
    0.0111765   1.26804e-12
    0.0114706   1.33043e-12
    0.0117647    1.3937e-12
    0.0120588    1.4578e-12
    0.0123529   1.52268e-12
    0.0126471   1.58828e-12
    0.0129412   1.65456e-12
    0.0132353   1.72146e-12
    0.0135294   1.78894e-12
    0.0138235   1.85695e-12
    0.0141176   1.92543e-12
    0.0144118   1.99435e-12
    0.0147059   2.06365e-12
        0.015    2.1333e-12
    0.0152941   2.20324e-12
    0.0155882   2.27344e-12
    0.0158824   2.34385e-12
    0.0161765   2.41443e-12
    0.0164706   2.48515e-12
    0.0167647   2.55595e-12
    0.0170588   2.62682e-12
    0.0173529   2.69769e-12
    0.0176471   2.76855e-12
    0.0179412   2.83936e-12
    0.0182353   2.91007e-12
    0.0185294   2.98067e-12
    0.0188235   3.05111e-12
    0.0191176   3.12136e-12
    0.0194118    3.1914e-12
    0.0197059    3.2612e-12
         0.02   3.33072e-12
    0.0202941   3.39995e-12
    0.0205882   3.46885e-12
    0.0208824   3.53739e-12
    0.0211765   3.60557e-12
    0.0214706   3.67335e-12
    0.0217647   3.74071e-12
    0.0220588   3.80763e-12
    0.0223529   3.87409e-12
    0.0226471   3.94007e-12
    0.0229412   4.00555e-12
    0.0232353   4.07052e-12
    0.0235294   4.13496e-12
    0.0238235   4.19886e-12
    0.0241176   4.26219e-12
    0.0244118   4.32495e-12
    0.0247059   4.38712e-12
        0.025   4.44869e-12
    0.0252941   4.50965e-12
    0.0255882   4.56999e-12
    0.0258824    4.6297e-12
    0.0261765   4.68877e-12
    0.0264706   4.74719e-12
    0.0267647   4.80495e-12
    0.0270588   4.86205e-12
    0.0273529   4.91847e-12
    0.0276471   4.97422e-12
    0.0279412   5.02929e-12
    0.0282353   5.08367e-12
    0.0285294   5.13736e-12
    0.0288235   5.19035e-12
    0.0291176   5.24265e-12
    0.0294118   5.29425e-12
    0.0297059   5.34515e-12
         0.03   5.39534e-12
    0.0302941   5.44483e-12
    0.0305882   5.49362e-12
    0.0308824    5.5417e-12
    0.0311765   5.58908e-12
    0.0314706   5.63576e-12
    0.0317647   5.68174e-12
    0.0320588   5.72702e-12
    0.0323529    5.7716e-12
    0.0326471   5.81549e-12
    0.0329412   5.85869e-12
    0.0332353   5.90121e-12
    0.0335294   5.94304e-12
    0.0338235   5.98419e-12
    0.0341176   6.02466e-12
    0.0344118   6.06447e-12
    0.0347059   6.10361e-12
        0.035   6.14209e-12
    0.0352941   6.17992e-12
    0.0355882   6.21709e-12
    0.0358824   6.25362e-12
    0.0361765   6.28951e-12
    0.0364706   6.32477e-12
    0.0367647    6.3594e-12
    0.0370588   6.39341e-12
    0.0373529   6.42681e-12
    0.0376471    6.4596e-12
    0.0379412   6.49178e-12
    0.0382353   6.52337e-12
    0.0385294   6.55438e-12
    0.0388235    6.5848e-12
    0.0391176   6.61464e-12
    0.0394118   6.64391e-12
    0.0397059   6.67263e-12
         0.04   6.70078e-12
    0.0402941   6.72839e-12
    0.0405882   6.75545e-12
    0.0408824   6.78198e-12
    0.0411765   6.80798e-12
    0.0414706   6.83346e-12
    0.0417647   6.85842e-12
    0.0420588   6.88288e-12
    0.0423529   6.90683e-12
    0.0426471   6.93029e-12
    0.0429412   6.95326e-12
    0.0432353   6.97576e-12
    0.0435294   6.99777e-12
    0.0438235   7.01932e-12
    0.0441176   7.04041e-12
    0.0444118   7.06105e-12
    0.0447059   7.08124e-12
        0.045   7.10099e-12
    0.0452941    7.1203e-12
    0.0455882   7.13919e-12
    0.0458824   7.15766e-12
    0.0461765   7.17572e-12
    0.0464706   7.19337e-12
    0.0467647   7.21062e-12
    0.0470588   7.22747e-12
    0.0473529   7.24394e-12
    0.0476471   7.26003e-12
    0.0479412   7.27575e-12
    0.0482353    7.2911e-12
    0.0485294   7.30608e-12
    0.0488235   7.32072e-12
    0.0491176     7.335e-12
    0.0494118   7.34895e-12
    0.0497059   7.36255e-12
         0.05   7.37583e-12
    0.0502941   7.38879e-12
    0.0505882   7.40142e-12
    0.0508824   7.41375e-12
    0.0511765   7.42577e-12
    0.0514706   7.43749e-12
    0.0517647   7.44892e-12
    0.0520588   7.46006e-12
    0.0523529   7.47092e-12
    0.0526471    7.4815e-12
    0.0529412   7.49181e-12
    0.0532353   7.50186e-12
    0.0535294   7.51165e-12
    0.0538235   7.52118e-12
    0.0541176   7.53046e-12
    0.0544118    7.5395e-12
    0.0547059    7.5483e-12
        0.055   7.55687e-12
    0.0552941   7.56521e-12
    0.0555882   7.57333e-12
    0.0558824   7.58122e-12
    0.0561765   7.58891e-12
    0.0564706   7.59639e-12
    0.0567647   7.60366e-12
    0.0570588   7.61073e-12
    0.0573529   7.61761e-12
    0.0576471    7.6243e-12
    0.0579412    7.6308e-12
    0.0582353   7.63712e-12
    0.0585294   7.64327e-12
    0.0588235   7.64924e-12
    0.0591176   7.65505e-12
    0.0594118   7.66069e-12
    0.0597059   7.66617e-12
         0.06   7.67149e-12
    0.0602941   7.67666e-12
    0.0605882   7.68169e-12
    0.0608824   7.68656e-12
    0.0611765    7.6913e-12
    0.0614706    7.6959e-12
    0.0617647   7.70037e-12
    0.0620588    7.7047e-12
    0.0623529   7.70891e-12
    0.0626471     7.713e-12
    0.0629412   7.71697e-12
    0.0632353   7.72082e-12
    0.0635294   7.72455e-12
    0.0638235   7.72818e-12
    0.0641176   7.73169e-12
    0.0644118   7.73511e-12
    0.0647059   7.73842e-12
        0.065   7.74163e-12
    0.0652941   7.74475e-12
    0.0655882   7.74777e-12
    0.0658824   7.75071e-12
    0.0661765   7.75355e-12
    0.0664706   7.75631e-12
    0.0667647   7.75899e-12
    0.0670588   7.76159e-12
    0.0673529   7.76411e-12
    0.0676471   7.76656e-12
    0.0679412   7.76893e-12
    0.0682353   7.77123e-12
    0.0685294   7.77346e-12
    0.0688235   7.77563e-12
    0.0691176   7.77773e-12
    0.0694118   7.77977e-12
    0.0697059   7.78175e-12
         0.07   7.78367e-12
    0.0702941   7.78554e-12
    0.0705882   7.78735e-12
    0.0708824   7.78911e-12
    0.0711765   7.79081e-12
    0.0714706   7.79247e-12
    0.0717647   7.79408e-12
    0.0720588   7.79565e-12
    0.0723529   7.79716e-12
    0.0726471   7.79864e-12
    0.0729412   7.80008e-12
    0.0732353   7.80147e-12
    0.0735294   7.80283e-12
    0.0738235   7.80415e-12
    0.0741176   7.80543e-12
    0.0744118   7.80668e-12
    0.0747059    7.8079e-12
        0.075   7.80909e-12
    0.0752941   7.81024e-12
    0.0755882   7.81137e-12
    0.0758824   7.81246e-12
    0.0761765   7.81353e-12
    0.0764706   7.81458e-12
    0.0767647    7.8156e-12
    0.0770588   7.81659e-12
    0.0773529   7.81756e-12
    0.0776471   7.81851e-12
    0.0779412   7.81944e-12
    0.0782353   7.82035e-12
    0.0785294   7.82124e-12
    0.0788235   7.82211e-12
    0.0791176   7.82297e-12
    0.0794118    7.8238e-12
    0.0797059   7.82463e-12
         0.08   7.82543e-12
    0.0802941   7.82623e-12
    0.0805882   7.82701e-12
    0.0808824   7.82777e-12
    0.0811765   7.82853e-12
    0.0814706   7.82927e-12
    0.0817647   7.83001e-12
    0.0820588   7.83073e-12
    0.0823529   7.83145e-12
    0.0826471   7.83215e-12
    0.0829412   7.83285e-12
    0.0832353   7.83354e-12
    0.0835294   7.83423e-12
    0.0838235   7.83491e-12
    0.0841176   7.83559e-12
    0.0844118   7.83626e-12
    0.0847059   7.83693e-12
        0.085   7.83759e-12
    0.0852941   7.83826e-12
    0.0855882   7.83892e-12
    0.0858824   7.83958e-12
    0.0861765   7.84024e-12
    0.0864706    7.8409e-12
    0.0867647   7.84156e-12
    0.0870588   7.84222e-12
    0.0873529   7.84289e-12
    0.0876471   7.84356e-12
    0.0879412   7.84423e-12
    0.0882353    7.8449e-12
    0.0885294   7.84559e-12
    0.0888235   7.84627e-12
    0.0891176   7.84697e-12
    0.0894118   7.84767e-12
    0.0897059   7.84838e-12
         0.09   7.84909e-12
    0.0902941   7.84982e-12
    0.0905882   7.85055e-12
    0.0908824    7.8513e-12
    0.0911765   7.85206e-12
    0.0914706   7.85283e-12
    0.0917647   7.85361e-12
    0.0920588   7.85441e-12
    0.0923529   7.85522e-12
    0.0926471   7.85605e-12
    0.0929412    7.8569e-12
    0.0932353   7.85776e-12
    0.0935294   7.85864e-12
    0.0938235   7.85953e-12
    0.0941176   7.86045e-12
    0.0944118   7.86139e-12
    0.0947059   7.86235e-12
        0.095   7.86333e-12
    0.0952941   7.86433e-12
    0.0955882   7.86536e-12
    0.0958824   7.86641e-12
    0.0961765   7.86749e-12
    0.0964706    7.8686e-12
    0.0967647   7.86973e-12
    0.0970588   7.87089e-12
    0.0973529   7.87208e-12
    0.0976471    7.8733e-12
    0.0979412   7.87455e-12
    0.0982353   7.87583e-12
    0.0985294   7.87714e-12
    0.0988235   7.87849e-12
    0.0991176   7.87987e-12
    0.0994118   7.88129e-12
    0.0997059   7.88274e-12
          0.1   7.88423e-12
