# Probe 0 (0 0 0.0079)
#       Probe             0
#        Time
    0.0102941   1.32946e-30
    0.0105882   1.40216e-30
    0.0108824   1.47613e-30
    0.0111765   1.55131e-30
    0.0114706   1.62763e-30
    0.0117647   1.70503e-30
    0.0120588   1.78345e-30
    0.0123529   1.86282e-30
    0.0126471   1.94308e-30
    0.0129412   2.02417e-30
    0.0132353   2.10602e-30
    0.0135294   2.18857e-30
    0.0138235   2.27177e-30
    0.0141176   2.35555e-30
    0.0144118   2.43986e-30
    0.0147059   2.52465e-30
        0.015   2.60985e-30
    0.0152941   2.69541e-30
    0.0155882   2.78129e-30
    0.0158824   2.86743e-30
    0.0161765   2.95377e-30
    0.0164706   3.04028e-30
    0.0167647   3.12691e-30
    0.0170588   3.21359e-30
    0.0173529    3.3003e-30
    0.0176471   3.38699e-30
    0.0179412   3.47361e-30
    0.0182353   3.56012e-30
    0.0185294   3.64648e-30
    0.0188235   3.73266e-30
    0.0191176   3.81861e-30
    0.0194118   3.90429e-30
    0.0197059   3.98968e-30
         0.02   4.07473e-30
    0.0202941   4.15942e-30
    0.0205882   4.24371e-30
    0.0208824   4.32757e-30
    0.0211765   4.41098e-30
    0.0214706    4.4939e-30
    0.0217647    4.5763e-30
    0.0220588   4.65817e-30
    0.0223529   4.73948e-30
    0.0226471    4.8202e-30
    0.0229412   4.90031e-30
    0.0232353   4.97979e-30
    0.0235294   5.05863e-30
    0.0238235   5.13679e-30
    0.0241176   5.21427e-30
    0.0244118   5.29105e-30
    0.0247059   5.36711e-30
        0.025   5.44244e-30
    0.0252941   5.51701e-30
    0.0255882   5.59083e-30
    0.0258824   5.66388e-30
    0.0261765   5.73614e-30
    0.0264706   5.80761e-30
    0.0267647   5.87827e-30
    0.0270588   5.94812e-30
    0.0273529   6.01715e-30
    0.0276471   6.08536e-30
    0.0279412   6.15272e-30
    0.0282353   6.21925e-30
    0.0285294   6.28493e-30
    0.0288235   6.34977e-30
    0.0291176   6.41375e-30
    0.0294118   6.47687e-30
    0.0297059   6.53914e-30
         0.03   6.60054e-30
    0.0302941   6.66109e-30
    0.0305882   6.72078e-30
    0.0308824    6.7796e-30
    0.0311765   6.83756e-30
    0.0314706   6.89467e-30
    0.0317647   6.95092e-30
    0.0320588   7.00631e-30
    0.0323529   7.06085e-30
    0.0326471   7.11455e-30
    0.0329412    7.1674e-30
    0.0332353   7.21941e-30
    0.0335294   7.27058e-30
    0.0338235   7.32093e-30
    0.0341176   7.37044e-30
    0.0344118   7.41914e-30
    0.0347059   7.46703e-30
        0.035    7.5141e-30
    0.0352941   7.56037e-30
    0.0355882   7.60585e-30
    0.0358824   7.65054e-30
    0.0361765   7.69445e-30
    0.0364706   7.73759e-30
    0.0367647   7.77995e-30
    0.0370588   7.82156e-30
    0.0373529   7.86242e-30
    0.0376471   7.90253e-30
    0.0379412   7.94191e-30
    0.0382353   7.98055e-30
    0.0385294   8.01848e-30
    0.0388235   8.05569e-30
    0.0391176    8.0922e-30
    0.0394118   8.12801e-30
    0.0397059   8.16314e-30
         0.04   8.19758e-30
    0.0402941   8.23136e-30
    0.0405882   8.26447e-30
    0.0408824   8.29692e-30
    0.0411765   8.32873e-30
    0.0414706    8.3599e-30
    0.0417647   8.39044e-30
    0.0420588   8.42036e-30
    0.0423529   8.44966e-30
    0.0426471   8.47836e-30
    0.0429412   8.50646e-30
    0.0432353   8.53398e-30
    0.0435294   8.56091e-30
    0.0438235   8.58728e-30
    0.0441176   8.61308e-30
    0.0444118   8.63832e-30
    0.0447059   8.66302e-30
        0.045   8.68718e-30
    0.0452941   8.71081e-30
    0.0455882   8.73392e-30
    0.0458824   8.75651e-30
    0.0461765    8.7786e-30
    0.0464706   8.80019e-30
    0.0467647    8.8213e-30
    0.0470588   8.84192e-30
    0.0473529   8.86207e-30
    0.0476471   8.88175e-30
    0.0479412   8.90097e-30
    0.0482353   8.91975e-30
    0.0485294   8.93809e-30
    0.0488235   8.95599e-30
    0.0491176   8.97346e-30
    0.0494118   8.99052e-30
    0.0497059   9.00717e-30
         0.05   9.02341e-30
    0.0502941   9.03926e-30
    0.0505882   9.05472e-30
    0.0508824    9.0698e-30
    0.0511765   9.08451e-30
    0.0514706   9.09885e-30
    0.0517647   9.11283e-30
    0.0520588   9.12645e-30
    0.0523529   9.13974e-30
    0.0526471   9.15268e-30
    0.0529412    9.1653e-30
    0.0532353   9.17759e-30
    0.0535294   9.18956e-30
    0.0538235   9.20122e-30
    0.0541176   9.21258e-30
    0.0544118   9.22364e-30
    0.0547059    9.2344e-30
        0.055   9.24488e-30
    0.0552941   9.25509e-30
    0.0555882   9.26502e-30
    0.0558824   9.27468e-30
    0.0561765   9.28408e-30
    0.0564706   9.29323e-30
    0.0567647   9.30212e-30
    0.0570588   9.31078e-30
    0.0573529   9.31919e-30
    0.0576471   9.32737e-30
    0.0579412   9.33533e-30
    0.0582353   9.34306e-30
    0.0585294   9.35058e-30
    0.0588235   9.35789e-30
    0.0591176   9.36499e-30
    0.0594118   9.37189e-30
    0.0597059    9.3786e-30
         0.06   9.38511e-30
    0.0602941   9.39143e-30
    0.0605882   9.39758e-30
    0.0608824   9.40355e-30
    0.0611765   9.40934e-30
    0.0614706   9.41497e-30
    0.0617647   9.42044e-30
    0.0620588   9.42574e-30
    0.0623529   9.43089e-30
    0.0626471   9.43589e-30
    0.0629412   9.44074e-30
    0.0632353   9.44545e-30
    0.0635294   9.45002e-30
    0.0638235   9.45445e-30
    0.0641176   9.45876e-30
    0.0644118   9.46293e-30
    0.0647059   9.46698e-30
        0.065   9.47091e-30
    0.0652941   9.47473e-30
    0.0655882   9.47843e-30
    0.0658824   9.48202e-30
    0.0661765    9.4855e-30
    0.0664706   9.48888e-30
    0.0667647   9.49215e-30
    0.0670588   9.49533e-30
    0.0673529   9.49842e-30
    0.0676471   9.50141e-30
    0.0679412   9.50431e-30
    0.0682353   9.50713e-30
    0.0685294   9.50986e-30
    0.0688235   9.51251e-30
    0.0691176   9.51508e-30
    0.0694118   9.51758e-30
    0.0697059      9.52e-30
         0.07   9.52235e-30
    0.0702941   9.52463e-30
    0.0705882   9.52684e-30
    0.0708824   9.52899e-30
    0.0711765   9.53108e-30
    0.0714706   9.53311e-30
    0.0717647   9.53508e-30
    0.0720588   9.53699e-30
    0.0723529   9.53885e-30
    0.0726471   9.54066e-30
    0.0729412   9.54242e-30
    0.0732353   9.54412e-30
    0.0735294   9.54578e-30
    0.0738235    9.5474e-30
    0.0741176   9.54897e-30
    0.0744118    9.5505e-30
    0.0747059   9.55199e-30
        0.075   9.55344e-30
    0.0752941   9.55485e-30
    0.0755882   9.55623e-30
    0.0758824   9.55757e-30
    0.0761765   9.55888e-30
    0.0764706   9.56016e-30
    0.0767647    9.5614e-30
    0.0770588   9.56262e-30
    0.0773529   9.56381e-30
    0.0776471   9.56497e-30
    0.0779412   9.56611e-30
    0.0782353   9.56722e-30
    0.0785294   9.56831e-30
    0.0788235   9.56937e-30
    0.0791176   9.57042e-30
    0.0794118   9.57144e-30
    0.0797059   9.57245e-30
         0.08   9.57344e-30
    0.0802941   9.57441e-30
    0.0805882   9.57536e-30
    0.0808824    9.5763e-30
    0.0811765   9.57722e-30
    0.0814706   9.57813e-30
    0.0817647   9.57903e-30
    0.0820588   9.57992e-30
    0.0823529   9.58079e-30
    0.0826471   9.58166e-30
    0.0829412   9.58251e-30
    0.0832353   9.58336e-30
    0.0835294    9.5842e-30
    0.0838235   9.58503e-30
    0.0841176   9.58586e-30
    0.0844118   9.58668e-30
    0.0847059    9.5875e-30
        0.085   9.58831e-30
    0.0852941   9.58912e-30
    0.0855882   9.58993e-30
    0.0858824   9.59074e-30
    0.0861765   9.59155e-30
    0.0864706   9.59235e-30
    0.0867647   9.59316e-30
    0.0870588   9.59398e-30
    0.0873529   9.59479e-30
    0.0876471   9.59561e-30
    0.0879412   9.59643e-30
    0.0882353   9.59726e-30
    0.0885294   9.59809e-30
    0.0888235   9.59893e-30
    0.0891176   9.59978e-30
    0.0894118   9.60064e-30
    0.0897059    9.6015e-30
         0.09   9.60238e-30
    0.0902941   9.60327e-30
    0.0905882   9.60417e-30
    0.0908824   9.60508e-30
    0.0911765   9.60601e-30
    0.0914706   9.60695e-30
    0.0917647   9.60791e-30
    0.0920588   9.60889e-30
    0.0923529   9.60988e-30
    0.0926471   9.61089e-30
    0.0929412   9.61193e-30
    0.0932353   9.61298e-30
    0.0935294   9.61405e-30
    0.0938235   9.61515e-30
    0.0941176   9.61627e-30
    0.0944118   9.61742e-30
    0.0947059   9.61859e-30
        0.095    9.6198e-30
    0.0952941   9.62102e-30
    0.0955882   9.62228e-30
    0.0958824   9.62357e-30
    0.0961765   9.62489e-30
    0.0964706   9.62624e-30
    0.0967647   9.62762e-30
    0.0970588   9.62904e-30
    0.0973529    9.6305e-30
    0.0976471   9.63199e-30
    0.0979412   9.63352e-30
    0.0982353   9.63509e-30
    0.0985294    9.6367e-30
    0.0988235   9.63835e-30
    0.0991176   9.64004e-30
    0.0994118   9.64177e-30
    0.0997059   9.64355e-30
          0.1   9.64537e-30
