# Probe 0 (0 0 0)
# Probe 1 (0 0 0.001)
# Probe 2 (0 0 0.002)
# Probe 3 (0 0 0.003)
# Probe 4 (0 0 0.004)
# Probe 5 (0 0 0.005)
# Probe 6 (0 0 0.006)
# Probe 7 (0 0 0.007)
# Probe 8 (0 0 0.008)
#       Probe             0             1             2             3             4             5             6             7             8
#        Time
    0.0102941   1.10628e-09   1.06059e-09   1.11016e-09   1.04426e-09   1.21296e-09   9.31372e-10   1.52058e-09   3.89101e-09    9.3206e-10
    0.0105882   1.10626e-09   1.06108e-09   1.10873e-09   1.04504e-09   1.20927e-09   9.31293e-10    1.5149e-09   3.87917e-09   9.32003e-10
    0.0108824   1.10625e-09   1.06155e-09   1.10681e-09   1.04578e-09   1.20582e-09    9.3122e-10   1.51046e-09   3.86843e-09   9.31949e-10
    0.0111765   1.10624e-09     1.062e-09   1.10529e-09   1.04649e-09   1.20255e-09    9.3115e-10   1.50658e-09   3.85829e-09   9.31898e-10
    0.0114706   1.10623e-09   1.06244e-09   1.10457e-09   1.04717e-09   1.19945e-09   9.31084e-10   1.50288e-09   3.84857e-09    9.3185e-10
    0.0117647   1.10623e-09   1.06286e-09   1.10391e-09   1.04781e-09   1.19651e-09   9.31022e-10    1.4993e-09   3.83915e-09   9.31804e-10
    0.0120588   1.10622e-09   1.06326e-09   1.10331e-09   1.04843e-09    1.1937e-09   9.30964e-10   1.49584e-09   3.82995e-09   9.31761e-10
    0.0123529   1.10621e-09   1.06365e-09   1.10277e-09   1.04902e-09   1.19103e-09   9.30908e-10   1.49248e-09   3.82091e-09    9.3172e-10
    0.0126471    1.1062e-09   1.06403e-09   1.10227e-09   1.04959e-09   1.18848e-09   9.30855e-10    1.4892e-09   3.81202e-09   9.31681e-10
    0.0129412    1.1062e-09   1.06439e-09   1.10181e-09   1.05013e-09   1.18604e-09   9.30804e-10   1.48599e-09   3.80329e-09   9.31644e-10
    0.0132353   1.10619e-09   1.06474e-09   1.10139e-09   1.05065e-09   1.18372e-09   9.30756e-10   1.48285e-09   3.79478e-09   9.31609e-10
    0.0135294   1.10619e-09   1.06508e-09   1.10102e-09   1.05115e-09   1.18149e-09   9.30711e-10   1.47961e-09   3.78644e-09   9.31575e-10
    0.0138235   1.10618e-09   1.06541e-09   1.10068e-09   1.05163e-09   1.17936e-09   9.30667e-10   1.47631e-09   3.77822e-09   9.31543e-10
    0.0141176   1.10618e-09   1.06573e-09   1.10037e-09   1.05209e-09   1.17732e-09   9.30625e-10   1.47298e-09   3.77007e-09   9.31512e-10
    0.0144118   1.10617e-09   1.06604e-09    1.1001e-09   1.05253e-09   1.17537e-09   9.30585e-10   1.46963e-09     3.762e-09   9.31483e-10
    0.0147059   1.10617e-09   1.06633e-09   1.09987e-09   1.05296e-09   1.17349e-09   9.30547e-10   1.46631e-09   3.75404e-09   9.31455e-10
        0.015   1.10616e-09   1.06663e-09   1.09967e-09   1.05337e-09    1.1717e-09   9.30511e-10   1.46304e-09   3.74615e-09   9.31428e-10
    0.0152941   1.10616e-09   1.06691e-09    1.0995e-09   1.05377e-09   1.16997e-09   9.30475e-10   1.45985e-09   3.73837e-09   9.31402e-10
    0.0155882   1.10616e-09   1.06718e-09   1.09937e-09   1.05415e-09   1.16831e-09   9.30442e-10   1.45677e-09   3.73067e-09   9.31377e-10
    0.0158824   1.10615e-09   1.06745e-09   1.09927e-09   1.05452e-09   1.16672e-09   9.30409e-10   1.45382e-09   3.72301e-09   9.31353e-10
    0.0161765   1.10615e-09   1.06771e-09   1.09922e-09   1.05488e-09   1.16519e-09   9.30378e-10   1.45103e-09   3.71539e-09    9.3133e-10
    0.0164706   1.10615e-09   1.06796e-09   1.09919e-09   1.05522e-09   1.16372e-09   9.30348e-10   1.44847e-09   3.70783e-09   9.31307e-10
    0.0167647   1.10614e-09    1.0682e-09   1.09921e-09   1.05556e-09   1.16231e-09   9.30319e-10   1.44594e-09   3.70032e-09   9.31286e-10
    0.0170588   1.10614e-09   1.06844e-09   1.09926e-09   1.05588e-09   1.16095e-09   9.30292e-10   1.44345e-09   3.69287e-09   9.31265e-10
    0.0173529   1.10614e-09   1.06867e-09   1.09935e-09   1.05619e-09   1.15965e-09   9.30265e-10   1.44101e-09   3.68548e-09   9.31245e-10
    0.0176471   1.10614e-09    1.0689e-09   1.09947e-09    1.0565e-09   1.15839e-09   9.30239e-10   1.43859e-09   3.67814e-09   9.31226e-10
    0.0179412   1.10613e-09   1.06912e-09   1.09962e-09   1.05679e-09   1.15718e-09   9.30214e-10   1.43621e-09   3.67084e-09   9.31208e-10
    0.0182353   1.10613e-09   1.06933e-09   1.09977e-09   1.05708e-09   1.15602e-09    9.3019e-10   1.43386e-09   3.66357e-09    9.3119e-10
    0.0185294   1.10613e-09   1.06954e-09   1.09992e-09   1.05735e-09   1.15491e-09   9.30166e-10   1.43155e-09   3.65634e-09   9.31172e-10
    0.0188235   1.10613e-09   1.06975e-09   1.10004e-09   1.05762e-09   1.15383e-09   9.30144e-10   1.42927e-09   3.64915e-09   9.31156e-10
    0.0191176   1.10613e-09   1.06996e-09   1.10012e-09   1.05788e-09    1.1528e-09   9.30122e-10   1.42701e-09   3.64198e-09   9.31139e-10
    0.0194118   1.10612e-09   1.07016e-09   1.10208e-09   1.05814e-09   1.15181e-09   9.30101e-10   1.42479e-09   3.63485e-09   9.31124e-10
    0.0197059   1.10612e-09   1.07035e-09   1.10191e-09   1.05838e-09   1.15086e-09    9.3008e-10    1.4226e-09   3.62776e-09   9.31109e-10
         0.02   1.10612e-09    1.0706e-09   1.10173e-09   1.05862e-09   1.14995e-09    9.3006e-10   1.42043e-09   3.62071e-09   9.31094e-10
    0.0202941   1.10612e-09   1.07088e-09   1.10156e-09   1.05886e-09   1.14907e-09   9.30041e-10    1.4183e-09   3.61372e-09   9.31079e-10
    0.0205882   1.10612e-09   1.07105e-09    1.1014e-09   1.05908e-09   1.14823e-09   9.30022e-10   1.41618e-09   3.60678e-09   9.31065e-10
    0.0208824   1.10611e-09   1.07137e-09   1.10124e-09    1.0593e-09   1.14742e-09   9.30004e-10    1.4141e-09   3.59991e-09   9.31052e-10
    0.0211765   1.10611e-09   1.07171e-09   1.10109e-09   1.05952e-09   1.14665e-09   9.29987e-10   1.41204e-09   3.59311e-09   9.31039e-10
    0.0214706   1.10611e-09   1.07187e-09   1.10094e-09   1.05973e-09   1.14589e-09    9.2997e-10   1.41001e-09    3.5856e-09   9.31026e-10
    0.0217647   1.10611e-09   1.07203e-09   1.10079e-09   1.05993e-09   1.14515e-09   9.29953e-10     1.408e-09   3.57901e-09   9.31014e-10
    0.0220588   1.10611e-09   1.07219e-09   1.10065e-09   1.06013e-09   1.14443e-09   9.29937e-10   1.40602e-09   3.57242e-09   9.31002e-10
    0.0223529   1.10611e-09   1.07234e-09   1.10051e-09   1.06032e-09   1.14372e-09   9.29921e-10   1.40406e-09   3.56592e-09    9.3099e-10
    0.0226471   1.10611e-09   1.07249e-09   1.10037e-09   1.06051e-09   1.14303e-09   9.29906e-10   1.40212e-09   3.55942e-09   9.30978e-10
    0.0229412   1.10611e-09   1.07263e-09   1.10024e-09    1.0607e-09   1.14234e-09   9.29891e-10   1.40021e-09   3.55298e-09   9.30967e-10
    0.0232353    1.1061e-09   1.07278e-09   1.10011e-09   1.06088e-09   1.14168e-09   9.29876e-10   1.39832e-09   3.54659e-09   9.30957e-10
    0.0235294    1.1061e-09   1.07292e-09   1.09999e-09   1.06105e-09   1.14102e-09   9.29862e-10   1.39645e-09   3.54025e-09   9.30946e-10
    0.0238235    1.1061e-09   1.07306e-09   1.09987e-09   1.06123e-09   1.14038e-09   9.29848e-10   1.39461e-09   3.53394e-09   9.30936e-10
    0.0241176    1.1061e-09   1.07319e-09   1.09975e-09   1.06139e-09   1.13975e-09   9.29835e-10   1.39278e-09   3.52766e-09   9.30926e-10
    0.0244118    1.1061e-09   1.07333e-09   1.09963e-09   1.06156e-09   1.13913e-09   9.29822e-10   1.39098e-09   3.52141e-09   9.30916e-10
    0.0247059    1.1061e-09   1.07346e-09   1.09952e-09   1.06172e-09   1.13853e-09   9.29809e-10   1.38919e-09   3.51518e-09   9.30906e-10
        0.025    1.1061e-09   1.07358e-09   1.09941e-09   1.06187e-09   1.13793e-09   9.29797e-10   1.38742e-09   3.50896e-09   9.30897e-10
    0.0252941    1.1061e-09   1.07371e-09    1.0993e-09   1.06203e-09   1.13734e-09   9.29784e-10   1.38568e-09   3.50284e-09   9.30888e-10
    0.0255882    1.1061e-09   1.07383e-09    1.0992e-09   1.06218e-09   1.13677e-09   9.29773e-10   1.38395e-09   3.49673e-09   9.30879e-10
    0.0258824   1.10609e-09   1.07395e-09   1.09909e-09   1.06232e-09   1.13621e-09   9.29761e-10   1.38225e-09   3.49063e-09   9.30871e-10
    0.0261765   1.10609e-09   1.07407e-09   1.09899e-09   1.06247e-09   1.13565e-09    9.2975e-10   1.38056e-09   3.48455e-09   9.30862e-10
    0.0264706   1.10609e-09   1.07419e-09   1.09889e-09   1.06261e-09   1.13511e-09   9.29739e-10   1.37889e-09   3.47848e-09   9.30854e-10
    0.0267647   1.10609e-09    1.0743e-09    1.0988e-09   1.06274e-09   1.13457e-09   9.29728e-10   1.37724e-09   3.47254e-09   9.30846e-10
    0.0270588   1.10609e-09   1.07442e-09    1.0987e-09   1.06288e-09   1.13405e-09   9.29717e-10   1.37561e-09   3.46662e-09   9.30838e-10
    0.0273529   1.10609e-09   1.07453e-09   1.09861e-09   1.06301e-09   1.13353e-09   9.29707e-10     1.374e-09   3.46072e-09    9.3083e-10
    0.0276471   1.10609e-09   1.07464e-09   1.09852e-09   1.06314e-09   1.13302e-09   9.29697e-10    1.3724e-09   3.45482e-09   9.30823e-10
    0.0279412   1.10609e-09   1.07474e-09   1.09843e-09   1.06326e-09   1.13252e-09   9.29687e-10   1.37081e-09   3.44895e-09   9.30815e-10
    0.0282353   1.10609e-09   1.07485e-09   1.09835e-09   1.06339e-09   1.13203e-09   9.29677e-10   1.36925e-09   3.44309e-09   9.30808e-10
    0.0285294   1.10609e-09   1.07495e-09   1.09826e-09   1.06351e-09   1.13154e-09   9.29668e-10    1.3677e-09   3.43724e-09   9.30801e-10
    0.0288235   1.10609e-09   1.07505e-09   1.09818e-09   1.06363e-09   1.13107e-09   9.29658e-10   1.36617e-09   3.43141e-09   9.30794e-10
    0.0291176   1.10609e-09   1.07515e-09    1.0981e-09   1.06375e-09    1.1306e-09   9.49651e-10   1.36465e-09   3.42561e-09   9.30787e-10
    0.0294118   1.10609e-09   1.07525e-09   1.09802e-09   1.06386e-09   1.13014e-09   9.50399e-10   1.36315e-09   3.41982e-09   9.30781e-10
    0.0297059   1.10608e-09   1.07535e-09   1.09794e-09   1.06397e-09   1.12968e-09   9.51224e-10   1.36166e-09   3.41405e-09   9.30774e-10
         0.03   1.10608e-09   1.07545e-09   1.09787e-09   1.06408e-09   1.12924e-09   9.52107e-10   1.36019e-09    3.4083e-09   9.30768e-10
    0.0302941   1.10608e-09   1.07554e-09   1.09779e-09   1.06419e-09    1.1288e-09    9.5303e-10   1.35873e-09   3.40258e-09   9.30761e-10
    0.0305882   1.10608e-09   1.07563e-09   1.09772e-09    1.0643e-09   1.12836e-09   9.53977e-10   1.35729e-09   3.39688e-09   9.30755e-10
    0.0308824   1.10608e-09   1.07572e-09   1.09764e-09    1.0644e-09   1.12794e-09   9.54938e-10   1.35586e-09    3.3912e-09   9.30749e-10
    0.0311765   1.10608e-09   1.07581e-09   1.09757e-09    1.0645e-09   1.12752e-09   9.55906e-10   1.35444e-09   3.38555e-09   9.30743e-10
    0.0314706   1.10608e-09    1.0759e-09    1.0975e-09    1.0646e-09    1.1271e-09   9.56874e-10   1.35298e-09   3.37992e-09   9.30738e-10
    0.0317647   1.10608e-09   1.07599e-09   1.09744e-09    1.0647e-09   1.12669e-09   9.57839e-10   1.35151e-09   3.37432e-09   9.30732e-10
    0.0320588   1.10608e-09   1.07607e-09   1.09737e-09    1.0648e-09   1.12629e-09   9.58797e-10   1.35002e-09   3.36874e-09   9.30726e-10
    0.0323529   1.10608e-09   1.07616e-09    1.0973e-09   1.06489e-09    1.1259e-09   9.59747e-10   1.34852e-09   3.36319e-09   9.30721e-10
    0.0326471   1.10608e-09   1.07624e-09   1.09724e-09   1.06499e-09   1.12551e-09   9.60687e-10     1.347e-09   3.35767e-09   9.30715e-10
    0.0329412   1.10608e-09   1.07632e-09   1.09718e-09   1.06508e-09   1.12512e-09   9.61616e-10   1.34547e-09   3.35217e-09    9.3071e-10
    0.0332353   1.10608e-09   1.07641e-09   1.09711e-09   1.06517e-09   1.12474e-09   9.62533e-10   1.34393e-09   3.34636e-09   9.30705e-10
    0.0335294   1.10608e-09   1.07649e-09   1.09705e-09   1.06526e-09   1.12437e-09   9.63439e-10   1.34239e-09   3.34092e-09     9.307e-10
    0.0338235   1.10608e-09   1.07657e-09   1.09699e-09   1.06535e-09     1.124e-09   9.64332e-10   1.34085e-09    3.3355e-09   9.30695e-10
    0.0341176   1.10608e-09   1.07664e-09   1.09694e-09   1.06543e-09   1.12364e-09   9.65212e-10    1.3393e-09    3.3301e-09    9.3069e-10
    0.0344118   1.10608e-09   1.07672e-09   1.09688e-09   1.06552e-09   1.12328e-09    9.6608e-10   1.33776e-09   3.32473e-09   9.30685e-10
    0.0347059   1.10608e-09    1.0768e-09   1.09682e-09    1.0656e-09   1.12293e-09   9.66935e-10   1.33622e-09   3.31938e-09    9.3068e-10
        0.035   1.10607e-09   1.07687e-09   1.09676e-09   1.06568e-09   1.12258e-09   9.67778e-10   1.33468e-09   3.31405e-09   9.30676e-10
    0.0352941   1.10607e-09   1.07694e-09   1.09671e-09   1.06576e-09   1.12223e-09   9.68609e-10   1.33315e-09   3.30875e-09   9.30671e-10
    0.0355882   1.10607e-09   1.07702e-09   1.09666e-09   1.06584e-09    1.1219e-09   9.69427e-10   1.33162e-09   3.30347e-09   9.30667e-10
    0.0358824   1.10607e-09   1.07709e-09    1.0966e-09   1.06592e-09   1.12156e-09   9.70233e-10    1.3301e-09   3.29822e-09   9.30662e-10
    0.0361765   1.10607e-09   1.07716e-09   1.09655e-09     1.066e-09   1.12123e-09   9.71027e-10   1.32859e-09   3.29298e-09   9.49308e-10
    0.0364706   1.10607e-09   1.07723e-09    1.0965e-09   1.06607e-09   1.12091e-09   9.71809e-10   1.32709e-09   3.28777e-09   9.49867e-10
    0.0367647   1.10607e-09    1.0773e-09   1.09645e-09   1.06615e-09   1.12058e-09    9.7258e-10   1.32559e-09   3.28258e-09   9.50479e-10
    0.0370588   1.10607e-09   1.07737e-09    1.0964e-09   1.06622e-09   1.12027e-09   9.73339e-10   1.32411e-09    3.2774e-09   9.51134e-10
    0.0373529   1.10607e-09   1.07743e-09   1.09635e-09   1.06629e-09   1.11995e-09   9.74087e-10   1.32264e-09   3.27225e-09   9.51821e-10
    0.0376471   1.10607e-09    1.0775e-09    1.0963e-09   1.06636e-09   1.11964e-09   9.74824e-10   1.32118e-09   3.26712e-09   9.52533e-10
    0.0379412   1.10607e-09   1.07756e-09   1.09625e-09   1.06643e-09   1.11934e-09   9.75551e-10   1.31973e-09   3.26201e-09   9.53261e-10
    0.0382353   1.10607e-09   1.07763e-09   1.09621e-09    1.0665e-09   1.11904e-09   9.76266e-10    1.3183e-09   3.25691e-09      9.54e-10
    0.0385294   1.10607e-09   1.07769e-09   1.09616e-09   1.06657e-09   1.11874e-09   9.76972e-10   1.31688e-09   3.25184e-09   9.54745e-10
    0.0388235   1.10607e-09   1.07776e-09   1.09611e-09   1.06664e-09   1.11845e-09   9.77667e-10   1.31547e-09   3.24679e-09   9.55493e-10
    0.0391176   1.10607e-09   1.07782e-09   1.09607e-09    1.0667e-09   1.11816e-09   9.78352e-10   1.31408e-09   3.24175e-09   9.56241e-10
    0.0394118   1.10607e-09   1.07789e-09   1.09603e-09   1.06677e-09   1.11787e-09   9.79027e-10    1.3127e-09   3.23673e-09   9.56987e-10
    0.0397059   1.10607e-09   1.07795e-09   1.09598e-09   1.06683e-09   1.11759e-09   9.79693e-10   1.31134e-09   3.23173e-09    9.5773e-10
         0.04   1.10607e-09     1.078e-09   1.09594e-09   1.06689e-09   1.11731e-09   9.80349e-10   1.30999e-09   3.22675e-09   9.58468e-10
    0.0402941   1.10607e-09   1.07806e-09    1.0959e-09   1.06696e-09   1.11703e-09   9.80996e-10   1.30865e-09   3.22179e-09   9.59201e-10
    0.0405882   1.10607e-09   1.07812e-09   1.09586e-09   1.06702e-09   1.11676e-09   9.81634e-10   1.30733e-09   3.21684e-09   9.59928e-10
    0.0408824   1.10607e-09   1.07818e-09   1.09582e-09   1.06708e-09   1.11649e-09   9.82263e-10   1.30602e-09   3.21191e-09   9.60649e-10
    0.0411765   1.10607e-09   1.07824e-09   1.09578e-09   1.06714e-09   1.11622e-09   9.82884e-10   1.30473e-09   3.20706e-09   9.61362e-10
    0.0414706   1.10607e-09    1.0783e-09   1.09574e-09    1.0672e-09   1.11596e-09   9.83496e-10   1.30346e-09   3.20222e-09   9.62069e-10
    0.0417647   1.10607e-09   1.07835e-09    1.0957e-09   1.06725e-09    1.1157e-09   9.84099e-10    1.3022e-09    3.1974e-09   9.62768e-10
    0.0420588   1.10607e-09   1.07841e-09   1.09566e-09   1.06731e-09   1.11544e-09   9.84695e-10   1.30095e-09   3.19259e-09   9.63459e-10
    0.0423529   1.10607e-09   1.07847e-09   1.09562e-09   1.06737e-09   1.11519e-09   9.85282e-10   1.29972e-09   3.18781e-09   9.64143e-10
    0.0426471   1.10607e-09   1.07852e-09   1.09558e-09   1.06742e-09   1.11494e-09   9.85861e-10    1.2985e-09   3.18304e-09    9.6482e-10
    0.0429412   1.10607e-09   1.07858e-09   1.09555e-09   1.06748e-09   1.11469e-09   9.86433e-10    1.2973e-09    3.1783e-09   9.65489e-10
    0.0432353   1.10607e-09   1.07863e-09   1.09551e-09   1.06753e-09   1.11444e-09   9.86997e-10   1.29611e-09   3.17356e-09    9.6615e-10
    0.0435294   1.10606e-09   1.07869e-09   1.09547e-09   1.06759e-09    1.1142e-09   9.87554e-10   1.29494e-09   3.16885e-09   9.66803e-10
    0.0438235   1.10606e-09   1.07874e-09   1.09544e-09   1.06764e-09   1.11396e-09   9.88103e-10   1.29378e-09   3.16416e-09    9.6745e-10
    0.0441176   1.10606e-09    1.0788e-09    1.0954e-09   1.06769e-09   1.11372e-09   9.88645e-10   1.29263e-09   3.15948e-09   9.68088e-10
    0.0444118   1.10606e-09   1.07885e-09   1.09537e-09   1.06774e-09   1.11349e-09    9.8918e-10    1.2915e-09   3.15483e-09    9.6872e-10
    0.0447059   1.10606e-09   1.07891e-09   1.09533e-09   1.06779e-09   1.11326e-09   9.89709e-10   1.29039e-09   3.15019e-09   9.69344e-10
        0.045   1.10606e-09   1.07896e-09    1.0953e-09   1.06784e-09   1.11303e-09    9.9023e-10   1.28929e-09   3.14557e-09    9.6996e-10
    0.0452941   1.10606e-09   1.07901e-09   1.09527e-09   1.06789e-09    1.1128e-09   9.90745e-10    1.2882e-09   3.14097e-09    9.7057e-10
    0.0455882   1.10606e-09   1.07906e-09   1.09523e-09   1.06794e-09   1.11258e-09   9.91253e-10   1.28712e-09   3.13639e-09   9.71172e-10
    0.0458824   1.10606e-09   1.07911e-09    1.0952e-09   1.06799e-09   1.11236e-09   9.91755e-10   1.28606e-09   3.13183e-09   9.71768e-10
    0.0461765   1.10606e-09   1.07916e-09   1.09517e-09   1.06804e-09   1.11214e-09   9.92251e-10   1.28501e-09   3.12728e-09   9.72356e-10
    0.0464706   1.10606e-09   1.07921e-09   1.09514e-09   1.06808e-09   1.11192e-09   9.92741e-10   1.28398e-09   3.12276e-09   9.72938e-10
    0.0467647   1.10606e-09   1.07926e-09   1.09511e-09   1.06813e-09    1.1117e-09   9.93224e-10   1.28296e-09   3.11825e-09   9.73513e-10
    0.0470588   1.10606e-09   1.07931e-09   1.09508e-09   1.06818e-09   1.11149e-09   9.93702e-10   1.28195e-09   3.11377e-09   9.74082e-10
    0.0473529   1.10606e-09   1.07936e-09   1.09505e-09   1.06822e-09   1.11128e-09   9.94174e-10   1.28095e-09    3.1093e-09   9.74644e-10
    0.0476471   1.10606e-09   1.07941e-09   1.09502e-09   1.06827e-09   1.11107e-09    9.9464e-10   1.27997e-09   3.10486e-09   9.75199e-10
    0.0479412   1.10606e-09   1.07946e-09   1.09499e-09   1.06831e-09   1.11087e-09     9.951e-10   1.27899e-09   3.10043e-09   9.75749e-10
    0.0482353   1.10606e-09    1.0795e-09   1.09496e-09   1.06836e-09   1.11066e-09   9.95555e-10   1.27804e-09   3.09602e-09   9.76292e-10
    0.0485294   1.10606e-09   1.07954e-09   1.09493e-09    1.0684e-09   1.11046e-09   9.96005e-10   1.27709e-09   3.09164e-09   9.76829e-10
    0.0488235   1.10606e-09   1.07958e-09    1.0949e-09   1.06844e-09   1.11026e-09   9.96449e-10   1.27615e-09   3.08727e-09    9.7736e-10
    0.0491176   1.10606e-09   1.07963e-09   1.09487e-09   1.06848e-09   1.11007e-09   9.96888e-10   1.27523e-09   3.08292e-09   9.77885e-10
    0.0494118   1.10606e-09   1.07967e-09   1.09484e-09   1.06853e-09   1.10987e-09   9.97322e-10   1.27432e-09   3.07859e-09   9.78404e-10
    0.0497059   1.10606e-09   1.07972e-09   1.09481e-09   1.06857e-09   1.10968e-09    9.9775e-10   1.27341e-09   3.07429e-09   9.78917e-10
         0.05   1.10606e-09   1.07977e-09   1.09479e-09   1.06861e-09   1.10949e-09   9.98174e-10   1.27252e-09      3.07e-09   9.79425e-10
    0.0502941   1.10606e-09   1.07981e-09   1.09476e-09   1.06865e-09    1.1093e-09   9.98593e-10   1.27165e-09   3.06573e-09   9.79927e-10
    0.0505882   1.10606e-09   1.07986e-09   1.09473e-09   1.06869e-09   1.10911e-09   9.99007e-10   1.27078e-09   3.06149e-09   9.80424e-10
    0.0508824   1.10606e-09    1.0799e-09   1.09471e-09   1.06873e-09   1.10892e-09   9.99416e-10   1.26992e-09   3.05726e-09   9.80915e-10
    0.0511765   1.10606e-09   1.07995e-09   1.09468e-09   1.06877e-09   1.10874e-09   9.99821e-10   1.26907e-09   3.05305e-09   9.81401e-10
    0.0514706   1.10606e-09   1.07999e-09   1.09466e-09    1.0688e-09   1.10856e-09   1.00022e-09   1.26824e-09   3.04887e-09   9.81881e-10
    0.0517647   1.10606e-09   1.08003e-09   1.09463e-09   1.06884e-09   1.10838e-09   1.00062e-09   1.26741e-09   3.04471e-09   9.82357e-10
    0.0520588   1.10606e-09   1.08008e-09   1.09461e-09   1.06888e-09    1.1082e-09   1.00101e-09   1.26659e-09   3.04056e-09   9.82827e-10
    0.0523529   1.10606e-09   1.08011e-09   1.09458e-09   1.06892e-09   1.10802e-09    1.0014e-09   1.26579e-09   3.03644e-09   9.83292e-10
    0.0526471   1.10606e-09   1.08016e-09   1.09456e-09   1.06895e-09   1.10785e-09   1.00178e-09   1.26499e-09   3.03248e-09   9.83753e-10
    0.0529412   1.10606e-09    1.0802e-09   1.09453e-09   1.06899e-09   1.10767e-09   1.00216e-09    1.2642e-09   3.02856e-09   9.84208e-10
    0.0532353   1.10606e-09   1.08025e-09   1.09451e-09   1.06903e-09    1.1075e-09   1.00253e-09   1.26342e-09   3.02466e-09   9.84659e-10
    0.0535294   1.10606e-09   1.08028e-09   1.09448e-09   1.06906e-09   1.10733e-09    1.0029e-09   1.26266e-09   3.02075e-09   9.85105e-10
    0.0538235   1.10606e-09   1.08033e-09   1.09446e-09    1.0691e-09   1.10716e-09   1.00327e-09    1.2619e-09   3.01682e-09   9.85547e-10
    0.0541176   1.10606e-09   1.08036e-09   1.09444e-09   1.06913e-09     1.107e-09   1.00363e-09   1.26114e-09   3.01292e-09   9.85983e-10
    0.0544118   1.10606e-09   1.08041e-09   1.09441e-09   1.06917e-09   1.10683e-09   1.00399e-09    1.2604e-09   3.00904e-09   9.86416e-10
    0.0547059   1.10606e-09   1.08044e-09   1.09439e-09    1.0692e-09   1.10667e-09   1.00434e-09   1.25967e-09    3.0052e-09   9.86844e-10
        0.055   1.10606e-09   1.08047e-09   1.09437e-09   1.06924e-09   1.10651e-09   1.00469e-09   1.25895e-09   3.00124e-09   9.87267e-10
    0.0552941   1.10606e-09   1.08051e-09   1.09435e-09   1.06927e-09   1.10634e-09   1.00504e-09   1.25823e-09   2.99705e-09   9.87687e-10
    0.0555882   1.10606e-09   1.08055e-09   1.09432e-09    1.0693e-09   1.10619e-09   1.00539e-09   1.25752e-09   2.99265e-09   9.88102e-10
    0.0558824   1.10606e-09   1.08059e-09    1.0943e-09   1.06933e-09   1.10603e-09   1.00573e-09   1.25682e-09   2.98805e-09   9.88512e-10
    0.0561765   1.10606e-09   1.08062e-09   1.09428e-09   1.06937e-09   1.10587e-09   1.00606e-09   1.25613e-09   2.98328e-09   9.88919e-10
    0.0564706   1.10606e-09   1.08067e-09   1.09426e-09    1.0694e-09   1.10572e-09   1.00639e-09   1.25545e-09   2.97834e-09   9.89322e-10
    0.0567647   1.10606e-09    1.0807e-09   1.09424e-09   1.06943e-09   1.10556e-09   1.00672e-09   1.25477e-09   2.97325e-09    9.8972e-10
    0.0570588   1.10606e-09   1.08074e-09   1.09422e-09   1.06946e-09   1.10541e-09   1.00705e-09    1.2541e-09   2.96804e-09   9.90115e-10
    0.0573529   1.10606e-09   1.08078e-09    1.0942e-09   1.06949e-09   1.10526e-09   1.00737e-09   1.25344e-09    2.9627e-09   9.90506e-10
    0.0576471   1.10606e-09   1.08081e-09   1.09418e-09   1.06952e-09   1.10511e-09   1.00769e-09   1.25279e-09   2.95725e-09   9.90893e-10
    0.0579412   1.10606e-09   1.08086e-09   1.09416e-09   1.06956e-09   1.10496e-09   1.00801e-09   1.25214e-09    2.9517e-09   9.91276e-10
    0.0582353   1.10605e-09   1.08089e-09   1.09414e-09   1.06959e-09   1.10482e-09   1.00832e-09    1.2515e-09   2.94607e-09   9.91656e-10
    0.0585294   1.10605e-09   1.08092e-09   1.09412e-09   1.06962e-09   1.10467e-09   1.00863e-09   1.25087e-09   2.94036e-09   9.92032e-10
    0.0588235   1.10605e-09   1.08095e-09    1.0941e-09   1.06965e-09   1.10453e-09   1.00894e-09   1.25024e-09   2.93458e-09   9.92404e-10
    0.0591176   1.10605e-09   1.08099e-09   1.09408e-09   1.06967e-09   1.10439e-09   1.00925e-09   1.24962e-09   2.92874e-09   9.92773e-10
    0.0594118   1.10605e-09   1.08102e-09   1.09406e-09    1.0697e-09   1.10424e-09   1.00955e-09   1.24901e-09   2.92285e-09   9.93138e-10
    0.0597059   1.10605e-09   1.08106e-09   1.09404e-09   1.06973e-09    1.1041e-09   1.00984e-09   1.24841e-09   2.91691e-09     9.935e-10
         0.06   1.10605e-09   1.08109e-09   1.09402e-09   1.06976e-09   1.10396e-09   1.01014e-09   1.24781e-09   2.91094e-09   9.93858e-10
    0.0602941   1.10605e-09   1.08112e-09     1.094e-09   1.06979e-09   1.10383e-09   1.01043e-09   1.24721e-09   2.90494e-09   9.94213e-10
    0.0605882   1.10605e-09   1.08116e-09   1.09398e-09   1.06982e-09   1.10369e-09   1.01072e-09   1.24661e-09   2.89892e-09   9.94565e-10
    0.0608824   1.10605e-09    1.0812e-09   1.09397e-09   1.06984e-09   1.10355e-09   1.01101e-09   1.24602e-09   2.89287e-09   9.94913e-10
    0.0611765   1.10605e-09   1.08122e-09   1.09395e-09   1.06987e-09   1.10342e-09   1.01129e-09   1.24544e-09   2.88681e-09   9.95258e-10
    0.0614706   1.10605e-09   1.08127e-09   1.09393e-09    1.0699e-09   1.10329e-09   1.01158e-09   1.24486e-09   2.88075e-09     9.956e-10
    0.0617647   1.10605e-09   1.08131e-09   1.09391e-09   1.06993e-09   1.10315e-09   1.01185e-09   1.24428e-09   2.87468e-09   9.95939e-10
    0.0620588   1.10605e-09   1.08135e-09   1.09389e-09   1.06995e-09   1.10302e-09   1.01213e-09   1.24371e-09   2.86861e-09   9.96275e-10
    0.0623529   1.10605e-09   1.08139e-09   1.09388e-09   1.06998e-09   1.10289e-09    1.0124e-09   1.24314e-09   2.86254e-09   9.96608e-10
    0.0626471   1.10605e-09   1.08143e-09   1.09386e-09   1.07001e-09   1.10276e-09   1.01268e-09   1.24257e-09   2.85648e-09   9.96937e-10
    0.0629412   1.10605e-09   1.08147e-09   1.09384e-09   1.07003e-09   1.10264e-09   1.01294e-09   1.24201e-09   2.85043e-09   9.97264e-10
    0.0632353   1.10605e-09   1.08149e-09   1.09382e-09   1.07006e-09   1.10251e-09   1.01321e-09   1.24144e-09   2.84439e-09   9.97588e-10
    0.0635294   1.10605e-09   1.08153e-09   1.09381e-09   1.07008e-09   1.10238e-09   1.01347e-09   1.24089e-09   2.83837e-09   9.97909e-10
    0.0638235   1.10605e-09   1.08157e-09   1.09379e-09   1.07011e-09   1.10226e-09   1.01374e-09   1.24033e-09   2.83237e-09   9.98227e-10
    0.0641176   1.10605e-09   1.08162e-09   1.09377e-09   1.07013e-09   1.10214e-09   1.01399e-09   1.23979e-09   2.82639e-09   9.98542e-10
    0.0644118   1.10605e-09   1.08164e-09   1.09376e-09   1.07016e-09   1.10201e-09   1.01425e-09   1.23924e-09   2.82044e-09   9.98855e-10
    0.0647059   1.10605e-09   1.08166e-09   1.09374e-09   1.07018e-09   1.10189e-09    1.0145e-09    1.2387e-09   2.81451e-09   9.99164e-10
        0.065   1.10605e-09    1.0817e-09   1.09373e-09   1.07021e-09   1.10177e-09   1.01476e-09   1.23816e-09    2.8086e-09   9.99471e-10
    0.0652941   1.10605e-09   1.08173e-09   1.09371e-09   1.07023e-09   1.10165e-09   1.01501e-09   1.23762e-09   2.80273e-09   9.99776e-10
    0.0655882   1.10605e-09   1.08177e-09   1.09369e-09   1.07026e-09   1.10153e-09   1.01525e-09   1.23709e-09   2.79688e-09   1.00008e-09
    0.0658824   1.10605e-09   1.08181e-09   1.09368e-09   1.07028e-09   1.10142e-09    1.0155e-09   1.23656e-09   2.79107e-09   1.00038e-09
    0.0661765   1.10605e-09   1.08183e-09   1.09366e-09    1.0703e-09    1.1013e-09   1.01574e-09   1.23604e-09   2.78529e-09   1.00067e-09
    0.0664706   1.10605e-09   1.08187e-09   1.09365e-09   1.07033e-09   1.10118e-09   1.01598e-09   1.23551e-09   2.77954e-09   1.00097e-09
    0.0667647   1.10605e-09   1.08191e-09   1.09363e-09   1.07035e-09   1.10107e-09   1.01622e-09   1.23499e-09   2.77383e-09   1.00126e-09
    0.0670588   1.10605e-09   1.08195e-09   1.09362e-09   1.07037e-09   1.10095e-09   1.01646e-09   1.23448e-09   2.76816e-09   1.00155e-09
    0.0673529   1.10605e-09   1.08199e-09    1.0936e-09   1.07039e-09   1.10084e-09   1.01669e-09   1.23396e-09   2.76252e-09   1.00183e-09
    0.0676471   1.10605e-09   1.08201e-09   1.09359e-09   1.07042e-09   1.10073e-09   1.01693e-09   1.23345e-09   2.75692e-09   1.00212e-09
    0.0679412   1.10605e-09   1.08205e-09   1.09357e-09   1.07044e-09   1.10062e-09   1.01716e-09   1.23295e-09   2.75135e-09    1.0024e-09
    0.0682353   1.10605e-09   1.08208e-09   1.09356e-09   1.07046e-09   1.10051e-09   1.01739e-09   1.23245e-09   2.74583e-09   1.00268e-09
    0.0685294   1.10605e-09    1.0821e-09   1.09354e-09   1.07048e-09    1.1004e-09   1.01761e-09   1.23194e-09   2.74034e-09   1.00296e-09
    0.0688235   1.10605e-09   1.08214e-09   1.09353e-09   1.07051e-09   1.10029e-09   1.01784e-09   1.23145e-09   2.73489e-09   1.00323e-09
    0.0691176   1.10605e-09   1.08216e-09   1.09352e-09   1.07053e-09   1.10018e-09   1.01806e-09   1.23095e-09   2.72949e-09    1.0035e-09
    0.0694118   1.10605e-09   1.08218e-09    1.0935e-09   1.07055e-09   1.10007e-09   1.01828e-09   1.23046e-09   2.72412e-09   1.00377e-09
    0.0697059   1.10605e-09   1.08222e-09   1.09349e-09   1.07057e-09   1.09997e-09    1.0185e-09   1.22997e-09   2.71879e-09   1.00404e-09
         0.07   1.10605e-09   1.08226e-09   1.09347e-09   1.07059e-09   1.09986e-09   1.01872e-09   1.22948e-09    2.7135e-09   1.00431e-09
    0.0702941   1.10605e-09    1.0823e-09   1.09346e-09   1.07061e-09   1.09976e-09   1.01894e-09     1.229e-09   2.70825e-09   1.00457e-09
    0.0705882   1.10605e-09   1.08234e-09   1.09345e-09   1.07063e-09   1.09965e-09   1.01915e-09   1.22852e-09   2.70305e-09   1.00483e-09
    0.0708824   1.10605e-09   1.08238e-09   1.09343e-09   1.07065e-09   1.09955e-09   1.01936e-09   1.22804e-09   2.69788e-09   1.00509e-09
    0.0711765   1.10605e-09   1.08242e-09   1.09342e-09   1.07067e-09   1.09945e-09   1.01957e-09   1.22757e-09   2.69276e-09   1.00535e-09
    0.0714706   1.10605e-09   1.08246e-09   1.09341e-09   1.07069e-09   1.09934e-09   1.01978e-09   1.22709e-09   2.68767e-09   1.00561e-09
    0.0717647   1.10605e-09   1.08248e-09   1.09339e-09   1.07071e-09   1.09924e-09   1.01999e-09   1.22662e-09   2.68263e-09   1.00586e-09
    0.0720588   1.10605e-09    1.0825e-09   1.09338e-09   1.07073e-09   1.09914e-09   1.02019e-09   1.22616e-09   2.67762e-09   1.00611e-09