# Probe 0 (0 0 0)
# Probe 1 (0 0 0.001)
# Probe 2 (0 0 0.002)
# Probe 3 (0 0 0.003)
# Probe 4 (0 0 0.004)
# Probe 5 (0 0 0.005)
# Probe 6 (0 0 0.006)
# Probe 7 (0 0 0.007)
# Probe 8 (0 0 0.008)
#       Probe             0             1             2             3             4             5             6             7             8
#        Time
    0.0102941   1.01567e-09    9.3454e-10   9.46226e-10   9.45593e-10   9.45732e-10   4.32308e-14    9.4574e-10   9.45749e-10   3.39293e-14
    0.0105882   1.01376e-09   9.34882e-10   9.46217e-10   9.45596e-10   9.45732e-10   4.56798e-14    9.4574e-10   9.45749e-10   2.55124e-14
    0.0108824   1.01196e-09   9.35207e-10   9.46211e-10   9.45598e-10   9.45731e-10   4.82088e-14    9.4574e-10   9.45749e-10   3.73148e-14
    0.0111765   1.01026e-09   9.35513e-10   9.46205e-10   9.45601e-10   9.45731e-10   3.64185e-14    9.4574e-10   9.45749e-10   3.90679e-14
    0.0114706   1.00866e-09   9.35804e-10   9.46196e-10   9.45603e-10    9.4573e-10   5.35227e-14    9.4574e-10   9.45748e-10   4.08631e-14
    0.0117647   1.00714e-09   9.36081e-10   9.46187e-10   9.45605e-10    9.4573e-10    4.0356e-14    9.4574e-10   9.45748e-10   3.05998e-14
    0.0120588    1.0057e-09   9.36343e-10   9.46179e-10   9.45607e-10   9.45729e-10   5.92077e-14    9.4574e-10   9.45748e-10   4.45859e-14
    0.0123529   1.00433e-09   9.36593e-10   9.46171e-10   9.45609e-10   9.45729e-10   4.45738e-14    9.4574e-10   9.45748e-10   4.65171e-14
    0.0126471   1.00303e-09   9.36832e-10   9.46163e-10   9.45611e-10   9.45728e-10   6.53045e-14    9.4574e-10   9.45748e-10   3.47527e-14
    0.0129412   1.00179e-09   9.37059e-10   9.46155e-10   9.45612e-10   9.45728e-10   4.91024e-14    9.4574e-10   9.45748e-10   3.62076e-14
    0.0132353   1.00062e-09   9.37276e-10   9.46148e-10   9.45614e-10   9.45727e-10   7.18591e-14    9.4574e-10   9.45748e-10   5.26102e-14
    0.0135294   9.99489e-10   9.37484e-10   9.46141e-10   9.45616e-10   9.45727e-10   7.53248e-14    9.4574e-10   9.45748e-10    5.4748e-14
    0.0138235   9.98414e-10   9.37683e-10   9.46134e-10   9.45617e-10   9.45726e-10   7.89255e-14    9.4574e-10   9.45748e-10   5.69424e-14
    0.0141176   9.97386e-10   9.37873e-10   9.46127e-10   9.45618e-10   9.45726e-10   8.26697e-14    9.4574e-10   9.45748e-10   5.91961e-14
    0.0144118   9.96402e-10   9.38055e-10    9.4612e-10    9.4562e-10   9.45726e-10   8.65659e-14    9.4574e-10   9.45748e-10   6.15111e-14
    0.0147059    9.9546e-10   9.38231e-10   9.46113e-10   9.45621e-10   9.45725e-10   9.06237e-14    9.4574e-10   9.45748e-10   6.38905e-14
        0.015   9.94556e-10   9.38399e-10   9.46106e-10   9.45622e-10   9.45725e-10   6.79723e-14    9.4574e-10   9.45748e-10   6.63364e-14
    0.0152941   9.93688e-10    9.3856e-10     9.461e-10   9.45623e-10   9.45724e-10   9.92653e-14    9.4574e-10   9.45747e-10   6.88522e-14
    0.0155882   9.92855e-10   9.38716e-10   9.46093e-10   9.45624e-10   9.45724e-10   1.03873e-13    9.4574e-10   9.45747e-10   7.14405e-14
    0.0158824   9.92054e-10   9.38866e-10   9.46087e-10   9.45626e-10   9.45724e-10   1.08688e-13    9.4574e-10   9.45747e-10   5.31036e-14
    0.0161765   9.91284e-10    9.3901e-10   9.46081e-10   9.45627e-10   9.45723e-10   1.13726e-13    9.4574e-10   9.45747e-10   5.50698e-14
    0.0164706   9.90542e-10   9.39149e-10   9.46075e-10   9.45628e-10   9.45723e-10   8.52785e-14    9.4574e-10   9.45747e-10   7.96748e-14
    0.0167647   9.89828e-10   9.39283e-10   9.46069e-10   9.45628e-10   9.45723e-10   8.92436e-14    9.4574e-10   9.45747e-10   8.25878e-14
    0.0170588   9.89139e-10   9.39413e-10   9.46063e-10   9.45629e-10   9.45722e-10   1.30343e-13    9.4574e-10   9.45747e-10   8.55916e-14
    0.0173529   9.88475e-10   9.39538e-10   9.46057e-10    9.4563e-10   9.45722e-10   9.77795e-14    9.4574e-10   9.45747e-10   8.86903e-14
    0.0176471   9.87833e-10   9.39658e-10   9.46051e-10   9.45631e-10   9.45722e-10   1.42869e-13    9.4574e-10   9.45747e-10   9.18888e-14
    0.0179412   9.87214e-10   9.39775e-10   9.46046e-10   9.45632e-10   9.45722e-10   1.07232e-13    9.4574e-10   9.45747e-10   6.82147e-14
    0.0182353   9.86615e-10   9.39888e-10   9.46041e-10   9.45633e-10   9.45721e-10   1.56777e-13    9.4574e-10   9.45747e-10   9.86039e-14
    0.0185294   9.86036e-10   9.39998e-10   9.46036e-10   9.45633e-10   9.45721e-10   1.17757e-13    9.4574e-10   9.45747e-10   1.02132e-13
    0.0188235   9.85476e-10   9.40104e-10   9.46031e-10   9.45634e-10   9.45721e-10    1.7231e-13    9.4574e-10   9.45747e-10   7.58032e-14
    0.0191176   9.84934e-10   9.40213e-10   9.46027e-10   9.45635e-10   9.45721e-10   1.29549e-13    9.4574e-10   9.45747e-10   7.85092e-14
    0.0194118   9.84409e-10   9.40312e-10   9.46021e-10   9.45636e-10    9.4572e-10   1.35993e-13    9.4574e-10   9.45747e-10   8.13117e-14
    0.0197059     9.839e-10   9.40409e-10   9.46018e-10   9.45636e-10    9.4572e-10   1.99337e-13    9.4574e-10   9.45747e-10    1.1752e-13
         0.02   9.83407e-10   9.40534e-10   9.46014e-10   9.45637e-10    9.4572e-10    1.5016e-13    9.4574e-10   9.45747e-10   1.21722e-13
    0.0202941   9.82928e-10   9.40667e-10   9.46011e-10   9.45637e-10    9.4572e-10   2.20434e-13    9.4574e-10   9.45747e-10   1.26081e-13
    0.0205882   9.82464e-10   9.40754e-10   9.46007e-10   9.45638e-10    9.4572e-10   2.32104e-13    9.4574e-10   9.45747e-10   1.30608e-13
    0.0208824   9.82013e-10   9.40901e-10   9.46004e-10   9.45639e-10    9.4572e-10    1.7531e-13    9.4574e-10   9.45747e-10   1.35311e-13
    0.0211765   9.81575e-10   9.41059e-10   9.46001e-10   9.45639e-10   9.45719e-10   2.58109e-13    9.4574e-10   9.45747e-10   1.40202e-13
    0.0214706   9.81149e-10   9.41137e-10   9.45998e-10    9.4564e-10   9.45719e-10   2.72656e-13   9.45739e-10   9.45747e-10   1.45291e-13
    0.0217647   9.80736e-10   9.41213e-10   9.45995e-10    9.4564e-10   9.45719e-10   2.06683e-13   9.45739e-10   9.45747e-10   1.07916e-13
    0.0220588   9.80333e-10   9.41287e-10   9.45992e-10   9.45641e-10   9.45719e-10   3.05506e-13   9.45739e-10   9.45747e-10   1.56116e-13
    0.0223529   9.79942e-10    9.4136e-10   9.45989e-10   9.45641e-10   9.45719e-10     2.323e-13   9.45739e-10   9.45747e-10   1.16006e-13
    0.0226471   9.79561e-10    9.4143e-10   9.45986e-10   9.45642e-10   9.45719e-10   2.46917e-13   9.45739e-10   9.45747e-10   1.20319e-13
    0.0229412   9.79191e-10   9.41498e-10   9.45983e-10   9.45642e-10   9.45718e-10   2.62978e-13   9.45739e-10   9.45747e-10   1.24827e-13
    0.0232353    9.7883e-10   9.41565e-10   9.45981e-10   9.45643e-10   9.45718e-10   2.80707e-13   9.45739e-10   9.45747e-10    1.8077e-13
    0.0235294   9.78478e-10    9.4163e-10   9.45978e-10   9.45643e-10   9.45718e-10    3.0038e-13   9.45739e-10   9.45746e-10   1.34484e-13
    0.0238235   9.78135e-10   9.41693e-10   9.45976e-10   9.45643e-10   9.45718e-10   4.49759e-13   9.45739e-10   9.45746e-10   1.94892e-13
    0.0241176   9.77801e-10   9.41755e-10   9.45973e-10   9.45644e-10   9.45718e-10   4.84159e-13   9.45739e-10   9.45746e-10   2.02479e-13
    0.0244118   9.77475e-10   9.41815e-10   9.45971e-10   9.45644e-10   9.45718e-10   3.74881e-13   9.45739e-10   9.45746e-10   2.10453e-13
    0.0247059   9.77157e-10   9.41874e-10   9.45968e-10   9.45645e-10   9.45718e-10   4.06688e-13   9.45739e-10   9.45746e-10   2.18843e-13
        0.025   9.76847e-10   9.41932e-10   9.45966e-10   9.45645e-10   9.45717e-10    6.1851e-13   9.45739e-10   9.45746e-10   2.27686e-13
    0.0252941   9.76544e-10   9.41988e-10   9.45964e-10   9.45645e-10   9.45717e-10   6.77919e-13   9.45739e-10   9.45746e-10   1.69854e-13
    0.0255882   9.76249e-10   9.42043e-10   9.45962e-10   9.45646e-10   9.45717e-10   7.47888e-13   9.45739e-10   9.45746e-10   1.76919e-13
    0.0258824    9.7596e-10   9.42096e-10   9.45959e-10   9.45646e-10   9.45717e-10   8.31513e-13   9.45739e-10   9.45746e-10   1.84399e-13
    0.0261765   9.75678e-10   9.42149e-10   9.45957e-10   9.45647e-10   9.45717e-10   6.68911e-13   9.45739e-10   9.45746e-10   2.68374e-13
    0.0264706   9.75402e-10     9.422e-10   9.45955e-10   9.45647e-10   9.45717e-10   1.05958e-12   9.45739e-10   9.45746e-10   2.80124e-13
    0.0267647   9.75133e-10    9.4225e-10   9.45953e-10   9.45647e-10   9.45717e-10   8.75121e-13   9.45739e-10   9.45746e-10   2.92627e-13
    0.0270588    9.7487e-10   9.42299e-10   9.45951e-10   9.45648e-10   9.45717e-10   1.43361e-12   9.45739e-10   9.45746e-10   2.19264e-13
    0.0273529   9.74612e-10   9.42347e-10   9.45949e-10   9.45648e-10   9.45716e-10   1.23854e-12   9.45739e-10   9.45746e-10   2.29472e-13
    0.0276471    9.7436e-10   9.42394e-10   9.45947e-10   9.45648e-10   9.45716e-10    2.1597e-12   9.45739e-10   9.45746e-10    3.3545e-13
    0.0279412   9.74114e-10    9.4244e-10   9.45945e-10   9.45649e-10   9.45716e-10   2.85791e-12   9.45739e-10   9.45746e-10   2.52136e-13
    0.0282353   9.73873e-10   9.42485e-10   9.45944e-10   9.45649e-10   9.45716e-10   4.17685e-12   9.45739e-10   9.45746e-10   2.64764e-13
    0.0285294   9.73637e-10   9.42529e-10   9.45942e-10   9.45649e-10   9.45716e-10   7.60665e-12   9.45739e-10   9.45746e-10   3.88456e-13
    0.0288235   9.73405e-10   9.42573e-10    9.4594e-10   9.45649e-10   9.45716e-10   2.79208e-11   9.45739e-10   9.45746e-10   2.93149e-13
    0.0291176   9.73179e-10   9.42615e-10   9.45938e-10    9.4565e-10   9.45716e-10   9.42851e-10   9.45739e-10   9.45746e-10   4.31399e-13
    0.0294118   9.72957e-10   9.42656e-10   9.45937e-10    9.4565e-10   9.45715e-10   9.43321e-10   9.45739e-10   9.45746e-10   4.55768e-13
    0.0297059    9.7274e-10   9.42697e-10   9.45935e-10    9.4565e-10   9.45715e-10    9.4369e-10   9.45739e-10   9.45746e-10   4.82433e-13
         0.03   9.72527e-10   9.42737e-10   9.45933e-10    9.4565e-10   9.45715e-10   9.43978e-10   9.45739e-10   9.45746e-10   5.11733e-13
    0.0302941   9.72319e-10   9.42776e-10   9.45932e-10   9.45651e-10   9.45715e-10   9.44205e-10   9.45739e-10   9.45746e-10   3.89943e-13
    0.0305882   9.72114e-10   9.42814e-10    9.4593e-10   9.45651e-10   9.45715e-10   9.44385e-10   9.45738e-10   9.45746e-10   5.79977e-13
    0.0308824   9.71914e-10   9.42852e-10   9.45929e-10   9.45651e-10   9.45715e-10   9.44529e-10   9.45738e-10   9.45746e-10   4.44394e-13
    0.0311765   9.71717e-10   9.42889e-10   9.45927e-10   9.45651e-10   9.45715e-10   9.44647e-10   9.45738e-10   9.45746e-10    6.6504e-13
    0.0314706   9.71524e-10   9.42925e-10   9.45926e-10   9.45652e-10   9.45714e-10   9.44744e-10   9.45738e-10   9.45746e-10   7.15948e-13
    0.0317647   9.71335e-10   9.42961e-10   9.45924e-10   9.45652e-10   9.45714e-10   9.44826e-10   9.45738e-10   9.45746e-10   5.54773e-13
    0.0320588   9.71149e-10   9.42996e-10   9.45923e-10   9.45652e-10   9.45714e-10   9.44895e-10   9.45738e-10   9.45746e-10   6.02695e-13
    0.0323529   9.70967e-10    9.4303e-10   9.45921e-10   9.45652e-10   9.45714e-10   9.44954e-10   9.45738e-10   9.45746e-10   9.18624e-13
    0.0326471   9.70788e-10   9.43064e-10    9.4592e-10   9.45653e-10   9.45714e-10   9.45005e-10   9.45738e-10   9.45746e-10   1.01024e-12
    0.0329412   9.70612e-10   9.43097e-10   9.45918e-10   9.45653e-10   9.45714e-10   9.45049e-10   9.45738e-10   9.45746e-10   1.11977e-12
    0.0332353    9.7044e-10    9.4313e-10   9.45917e-10   9.45653e-10   9.45714e-10   9.45088e-10   9.45738e-10   9.45746e-10   1.25303e-12
    0.0335294    9.7027e-10   9.43162e-10   9.45916e-10   9.45653e-10   9.45714e-10   9.45123e-10   9.45738e-10   9.45746e-10   1.41868e-12
    0.0338235   9.70104e-10   9.43193e-10   9.45914e-10   9.45653e-10   9.45713e-10   9.45153e-10   9.45738e-10   9.45746e-10    1.1687e-12
    0.0341176   9.69941e-10   9.43225e-10   9.45913e-10   9.45654e-10   9.45713e-10   9.45181e-10   9.45738e-10   9.45746e-10   1.36908e-12
    0.0344118    9.6978e-10   9.43255e-10   9.45912e-10   9.45654e-10   9.45713e-10   9.45206e-10   9.45738e-10   9.45746e-10    2.2956e-12
    0.0347059   9.69622e-10   9.43285e-10   9.45911e-10   9.45654e-10   9.45713e-10   9.45228e-10   9.45738e-10   9.45746e-10   2.86426e-12
        0.035   9.69467e-10   9.43314e-10    9.4591e-10   9.45654e-10   9.45713e-10   9.45249e-10   9.45738e-10   9.45746e-10   3.78496e-12
    0.0352941   9.69315e-10   9.43343e-10   9.45908e-10   9.45654e-10   9.45713e-10   9.45268e-10   9.45738e-10   9.45746e-10   5.53108e-12
    0.0355882   9.69165e-10   9.43371e-10   9.45907e-10   9.45655e-10   9.45713e-10   9.45285e-10   9.45738e-10   9.45746e-10   1.01144e-11
    0.0358824   9.69018e-10     9.434e-10   9.45906e-10   9.45655e-10   9.45713e-10   9.45301e-10   9.45738e-10   9.45746e-10   3.96319e-11
    0.0361765   9.68873e-10   9.43427e-10   9.45905e-10   9.45655e-10   9.45713e-10   9.45315e-10   9.45738e-10   9.45746e-10   9.42963e-10
    0.0364706    9.6873e-10   9.43455e-10   9.45904e-10   9.45655e-10   9.45712e-10   9.45329e-10   9.45737e-10   9.45746e-10   9.43342e-10
    0.0367647    9.6859e-10   9.43481e-10   9.45903e-10   9.45655e-10   9.45712e-10   9.45341e-10   9.45737e-10   9.45746e-10   9.43654e-10
    0.0370588   9.68452e-10   9.43507e-10   9.45902e-10   9.45655e-10   9.45712e-10   9.45353e-10   9.45737e-10   9.45746e-10   9.43909e-10
    0.0373529   9.68316e-10   9.43533e-10     9.459e-10   9.45656e-10   9.45712e-10   9.45364e-10   9.45737e-10   9.45746e-10   9.44118e-10
    0.0376471   9.68183e-10   9.43558e-10   9.45899e-10   9.45656e-10   9.45712e-10   9.45374e-10   9.45737e-10   9.45746e-10    9.4429e-10
    0.0379412   9.68051e-10   9.43583e-10   9.45898e-10   9.45656e-10   9.45712e-10   9.45383e-10   9.45737e-10   9.45746e-10   9.44432e-10
    0.0382353   9.67922e-10   9.43608e-10   9.45897e-10   9.45656e-10   9.45712e-10   9.45392e-10   9.45737e-10   9.45746e-10    9.4455e-10
    0.0385294   9.67794e-10   9.43632e-10   9.45896e-10   9.45656e-10   9.45712e-10     9.454e-10   9.45737e-10   9.45746e-10   9.44649e-10
    0.0388235   9.67669e-10   9.43657e-10   9.45895e-10   9.45656e-10   9.45711e-10   9.45408e-10   9.45737e-10   9.45746e-10   9.44734e-10
    0.0391176   9.67546e-10   9.43681e-10   9.45894e-10   9.45657e-10   9.45711e-10   9.45416e-10   9.45737e-10   9.45746e-10   9.44807e-10
    0.0394118   9.67424e-10   9.43705e-10   9.45893e-10   9.45657e-10   9.45711e-10   9.45423e-10   9.45737e-10   9.45746e-10    9.4487e-10
    0.0397059   9.67304e-10   9.43727e-10   9.45892e-10   9.45657e-10   9.45711e-10    9.4543e-10   9.45737e-10   9.45746e-10   9.44924e-10
         0.04   9.67186e-10    9.4375e-10   9.45891e-10   9.45657e-10   9.45711e-10   9.45436e-10   9.45737e-10   9.45746e-10   9.44972e-10
    0.0402941    9.6707e-10   9.43771e-10   9.45891e-10   9.45657e-10   9.45711e-10   9.45442e-10   9.45737e-10   9.45746e-10   9.45015e-10
    0.0405882   9.66955e-10   9.43794e-10    9.4589e-10   9.45657e-10   9.45711e-10   9.45448e-10   9.45737e-10   9.45746e-10   9.45053e-10
    0.0408824   9.66843e-10   9.43815e-10   9.45889e-10   9.45657e-10   9.45711e-10   9.45453e-10   9.45736e-10   9.45746e-10   9.45087e-10
    0.0411765   9.66731e-10   9.43836e-10   9.45888e-10   9.45658e-10   9.45711e-10   9.45458e-10   9.45736e-10   9.45746e-10   9.45117e-10
    0.0414706   9.66622e-10   9.43858e-10   9.45887e-10   9.45658e-10   9.45711e-10   9.45463e-10   9.45736e-10   9.45746e-10   9.45144e-10
    0.0417647   9.66514e-10   9.43878e-10   9.45886e-10   9.45658e-10    9.4571e-10   9.45468e-10   9.45736e-10   9.45746e-10   9.45169e-10
    0.0420588   9.66407e-10     9.439e-10   9.45885e-10   9.45658e-10    9.4571e-10   9.45472e-10   9.45736e-10   9.45746e-10   9.45192e-10
    0.0423529   9.66302e-10   9.43921e-10   9.45884e-10   9.45658e-10    9.4571e-10   9.45477e-10   9.45736e-10   9.45746e-10   9.45213e-10
    0.0426471   9.66199e-10   9.43942e-10   9.45884e-10   9.45658e-10    9.4571e-10   9.45481e-10   9.45736e-10   9.45746e-10   9.45232e-10
    0.0429412   9.66097e-10   9.43961e-10   9.45883e-10   9.45658e-10    9.4571e-10   9.45485e-10   9.45736e-10   9.45746e-10    9.4525e-10
    0.0432353   9.65996e-10   9.43981e-10   9.45882e-10   9.45658e-10    9.4571e-10   9.45489e-10   9.45736e-10   9.45746e-10   9.45266e-10
    0.0435294   9.65897e-10   9.44002e-10   9.45881e-10   9.45659e-10    9.4571e-10   9.45492e-10   9.45736e-10   9.45746e-10   9.45281e-10
    0.0438235   9.65799e-10   9.44022e-10    9.4588e-10   9.45659e-10    9.4571e-10   9.45496e-10   9.45736e-10   9.45746e-10   9.45295e-10
    0.0441176   9.65702e-10   9.44041e-10    9.4588e-10   9.45659e-10    9.4571e-10   9.45499e-10   9.45736e-10   9.45746e-10   9.45308e-10
    0.0444118   9.65607e-10   9.44061e-10   9.45879e-10   9.45659e-10   9.45709e-10   9.45502e-10   9.45736e-10   9.45746e-10    9.4532e-10
    0.0447059   9.65513e-10    9.4408e-10   9.45878e-10   9.45659e-10   9.45709e-10   9.45506e-10   9.45736e-10   9.45746e-10   9.45332e-10
        0.045    9.6542e-10   9.44099e-10   9.45877e-10   9.45659e-10   9.45709e-10   9.45509e-10   9.45736e-10   9.45746e-10   9.45343e-10
    0.0452941   9.65329e-10   9.44118e-10   9.45877e-10   9.45659e-10   9.45709e-10   9.45512e-10   9.45736e-10   9.45746e-10   9.45353e-10
    0.0455882   9.65238e-10   9.44135e-10   9.45876e-10   9.45659e-10   9.45709e-10   9.45514e-10   9.45735e-10   9.45746e-10   9.45362e-10
    0.0458824   9.65149e-10   9.44154e-10   9.45875e-10   9.45659e-10   9.45709e-10   9.45517e-10   9.45735e-10   9.45746e-10   9.45371e-10
    0.0461765   9.65061e-10    9.4417e-10   9.45874e-10    9.4566e-10   9.45709e-10    9.4552e-10   9.45735e-10   9.45746e-10   9.45379e-10
    0.0464706   9.64974e-10   9.44188e-10   9.45874e-10    9.4566e-10   9.45709e-10   9.45522e-10   9.45735e-10   9.45746e-10   9.45387e-10
    0.0467647   9.64889e-10   9.44206e-10   9.45873e-10    9.4566e-10   9.45709e-10   9.45525e-10   9.45735e-10   9.45746e-10   9.45395e-10
    0.0470588   9.64804e-10   9.44224e-10   9.45872e-10    9.4566e-10   9.45709e-10   9.45527e-10   9.45735e-10   9.45746e-10   9.45402e-10
    0.0473529    9.6472e-10   9.44242e-10   9.45872e-10    9.4566e-10   9.45709e-10   9.45529e-10   9.45735e-10   9.45746e-10   9.45409e-10
    0.0476471   9.64638e-10   9.44257e-10   9.45871e-10    9.4566e-10   9.45708e-10   9.45532e-10   9.45735e-10   9.45746e-10   9.45415e-10
    0.0479412   9.64556e-10   9.44275e-10    9.4587e-10    9.4566e-10   9.45708e-10   9.45534e-10   9.45735e-10   9.45746e-10   9.45422e-10
    0.0482353   9.64476e-10    9.4429e-10    9.4587e-10    9.4566e-10   9.45708e-10   9.45536e-10   9.45735e-10   9.45746e-10   9.45428e-10
    0.0485294   9.64396e-10   9.44305e-10   9.45869e-10    9.4566e-10   9.45708e-10   9.45538e-10   9.45735e-10   9.45746e-10   9.45433e-10
    0.0488235   9.64317e-10   9.44319e-10   9.45868e-10    9.4566e-10   9.45708e-10    9.4554e-10   9.45735e-10   9.45746e-10   9.45439e-10
    0.0491176    9.6424e-10   9.44336e-10   9.45868e-10    9.4566e-10   9.45708e-10   9.45542e-10   9.45735e-10   9.45746e-10   9.45444e-10
    0.0494118   9.64163e-10    9.4435e-10   9.45867e-10   9.45661e-10   9.45708e-10   9.45544e-10   9.45735e-10   9.45745e-10   9.45449e-10
    0.0497059   9.64087e-10   9.44367e-10   9.45867e-10   9.45661e-10   9.45708e-10   9.45545e-10   9.45735e-10   9.45745e-10   9.45453e-10
         0.05   9.64013e-10   9.44383e-10   9.45866e-10   9.45661e-10   9.45708e-10   9.45547e-10   9.45735e-10   9.45745e-10   9.45458e-10
    0.0502941   9.63939e-10   9.44399e-10   9.45865e-10   9.45661e-10   9.45708e-10   9.45549e-10   9.45735e-10   9.45745e-10   9.45462e-10
    0.0505882   9.63866e-10   9.44415e-10   9.45865e-10   9.45661e-10   9.45708e-10   9.45551e-10   9.45735e-10   9.45745e-10   9.45466e-10
    0.0508824   9.63793e-10   9.44429e-10   9.45864e-10   9.45661e-10   9.45707e-10   9.45552e-10   9.45734e-10   9.45745e-10    9.4547e-10
    0.0511765   9.63722e-10   9.44444e-10   9.45864e-10   9.45661e-10   9.45707e-10   9.45554e-10   9.45734e-10   9.45745e-10   9.45474e-10
    0.0514706   9.63651e-10    9.4446e-10   9.45863e-10   9.45661e-10   9.45707e-10   9.45555e-10   9.45734e-10   9.45745e-10   9.45478e-10
    0.0517647   9.63582e-10   9.44473e-10   9.45862e-10   9.45661e-10   9.45707e-10   9.45557e-10   9.45734e-10   9.45745e-10   9.45481e-10
    0.0520588   9.63513e-10   9.44488e-10   9.45862e-10   9.45661e-10   9.45707e-10   9.45558e-10   9.45734e-10   9.45745e-10   9.45485e-10
    0.0523529   9.63444e-10   9.44501e-10   9.45861e-10   9.45661e-10   9.45707e-10    9.4556e-10   9.45734e-10   9.45745e-10   9.45488e-10
    0.0526471   9.63377e-10   9.44516e-10   9.45861e-10   9.45662e-10   9.45707e-10   9.45561e-10   9.45734e-10   9.45745e-10   9.45491e-10
    0.0529412    9.6331e-10   9.44531e-10    9.4586e-10   9.45662e-10   9.45707e-10   9.45562e-10   9.45734e-10   9.45745e-10   9.45494e-10
    0.0532353   9.63245e-10   9.44546e-10    9.4586e-10   9.45662e-10   9.45707e-10   9.45564e-10   9.45734e-10   9.45745e-10   9.45497e-10
    0.0535294   9.63179e-10   9.44558e-10   9.45859e-10   9.45662e-10   9.45707e-10   9.45565e-10   9.45734e-10   9.45745e-10     9.455e-10
    0.0538235   9.63115e-10   9.44573e-10   9.45859e-10   9.45662e-10   9.45707e-10   9.45566e-10   9.45734e-10   9.45745e-10   9.45503e-10
    0.0541176   9.63051e-10   9.44585e-10   9.45858e-10   9.45662e-10   9.45706e-10   9.45568e-10   9.45734e-10   9.45745e-10   9.45506e-10
    0.0544118   9.62988e-10     9.446e-10   9.45858e-10   9.45662e-10   9.45706e-10   9.45569e-10   9.45734e-10   9.45745e-10   9.45508e-10
    0.0547059   9.62926e-10   9.44611e-10   9.45857e-10   9.45662e-10   9.45706e-10    9.4557e-10   9.45734e-10   9.45745e-10   9.45511e-10
        0.055   9.62864e-10   9.44622e-10   9.45857e-10   9.45662e-10   9.45706e-10   9.45571e-10   9.45734e-10   9.45745e-10   9.45513e-10
    0.0552941   9.62803e-10   9.44634e-10   9.45856e-10   9.45662e-10   9.45706e-10   9.45572e-10   9.45734e-10   9.45745e-10   9.45516e-10
    0.0555882   9.62743e-10   9.44648e-10   9.45856e-10   9.45662e-10   9.45706e-10   9.45573e-10   9.45734e-10   9.45745e-10   9.45518e-10
    0.0558824   9.62683e-10   9.44662e-10   9.45855e-10   9.45662e-10   9.45706e-10   9.45574e-10   9.45734e-10   9.45745e-10    9.4552e-10
    0.0561765   9.62624e-10   9.44673e-10   9.45855e-10   9.45662e-10   9.45706e-10   9.45575e-10   9.45734e-10   9.45745e-10   9.45523e-10
    0.0564706   9.62566e-10   9.44687e-10   9.45854e-10   9.45662e-10   9.45706e-10   9.45576e-10   9.45734e-10   9.45745e-10   9.45525e-10
    0.0567647   9.62508e-10   9.44698e-10   9.45854e-10   9.45663e-10   9.45706e-10   9.45577e-10   9.45733e-10   9.45745e-10   9.45527e-10
    0.0570588   9.62451e-10   9.44711e-10   9.45853e-10   9.45663e-10   9.45706e-10   9.45578e-10   9.45733e-10   9.45745e-10   9.45529e-10
    0.0573529   9.62394e-10   9.44725e-10   9.45853e-10   9.45663e-10   9.45706e-10   9.45579e-10   9.45733e-10   9.45745e-10   9.45531e-10
    0.0576471   9.62338e-10   9.44735e-10   9.45852e-10   9.45663e-10   9.45706e-10    9.4558e-10   9.45733e-10   9.45745e-10   9.45533e-10
    0.0579412   9.62282e-10   9.44749e-10   9.45852e-10   9.45663e-10   9.45705e-10   9.45581e-10   9.45733e-10   9.45745e-10   9.45534e-10
    0.0582353   9.62228e-10   9.44759e-10   9.45851e-10   9.45663e-10   9.45705e-10   9.45582e-10   9.45733e-10   9.45745e-10   9.45536e-10
    0.0585294   9.62173e-10   9.44769e-10   9.45851e-10   9.45663e-10   9.45705e-10   9.45583e-10   9.45733e-10   9.45745e-10   9.45538e-10
    0.0588235   9.62119e-10   9.44779e-10    9.4585e-10   9.45663e-10   9.45705e-10   9.45584e-10   9.45733e-10   9.45745e-10    9.4554e-10
    0.0591176   9.62066e-10   9.44792e-10    9.4585e-10   9.45663e-10   9.45705e-10   9.45585e-10   9.45733e-10   9.45745e-10   9.45541e-10
    0.0594118   9.62013e-10   9.44802e-10    9.4585e-10   9.45663e-10   9.45705e-10   9.45586e-10   9.45733e-10   9.45745e-10   9.45543e-10
    0.0597059   9.61961e-10   9.44815e-10   9.45849e-10   9.45663e-10   9.45705e-10   9.45587e-10   9.45733e-10   9.45745e-10   9.45545e-10
         0.06    9.6191e-10   9.44824e-10   9.45849e-10   9.45663e-10   9.45705e-10   9.45587e-10   9.45733e-10   9.45745e-10   9.45546e-10
    0.0602941   9.61858e-10   9.44834e-10   9.45848e-10   9.45663e-10   9.45705e-10   9.45588e-10   9.45733e-10   9.45745e-10   9.45548e-10
    0.0605882   9.61808e-10   9.44847e-10   9.45848e-10   9.45663e-10   9.45705e-10   9.45589e-10   9.45733e-10   9.45745e-10   9.45549e-10
    0.0608824   9.61758e-10    9.4486e-10   9.45847e-10   9.45663e-10   9.45705e-10    9.4559e-10   9.45733e-10   9.45745e-10   9.45551e-10
    0.0611765   9.61708e-10   9.44869e-10   9.45847e-10   9.45664e-10   9.45705e-10    9.4559e-10   9.45733e-10   9.45745e-10   9.45552e-10
    0.0614706   9.61659e-10   9.44882e-10   9.45847e-10   9.45664e-10   9.45705e-10   9.45591e-10   9.45733e-10   9.45745e-10   9.45553e-10
    0.0617647    9.6161e-10   9.44895e-10   9.45846e-10   9.45664e-10   9.45704e-10   9.45592e-10   9.45733e-10   9.45745e-10   9.45555e-10
    0.0620588   9.61562e-10   9.44907e-10   9.45846e-10   9.45664e-10   9.45704e-10   9.45593e-10   9.45733e-10   9.45745e-10   9.45556e-10
    0.0623529   9.61514e-10    9.4492e-10   9.45845e-10   9.45664e-10   9.45704e-10   9.45593e-10   9.45733e-10   9.45745e-10   9.45557e-10
    0.0626471   9.61467e-10   9.44933e-10   9.45845e-10   9.45664e-10   9.45704e-10   9.45594e-10   9.45733e-10   9.45745e-10   9.45559e-10
    0.0629412    9.6142e-10   9.44946e-10   9.45845e-10   9.45664e-10   9.45704e-10   9.45595e-10   9.45733e-10   9.45745e-10    9.4556e-10
    0.0632353   9.61373e-10   9.44954e-10   9.45844e-10   9.45664e-10   9.45704e-10   9.45595e-10   9.45733e-10   9.45745e-10   9.45561e-10
    0.0635294   9.61327e-10   9.44967e-10   9.45844e-10   9.45664e-10   9.45704e-10   9.45596e-10   9.45732e-10   9.45745e-10   9.45562e-10
    0.0638235   9.61282e-10   9.44979e-10   9.45843e-10   9.45664e-10   9.45704e-10   9.45597e-10   9.45732e-10   9.45745e-10   9.45563e-10
    0.0641176   9.61236e-10   9.44992e-10   9.45843e-10   9.45664e-10   9.45704e-10   9.45597e-10   9.45732e-10   9.45745e-10   9.45564e-10
    0.0644118   9.61192e-10      9.45e-10   9.45843e-10   9.45664e-10   9.45704e-10   9.45598e-10   9.45732e-10   9.45745e-10   9.45566e-10
    0.0647059   9.61147e-10   9.45007e-10   9.45842e-10   9.45664e-10   9.45704e-10   9.45598e-10   9.45732e-10   9.45745e-10   9.45567e-10
        0.065   9.61103e-10    9.4502e-10   9.45842e-10   9.45664e-10   9.45704e-10   9.45599e-10   9.45732e-10   9.45745e-10   9.45568e-10
    0.0652941    9.6106e-10   9.45028e-10   9.45842e-10   9.45664e-10   9.45704e-10     9.456e-10   9.45732e-10   9.45745e-10   9.45569e-10
    0.0655882   9.61017e-10    9.4504e-10   9.45841e-10   9.45664e-10   9.45704e-10     9.456e-10   9.45732e-10   9.45745e-10    9.4557e-10
    0.0658824   9.60974e-10   9.45052e-10   9.45841e-10   9.45664e-10   9.45704e-10   9.45601e-10   9.45732e-10   9.45745e-10   9.45571e-10
    0.0661765   9.60932e-10    9.4506e-10   9.45841e-10   9.45664e-10   9.45703e-10   9.45601e-10   9.45732e-10   9.45745e-10   9.45572e-10
    0.0664706    9.6089e-10   9.45072e-10    9.4584e-10   9.45664e-10   9.45703e-10   9.45602e-10   9.45732e-10   9.45745e-10   9.45573e-10
    0.0667647   9.60848e-10   9.45084e-10    9.4584e-10   9.45665e-10   9.45703e-10   9.45602e-10   9.45732e-10   9.45745e-10   9.45574e-10
    0.0670588   9.60807e-10   9.45096e-10    9.4584e-10   9.45665e-10   9.45703e-10   9.45603e-10   9.45732e-10   9.45745e-10   9.45575e-10
    0.0673529   9.60766e-10   9.45108e-10   9.45839e-10   9.45665e-10   9.45703e-10   9.45604e-10   9.45732e-10   9.45745e-10   9.45575e-10
    0.0676471   9.60725e-10   9.45115e-10   9.45839e-10   9.45665e-10   9.45703e-10   9.45604e-10   9.45732e-10   9.45745e-10   9.45576e-10
    0.0679412   9.60685e-10   9.45128e-10   9.45839e-10   9.45665e-10   9.45703e-10   9.45605e-10   9.45732e-10   9.45745e-10   9.45577e-10
    0.0682353   9.60645e-10   9.45134e-10   9.45838e-10   9.45665e-10   9.45703e-10   9.45605e-10   9.45732e-10   9.45745e-10   9.45578e-10
    0.0685294   9.60606e-10   9.45141e-10   9.45838e-10   9.45665e-10   9.45703e-10   9.45606e-10   9.45732e-10   9.45745e-10   9.45579e-10
    0.0688235   9.60567e-10   9.45153e-10   9.45838e-10   9.45665e-10   9.45703e-10   9.45606e-10   9.45732e-10   9.45745e-10    9.4558e-10
    0.0691176   9.60528e-10    9.4516e-10   9.45837e-10   9.45665e-10   9.45703e-10   9.45607e-10   9.45732e-10   9.45745e-10   9.45581e-10
    0.0694118    9.6049e-10   9.45167e-10   9.45837e-10   9.45665e-10   9.45703e-10   9.45607e-10   9.45732e-10   9.45745e-10   9.45581e-10
    0.0697059   9.60451e-10   9.45179e-10   9.45837e-10   9.45665e-10   9.45703e-10   9.45608e-10   9.45732e-10   9.45745e-10   9.45582e-10
         0.07   9.60414e-10   9.45191e-10   9.45836e-10   9.45665e-10   9.45703e-10   9.45608e-10   9.45732e-10   9.45745e-10   9.45583e-10
    0.0702941   9.60376e-10   9.45203e-10   9.45836e-10   9.45665e-10   9.45703e-10   9.45608e-10   9.45732e-10   9.45745e-10   9.45584e-10
    0.0705882   9.60339e-10   9.45215e-10   9.45836e-10   9.45665e-10   9.45703e-10   9.45609e-10   9.45731e-10   9.45745e-10   9.45584e-10
    0.0708824   9.60302e-10   9.45227e-10   9.45835e-10   9.45665e-10   9.45702e-10   9.45609e-10   9.45731e-10   9.45745e-10   9.45585e-10
    0.0711765   9.60266e-10   9.45238e-10   9.45835e-10   9.45665e-10   9.45702e-10    9.4561e-10   9.45731e-10   9.45745e-10   9.45586e-10
    0.0714706   9.60229e-10    9.4525e-10   9.45835e-10   9.45665e-10   9.45702e-10    9.4561e-10   9.45731e-10   9.45745e-10   9.45587e-10
    0.0717647   9.60193e-10   9.45256e-10   9.45834e-10   9.45665e-10   9.45702e-10   9.45611e-10   9.45731e-10   9.45745e-10   9.45587e-10
    0.0720588   9.60158e-10   9.45262e-10   9.45834e-10   9.45665e-10   9.45702e-10   9.45611e-10   9.45731e-10   9.45745e-10   9.45588e-10