# Probe 0 (0 0 0.0079)
#       Probe             0
#        Time
    0.0102941   1.10854e-09
    0.0105882   1.10606e-09
    0.0108824   1.10606e-09
    0.0111765   1.10606e-09
    0.0114706   1.10606e-09
    0.0117647   1.10606e-09
    0.0120588   1.10606e-09
    0.0123529   1.10611e-09
    0.0126471   1.10618e-09
    0.0129412   1.10624e-09
    0.0132353   1.10638e-09
    0.0135294   1.10683e-09
    0.0138235   1.10979e-09
    0.0141176   1.11648e-09
    0.0144118   1.12488e-09
    0.0147059   1.17187e-09
        0.015    1.2803e-09
    0.0152941   1.34156e-09
    0.0155882   1.41507e-09
    0.0158824   1.47101e-09
    0.0161765   1.47266e-09
    0.0164706   1.44954e-09
    0.0167647   1.44343e-09
    0.0170588   1.41433e-09
    0.0173529   1.38343e-09
    0.0176471   1.42756e-09
    0.0179412   1.46367e-09
    0.0182353   1.48678e-09
    0.0185294   1.49472e-09
    0.0188235   1.48838e-09
    0.0191176   1.47074e-09
    0.0194118   1.44538e-09
    0.0197059   1.41558e-09
         0.02    1.3839e-09
    0.0202941   1.35211e-09
    0.0205882   1.32141e-09
    0.0208824   1.29255e-09
    0.0211765   1.26594e-09
    0.0214706   1.24184e-09
    0.0217647   1.22031e-09
    0.0220588   1.20135e-09
    0.0223529   1.18486e-09
    0.0226471    1.1707e-09
    0.0229412   1.15869e-09
    0.0232353   1.14861e-09
    0.0235294   1.14024e-09
    0.0238235   1.13336e-09
    0.0241176   1.12775e-09
    0.0244118   1.12321e-09
    0.0247059   1.11956e-09
        0.025   1.11664e-09
    0.0252941   1.11431e-09
    0.0255882   1.11246e-09
    0.0258824   1.11097e-09
    0.0261765   1.10977e-09
    0.0264706   1.10878e-09
    0.0267647   1.10795e-09
    0.0270588   1.10727e-09
    0.0273529   1.10677e-09
    0.0276471   1.10648e-09
    0.0279412   1.10633e-09
    0.0282353   1.10625e-09
    0.0285294   1.10619e-09
    0.0288235   1.10616e-09
    0.0291176   1.10614e-09
    0.0294118   1.10612e-09
    0.0297059   1.10611e-09
         0.03    1.1061e-09
    0.0302941    1.1061e-09
    0.0305882   1.10609e-09
    0.0308824   1.10609e-09
    0.0311765   1.10609e-09
    0.0314706   1.10608e-09
    0.0317647   1.10608e-09
    0.0320588   1.10608e-09
    0.0323529   1.10608e-09
    0.0326471   1.10608e-09
    0.0329412   1.10608e-09
    0.0332353   1.10608e-09
    0.0335294   1.10607e-09
    0.0338235   1.10607e-09
    0.0341176   1.10607e-09
    0.0344118   1.10607e-09
    0.0347059   1.10607e-09
        0.035   1.10607e-09
    0.0352941   1.10607e-09
    0.0355882   1.10607e-09
    0.0358824   1.10607e-09
    0.0361765   1.10607e-09
    0.0364706   1.10607e-09
    0.0367647   1.10607e-09
    0.0370588   1.10607e-09
    0.0373529   1.10607e-09
    0.0376471   1.10607e-09
    0.0379412   1.10607e-09
    0.0382353   1.10607e-09
    0.0385294   1.10607e-09
    0.0388235   1.10607e-09
    0.0391176   1.10607e-09
    0.0394118   1.10607e-09
    0.0397059   1.10607e-09
         0.04   1.10607e-09
    0.0402941   1.10607e-09
    0.0405882   1.10607e-09
    0.0408824   1.10607e-09
    0.0411765   1.10607e-09
    0.0414706   1.10607e-09
    0.0417647   1.10607e-09
    0.0420588   1.10607e-09
    0.0423529   1.10607e-09
    0.0426471   1.10607e-09
    0.0429412   1.10607e-09
    0.0432353   1.10607e-09
    0.0435294   1.10607e-09
    0.0438235   1.10607e-09
    0.0441176   1.10607e-09
    0.0444118   1.10608e-09
    0.0447059   1.10608e-09
        0.045   1.10608e-09
    0.0452941   1.10608e-09
    0.0455882   1.10609e-09
    0.0458824    1.1061e-09
    0.0461765   1.10614e-09
    0.0464706   1.10717e-09
    0.0467647   1.11304e-09
    0.0470588   1.11917e-09
    0.0473529   1.12526e-09
    0.0476471   1.13127e-09
    0.0479412   1.13715e-09
    0.0482353   1.14287e-09
    0.0485294    1.1484e-09
    0.0488235    1.1537e-09
    0.0491176   1.15875e-09
    0.0494118    1.1635e-09
    0.0497059   1.16793e-09
         0.05   1.17201e-09
    0.0502941   1.17572e-09
    0.0505882   1.17903e-09
    0.0508824    1.1819e-09
    0.0511765   1.18433e-09
    0.0514706   1.18628e-09
    0.0517647   1.18774e-09
    0.0520588   1.18868e-09
    0.0523529    1.1891e-09
    0.0526471   1.18896e-09
    0.0529412   1.18825e-09
    0.0532353   1.18697e-09
    0.0535294    1.1851e-09
    0.0538235   1.18262e-09
    0.0541176   1.17955e-09
    0.0544118   1.17586e-09
    0.0547059   1.17157e-09
        0.055   1.16668e-09
    0.0552941   1.16121e-09
    0.0555882   1.15516e-09
    0.0558824   1.14857e-09
    0.0561765   1.14146e-09
    0.0564706   1.13386e-09
    0.0567647   1.12582e-09
    0.0570588   1.11739e-09
    0.0573529   1.10863e-09
    0.0576471   1.10607e-09
    0.0579412   1.10607e-09
    0.0582353   1.10606e-09
    0.0585294   1.10606e-09
    0.0588235   1.10606e-09
    0.0591176   1.10606e-09
    0.0594118   1.10606e-09
    0.0597059   1.10606e-09
         0.06   1.10606e-09
    0.0602941   1.10606e-09
    0.0605882   1.10606e-09
    0.0608824   1.10606e-09
    0.0611765   1.10606e-09
    0.0614706   1.10606e-09
    0.0617647   1.10606e-09
    0.0620588   1.10606e-09
    0.0623529   1.10606e-09
    0.0626471   1.10606e-09
    0.0629412   1.10606e-09
    0.0632353   1.10606e-09
    0.0635294   1.10606e-09
    0.0638235   1.10606e-09
    0.0641176   1.10606e-09
    0.0644118   1.10606e-09
    0.0647059   1.10606e-09
        0.065   1.10606e-09
    0.0652941   1.10606e-09
    0.0655882   1.10606e-09
    0.0658824   1.10606e-09
    0.0661765   1.10606e-09
    0.0664706   1.10606e-09
    0.0667647   1.10606e-09
    0.0670588   1.10606e-09
    0.0673529   1.10606e-09
    0.0676471   1.10606e-09
    0.0679412   1.10606e-09
    0.0682353   1.10606e-09
    0.0685294   1.10606e-09
    0.0688235   1.10606e-09
    0.0691176   1.10606e-09
    0.0694118   1.10606e-09
    0.0697059   1.10606e-09
         0.07   1.10606e-09
    0.0702941   1.10606e-09
    0.0705882   1.10606e-09
    0.0708824   1.10606e-09
    0.0711765   1.10606e-09
    0.0714706   1.10606e-09
    0.0717647   1.10606e-09
    0.0720588   1.10606e-09
    0.0723529   1.10606e-09
    0.0726471   1.10606e-09
    0.0729412   1.10606e-09
    0.0732353   1.10606e-09
    0.0735294   1.10606e-09
    0.0738235   1.10606e-09
    0.0741176   1.10606e-09
    0.0744118   1.10606e-09
    0.0747059   1.10606e-09
        0.075   1.10606e-09
    0.0752941   1.10606e-09
    0.0755882   1.10607e-09
    0.0758824   1.10607e-09
    0.0761765   1.10658e-09
    0.0764706   1.10786e-09
    0.0767647   1.10903e-09
    0.0770588    1.1101e-09
    0.0773529   1.11105e-09
    0.0776471   1.11191e-09
    0.0779412   1.11267e-09
    0.0782353   1.11335e-09
    0.0785294   1.11394e-09
    0.0788235   1.11446e-09
    0.0791176    1.1149e-09
    0.0794118   1.11526e-09
    0.0797059   1.11556e-09
         0.08   1.11579e-09
    0.0802941   1.11595e-09
    0.0805882   1.11606e-09
    0.0808824   1.11611e-09
    0.0811765   1.11611e-09
    0.0814706   1.11605e-09
    0.0817647   1.11594e-09
    0.0820588   1.11579e-09
    0.0823529   1.11559e-09
    0.0826471   1.11536e-09
    0.0829412   1.11508e-09
    0.0832353   1.11478e-09
    0.0835294   1.11444e-09
    0.0838235   1.11408e-09
    0.0841176   1.11369e-09
    0.0844118   1.11329e-09
    0.0847059   1.11288e-09
        0.085   1.11245e-09
    0.0852941   1.11203e-09
    0.0855882    1.1116e-09
    0.0858824   1.11118e-09
    0.0861765   1.11076e-09
    0.0864706   1.11036e-09
    0.0867647   1.10999e-09
    0.0870588   1.10963e-09
    0.0873529    1.1093e-09
    0.0876471   1.10901e-09
    0.0879412   1.10875e-09
    0.0882353   1.10852e-09
    0.0885294   1.10834e-09
    0.0888235   1.10821e-09
    0.0891176   1.10812e-09
    0.0894118   1.10808e-09
    0.0897059   1.10809e-09
         0.09   1.10815e-09
    0.0902941   1.10827e-09
    0.0905882   1.10843e-09
    0.0908824   1.10864e-09
    0.0911765   1.10891e-09
    0.0914706   1.10922e-09
    0.0917647   1.10957e-09
    0.0920588   1.10997e-09
    0.0923529    1.1104e-09
    0.0926471   1.11087e-09
    0.0929412   1.11136e-09
    0.0932353   1.11188e-09
    0.0935294   1.11242e-09
    0.0938235   1.11297e-09
    0.0941176   1.11353e-09
    0.0944118   1.11409e-09
    0.0947059   1.11464e-09
        0.095   1.11519e-09
    0.0952941   1.11571e-09
    0.0955882   1.11621e-09
    0.0958824   1.11669e-09
    0.0961765   1.11713e-09
    0.0964706   1.11753e-09
    0.0967647    1.1179e-09
    0.0970588   1.11821e-09
    0.0973529   1.11848e-09
    0.0976471    1.1187e-09
    0.0979412   1.11887e-09
    0.0982353   1.11898e-09
    0.0985294   1.11904e-09
    0.0988235   1.11905e-09
    0.0991176   1.11901e-09
    0.0994118   1.11893e-09
    0.0997059   1.11879e-09
          0.1   1.11862e-09
