/*--------------------------------*- C++ -*----------------------------------*\
| =========                 |                                                 |
| \\      /  F ield         | OpenFOAM: The Open Source CFD Toolbox           |
|  \\    /   O peration     | Version:  dev                                   |
|   \\  /    A nd           | Web:      www.OpenFOAM.org                      |
|    \\/     M anipulation  |                                                 |
\*---------------------------------------------------------------------------*/
FoamFile
{
    version     2.0;
    format      ascii;
    class       volVectorField;
    location    "0.02";
    object      U;
}
// * * * * * * * * * * * * * * * * * * * * * * * * * * * * * * * * * * * * * //

dimensions      [0 1 -1 0 0 0 0];

internalField   nonuniform List<vector> 
12
(
(9.04172e-14 -9.04172e-14 0.118983)
(8.3986e-14 -8.3986e-14 0.121484)
(7.77998e-14 -7.77998e-14 0.124088)
(7.1863e-14 -7.1863e-14 0.126804)
(6.61811e-14 -6.61811e-14 0.129507)
(6.07569e-14 -6.07569e-14 0.132153)
(5.55931e-14 -5.55931e-14 0.13471)
(5.06892e-14 -5.06892e-14 0.137286)
(4.60424e-14 -4.60424e-14 0.13989)
(4.16573e-14 -4.16573e-14 0.14241)
(3.75383e-14 -3.75383e-14 0.144856)
(3.36863e-14 -3.36863e-14 0.147239)
)
;

boundaryField
{
    wall
    {
        type            zeroGradient;
    }
    fuel
    {
        type            fixedValue;
        value           nonuniform 0();
    }
    outlet
    {
        type            pressureInletOutletVelocity;
        value           nonuniform 0();
    }
    procBoundary4to3
    {
        type            processor;
        value           uniform (9.70902e-14 -9.70902e-14 0.116431);
    }
    procBoundary4to5
    {
        type            processor;
        value           uniform (3.00994e-14 -3.00994e-14 0.14948);
    }
}


// ************************************************************************* //
