/*--------------------------------*- C++ -*----------------------------------*\
| =========                 |                                                 |
| \\      /  F ield         | OpenFOAM: The Open Source CFD Toolbox           |
|  \\    /   O peration     | Version:  dev                                   |
|   \\  /    A nd           | Web:      www.OpenFOAM.org                      |
|    \\/     M anipulation  |                                                 |
\*---------------------------------------------------------------------------*/
FoamFile
{
    version     2.0;
    format      ascii;
    class       volScalarField;
    location    "0.17";
    object      A2C2H22;
}
// * * * * * * * * * * * * * * * * * * * * * * * * * * * * * * * * * * * * * //

dimensions      [0 0 0 0 0 0 0];

internalField   nonuniform List<scalar> 
250
(
1.91694e-12
1.91705e-12
1.91749e-12
1.91684e-12
1.91709e-12
1.91694e-12
1.91911e-12
1.92447e-12
1.98404e-12
2.47861e-12
5.24917e-15
1.40473e-12
1.40491e-12
1.40496e-12
1.40466e-12
1.40494e-12
1.4047e-12
1.40632e-12
1.4157e-12
1.50323e-12
2.7387e-12
5.74675e-15
9.12513e-13
9.12809e-13
9.12736e-13
9.12555e-13
9.12762e-13
9.12585e-13
9.14396e-13
9.23769e-13
1.00539e-12
2.18529e-12
3.11474e-15
6.27753e-13
6.28113e-13
6.27999e-13
6.27783e-13
6.27983e-13
6.27934e-13
6.29773e-13
6.38784e-13
7.09889e-13
1.64966e-12
1.34418e-15
4.54381e-13
4.54757e-13
4.54635e-13
4.53779e-13
4.54553e-13
4.54647e-13
4.56314e-13
4.6488e-13
5.25553e-13
1.2345e-12
6.87103e-16
3.34369e-13
3.34766e-13
3.34736e-13
3.35277e-13
3.34503e-13
3.34745e-13
3.37175e-13
3.47616e-13
3.99326e-13
9.32129e-13
5.26718e-16
2.5335e-13
2.53711e-13
2.53696e-13
2.53643e-13
2.53337e-13
2.53764e-13
2.56018e-13
2.66529e-13
3.09767e-13
7.16751e-13
4.37691e-16
1.94811e-13
1.95127e-13
1.95111e-13
1.94985e-13
1.94549e-13
1.95244e-13
1.97322e-13
2.08243e-13
2.44072e-13
5.63908e-13
3.80921e-16
1.5141e-13
1.51628e-13
1.51754e-13
1.5134e-13
1.5136e-13
1.51755e-13
1.5361e-13
1.63094e-13
1.9322e-13
4.39473e-13
3.64322e-16
1.1986e-13
1.20021e-13
1.20162e-13
1.19738e-13
1.19421e-13
1.20172e-13
1.21812e-13
1.26978e-13
1.51472e-13
3.35974e-13
5.80825e-16
9.56448e-14
9.58482e-14
9.52874e-14
9.57089e-14
9.58547e-14
9.79134e-14
1.03382e-13
1.23717e-13
2.5757e-13
9.3047e-16
7.59524e-14
7.61885e-14
7.55438e-14
7.71023e-14
7.61713e-14
7.81128e-14
8.33641e-14
1.01588e-13
2.06953e-13
1.76922e-15
6.10958e-14
6.1358e-14
6.05778e-14
6.20518e-14
6.13065e-14
6.31548e-14
6.79033e-14
8.37266e-14
1.67891e-13
3.63833e-15
4.97703e-14
5.00494e-14
4.90564e-14
5.06259e-14
4.99654e-14
5.17263e-14
5.59385e-14
6.99399e-14
1.38033e-13
7.1984e-15
4.10384e-14
4.13266e-14
4.11859e-14
4.18363e-14
4.12156e-14
4.28852e-14
4.65672e-14
5.91614e-14
1.15386e-13
1.29483e-14
3.42273e-14
3.45121e-14
3.4302e-14
3.49718e-14
3.43867e-14
3.59578e-14
3.91417e-14
5.06045e-14
9.80665e-14
2.10719e-14
2.88523e-14
2.91243e-14
2.88667e-14
2.95397e-14
2.89952e-14
3.04605e-14
3.31952e-14
4.36944e-14
8.51176e-14
3.14706e-14
2.45608e-14
2.48137e-14
2.45221e-14
2.51868e-14
2.46887e-14
2.60428e-14
2.83818e-14
3.80061e-14
7.5374e-14
4.3861e-14
2.10933e-14
2.13232e-14
2.10019e-14
2.16561e-14
2.12077e-14
2.24476e-14
2.4437e-14
3.322e-14
6.7864e-14
5.78007e-14
1.82563e-14
1.8462e-14
1.81018e-14
1.87569e-14
1.83585e-14
1.94836e-14
2.11606e-14
2.95849e-14
6.19004e-14
7.26276e-14
1.59035e-14
1.60862e-14
1.59476e-14
1.63459e-14
1.59945e-14
1.70059e-14
1.83878e-14
2.6318e-14
5.7003e-14
8.74413e-14
1.39204e-14
1.40819e-14
1.39319e-14
1.43053e-14
1.4001e-14
1.4901e-14
1.62964e-14
2.32753e-14
5.24512e-14
1.01198e-13
1.24062e-14
1.25558e-14
1.2386e-14
1.27471e-14
1.24794e-14
1.32869e-14
1.45148e-14
2.08645e-14
4.80781e-14
1.12894e-13
1.10069e-14
1.11552e-14
1.106e-14
1.13218e-14
1.10738e-14
1.18224e-14
1.28835e-14
1.8701e-14
4.40407e-14
1.21702e-13
)
;

boundaryField
{
    fuel
    {
        type            fixedValue;
        value           uniform 0;
    }
    wall
    {
        type            zeroGradient;
    }
    outlet
    {
        type            zeroGradient;
    }
    frontAndBack
    {
        type            empty;
    }
    procBoundary3to0
    {
        type            processor;
        value           nonuniform List<scalar> 10(9.88051e-15 1.00211e-14 9.91623e-15 1.01591e-14 9.94113e-15 1.06096e-14 1.15459e-14 1.66239e-14 4.06589e-14 1.26958e-13);
    }
    procBoundary3to2
    {
        type            processor;
        value           nonuniform List<scalar> 
25
(
1.91715e-12
1.40489e-12
9.1277e-13
6.28065e-13
4.54709e-13
3.3472e-13
2.5367e-13
1.95092e-13
1.5162e-13
1.20022e-13
9.55065e-14
9.55065e-14
7.58754e-14
6.1068e-14
4.97798e-14
4.10745e-14
3.42815e-14
2.89179e-14
2.4633e-14
2.11686e-14
1.8332e-14
1.59777e-14
1.39913e-14
1.24742e-14
1.10723e-14
)
;
    }
}


// ************************************************************************* //
