/*--------------------------------*- C++ -*----------------------------------*\
| =========                 |                                                 |
| \\      /  F ield         | OpenFOAM: The Open Source CFD Toolbox           |
|  \\    /   O peration     | Version:  dev                                   |
|   \\  /    A nd           | Web:      www.OpenFOAM.org                      |
|    \\/     M anipulation  |                                                 |
\*---------------------------------------------------------------------------*/
FoamFile
{
    version     2.0;
    format      ascii;
    class       volScalarField;
    location    "0.17";
    object      A2R5-;
}
// * * * * * * * * * * * * * * * * * * * * * * * * * * * * * * * * * * * * * //

dimensions      [0 0 0 0 0 0 0];

internalField   nonuniform List<scalar> 
250
(
2.23817e-08
2.23824e-08
2.23881e-08
2.23869e-08
2.2387e-08
2.23913e-08
2.24127e-08
2.25806e-08
2.38058e-08
3.06303e-08
8.11947e-10
2.78252e-08
2.78245e-08
2.78352e-08
2.78331e-08
2.78338e-08
2.7842e-08
2.78779e-08
2.81706e-08
3.01977e-08
4.14749e-08
1.81755e-09
2.7306e-08
2.73053e-08
2.73196e-08
2.73121e-08
2.73128e-08
2.73279e-08
2.73701e-08
2.77239e-08
3.01089e-08
4.24604e-08
2.1357e-09
2.52118e-08
2.5209e-08
2.52229e-08
2.52083e-08
2.52121e-08
2.52358e-08
2.52818e-08
2.56659e-08
2.81809e-08
3.99967e-08
1.83101e-09
2.28919e-08
2.2888e-08
2.28788e-08
2.28592e-08
2.28721e-08
2.29142e-08
2.29643e-08
2.33608e-08
2.58876e-08
3.66151e-08
1.26835e-09
2.06685e-08
2.06651e-08
2.07113e-08
2.06948e-08
2.06866e-08
2.06872e-08
2.07522e-08
2.12189e-08
2.37696e-08
3.33099e-08
7.75381e-10
1.88773e-08
1.88766e-08
1.88977e-08
1.88779e-08
1.88793e-08
1.88929e-08
1.89688e-08
1.94563e-08
2.19768e-08
3.03702e-08
4.67947e-10
1.73678e-08
1.73722e-08
1.73837e-08
1.73544e-08
1.73649e-08
1.73847e-08
1.74743e-08
1.79926e-08
2.04084e-08
2.77987e-08
3.23847e-10
1.60724e-08
1.60612e-08
1.60673e-08
1.60506e-08
1.6045e-08
1.60673e-08
1.61637e-08
1.6637e-08
1.89459e-08
2.55272e-08
3.27717e-10
1.49355e-08
1.49274e-08
1.49321e-08
1.49081e-08
1.49086e-08
1.49326e-08
1.49608e-08
1.53809e-08
1.78058e-08
2.34936e-08
4.684e-10
1.39091e-08
1.39162e-08
1.38785e-08
1.38885e-08
1.39154e-08
1.39536e-08
1.43831e-08
1.66583e-08
2.16538e-08
7.13596e-10
1.2853e-08
1.28598e-08
1.28106e-08
1.28345e-08
1.28605e-08
1.29021e-08
1.33658e-08
1.55428e-08
1.99855e-08
1.06431e-09
1.18619e-08
1.18684e-08
1.18039e-08
1.18481e-08
1.18714e-08
1.19181e-08
1.23895e-08
1.46076e-08
1.84793e-08
1.45269e-09
1.0927e-08
1.09331e-08
1.08465e-08
1.09198e-08
1.09389e-08
1.09901e-08
1.14642e-08
1.3649e-08
1.71258e-08
1.84128e-09
1.00442e-08
1.005e-08
1.00531e-08
1.00451e-08
1.00585e-08
1.01128e-08
1.05847e-08
1.26612e-08
1.59144e-08
2.22468e-09
9.21214e-09
9.21699e-09
9.21507e-09
9.21999e-09
9.22871e-09
9.28423e-09
9.74889e-09
1.18197e-08
1.48316e-08
2.60287e-09
8.43005e-09
8.43371e-09
8.42615e-09
8.44337e-09
8.4487e-09
8.50397e-09
8.95466e-09
1.10125e-08
1.38362e-08
2.96529e-09
7.69741e-09
7.69976e-09
7.68526e-09
7.71444e-09
7.71786e-09
7.77172e-09
8.19976e-09
1.01511e-08
1.28212e-08
3.29005e-09
7.01318e-09
7.0143e-09
6.99067e-09
7.03235e-09
7.03511e-09
7.08668e-09
7.48109e-09
9.3257e-09
1.18774e-08
3.5545e-09
6.37548e-09
6.37571e-09
6.33909e-09
6.39578e-09
6.39859e-09
6.44729e-09
6.8806e-09
8.54147e-09
1.09903e-08
3.74418e-09
5.78151e-09
5.78146e-09
5.79952e-09
5.80268e-09
5.80549e-09
5.8502e-09
6.27504e-09
7.79643e-09
1.01466e-08
3.85884e-09
5.22699e-09
5.22689e-09
5.24134e-09
5.24797e-09
5.2515e-09
5.29074e-09
5.68315e-09
7.09e-09
9.42127e-09
3.91108e-09
4.76626e-09
4.76656e-09
4.77813e-09
4.78667e-09
4.79098e-09
4.8233e-09
5.18768e-09
6.42168e-09
8.60066e-09
3.91769e-09
4.31048e-09
4.31212e-09
4.32095e-09
4.33119e-09
4.33693e-09
4.39028e-09
4.7213e-09
5.78921e-09
7.88622e-09
3.89814e-09
)
;

boundaryField
{
    fuel
    {
        type            fixedValue;
        value           uniform 0;
    }
    wall
    {
        type            zeroGradient;
    }
    outlet
    {
        type            zeroGradient;
    }
    frontAndBack
    {
        type            empty;
    }
    procBoundary3to0
    {
        type            processor;
        value           nonuniform List<scalar> 10(3.91424e-09 3.91669e-09 3.92342e-09 3.93396e-09 3.94061e-09 3.98952e-09 4.29186e-09 5.18807e-09 7.191e-09 3.86405e-09);
    }
    procBoundary3to2
    {
        type            processor;
        value           nonuniform List<scalar> 
25
(
2.23858e-08
2.78341e-08
2.73165e-08
2.52184e-08
2.28736e-08
2.07067e-08
1.88939e-08
1.73812e-08
1.60698e-08
1.49377e-08
1.39166e-08
1.39166e-08
1.28577e-08
1.18642e-08
1.09272e-08
1.00425e-08
9.20866e-09
8.4249e-09
7.69067e-09
7.00492e-09
6.36584e-09
5.77066e-09
5.21517e-09
4.75376e-09
4.29676e-09
)
;
    }
}


// ************************************************************************* //
