/*--------------------------------*- C++ -*----------------------------------*\
| =========                 |                                                 |
| \\      /  F ield         | OpenFOAM: The Open Source CFD Toolbox           |
|  \\    /   O peration     | Version:  dev                                   |
|   \\  /    A nd           | Web:      www.OpenFOAM.org                      |
|    \\/     M anipulation  |                                                 |
\*---------------------------------------------------------------------------*/
FoamFile
{
    version     2.0;
    format      ascii;
    class       volScalarField;
    location    "0.17";
    object      C2H;
}
// * * * * * * * * * * * * * * * * * * * * * * * * * * * * * * * * * * * * * //

dimensions      [0 0 0 0 0 0 0];

internalField   nonuniform List<scalar> 
250
(
1.14273e-05
1.14283e-05
1.14292e-05
1.1429e-05
1.14281e-05
1.14271e-05
1.14391e-05
1.14087e-05
1.11903e-05
7.54278e-06
1.66755e-09
1.02692e-05
1.02711e-05
1.02698e-05
1.02711e-05
1.02706e-05
1.02688e-05
1.02741e-05
1.02577e-05
1.00858e-05
7.27462e-06
2.45152e-09
7.01327e-06
7.01582e-06
7.01399e-06
7.01528e-06
7.01522e-06
7.01322e-06
7.01802e-06
7.00759e-06
6.86597e-06
4.70973e-06
1.98449e-09
4.70908e-06
4.71169e-06
4.70991e-06
4.71039e-06
4.71096e-06
4.7095e-06
4.71334e-06
4.70645e-06
4.58228e-06
2.89706e-06
1.39089e-09
3.35923e-06
3.36152e-06
3.36e-06
3.3558e-06
3.36069e-06
3.35992e-06
3.36179e-06
3.35513e-06
3.23983e-06
1.86642e-06
9.80131e-10
2.56013e-06
2.56222e-06
2.56153e-06
2.56636e-06
2.56142e-06
2.56123e-06
2.5673e-06
2.57299e-06
2.46605e-06
1.30645e-06
7.4183e-10
2.11179e-06
2.11347e-06
2.11312e-06
2.11359e-06
2.1125e-06
2.1129e-06
2.11809e-06
2.12396e-06
2.01961e-06
1.00383e-06
6.19585e-10
1.83871e-06
1.84006e-06
1.83998e-06
1.83941e-06
1.83852e-06
1.8398e-06
1.84482e-06
1.85292e-06
1.75043e-06
8.43276e-07
5.77551e-10
1.66044e-06
1.66133e-06
1.66206e-06
1.65983e-06
1.66125e-06
1.66115e-06
1.66625e-06
1.67035e-06
1.57367e-06
7.53162e-07
6.40569e-10
1.53887e-06
1.53951e-06
1.54054e-06
1.53774e-06
1.53838e-06
1.53946e-06
1.54489e-06
1.5354e-06
1.44392e-06
7.06172e-07
1.28149e-09
1.44512e-06
1.44666e-06
1.44268e-06
1.44678e-06
1.44537e-06
1.45367e-06
1.44725e-06
1.36046e-06
6.90288e-07
2.74342e-09
1.363e-06
1.36498e-06
1.35983e-06
1.36977e-06
1.36339e-06
1.3728e-06
1.36762e-06
1.29162e-06
6.93156e-07
6.8878e-09
1.29231e-06
1.29474e-06
1.28803e-06
1.29911e-06
1.2928e-06
1.30349e-06
1.29831e-06
1.23047e-06
7.05494e-07
1.72608e-08
1.22847e-06
1.23135e-06
1.22252e-06
1.23578e-06
1.22905e-06
1.24107e-06
1.23556e-06
1.17593e-06
7.22314e-07
3.84949e-08
1.16891e-06
1.17222e-06
1.1687e-06
1.17696e-06
1.16957e-06
1.18289e-06
1.17683e-06
1.12515e-06
7.39631e-07
7.47616e-08
1.1121e-06
1.11579e-06
1.11123e-06
1.12088e-06
1.11286e-06
1.1274e-06
1.12062e-06
1.07636e-06
7.5425e-07
1.2823e-07
1.05709e-06
1.06109e-06
1.05552e-06
1.06652e-06
1.05794e-06
1.07358e-06
1.06599e-06
1.02844e-06
7.63615e-07
1.97556e-07
1.00319e-06
1.00744e-06
1.00084e-06
1.01317e-06
1.00413e-06
1.02075e-06
1.01228e-06
9.80562e-07
7.66193e-07
2.76969e-07
9.49878e-07
9.54306e-07
9.46555e-07
9.60314e-07
9.50908e-07
9.68349e-07
9.58929e-07
9.31987e-07
7.61349e-07
3.57074e-07
8.96673e-07
9.01259e-07
8.92012e-07
9.07489e-07
8.97795e-07
9.15903e-07
9.05376e-07
8.88079e-07
7.49246e-07
4.2753e-07
8.43128e-07
8.47898e-07
8.4308e-07
8.54276e-07
8.44333e-07
8.62951e-07
8.5087e-07
8.41505e-07
7.30469e-07
4.8017e-07
7.88716e-07
7.93721e-07
7.87864e-07
8.0005e-07
7.89986e-07
8.08958e-07
8.02001e-07
7.90702e-07
7.03607e-07
5.10902e-07
7.39224e-07
7.44653e-07
7.37387e-07
7.50784e-07
7.40578e-07
7.59839e-07
7.52805e-07
7.44153e-07
6.68929e-07
5.19916e-07
6.84855e-07
6.91184e-07
6.86134e-07
6.97317e-07
6.86322e-07
7.07177e-07
6.99655e-07
6.96151e-07
6.29582e-07
5.10544e-07
)
;

boundaryField
{
    fuel
    {
        type            fixedValue;
        value           uniform 0;
    }
    wall
    {
        type            zeroGradient;
    }
    outlet
    {
        type            zeroGradient;
    }
    frontAndBack
    {
        type            empty;
    }
    procBoundary3to0
    {
        type            processor;
        value           nonuniform List<scalar> 10(6.3343e-07 6.40287e-07 6.34139e-07 6.46084e-07 6.34953e-07 6.56077e-07 6.48813e-07 6.43312e-07 5.92365e-07 4.87303e-07);
    }
    procBoundary3to2
    {
        type            processor;
        value           nonuniform List<scalar> 
25
(
1.14294e-05
1.02715e-05
7.01606e-06
4.71181e-06
3.36157e-06
2.56222e-06
2.11347e-06
1.84007e-06
1.66145e-06
1.53968e-06
1.44466e-06
1.44466e-06
1.36282e-06
1.29241e-06
1.22884e-06
1.16955e-06
1.11302e-06
1.05827e-06
1.00463e-06
9.51566e-07
8.98595e-07
8.45258e-07
7.91023e-07
7.41687e-07
6.87528e-07
)
;
    }
}


// ************************************************************************* //
