/*--------------------------------*- C++ -*----------------------------------*\
| =========                 |                                                 |
| \\      /  F ield         | OpenFOAM: The Open Source CFD Toolbox           |
|  \\    /   O peration     | Version:  dev                                   |
|   \\  /    A nd           | Web:      www.OpenFOAM.org                      |
|    \\/     M anipulation  |                                                 |
\*---------------------------------------------------------------------------*/
FoamFile
{
    version     2.0;
    format      ascii;
    class       volScalarField;
    location    "0.17";
    object      C2H5;
}
// * * * * * * * * * * * * * * * * * * * * * * * * * * * * * * * * * * * * * //

dimensions      [0 0 0 0 0 0 0];

internalField   nonuniform List<scalar> 
250
(
1.84187e-06
1.84153e-06
1.84101e-06
1.84193e-06
1.84177e-06
1.84188e-06
1.8427e-06
1.84608e-06
1.88132e-06
2.17483e-06
1.60663e-06
8.84447e-07
8.8431e-07
8.83989e-07
8.84452e-07
8.84399e-07
8.84492e-07
8.84745e-07
8.86765e-07
9.02183e-07
1.03287e-06
1.57718e-06
4.38382e-07
4.38329e-07
4.38167e-07
4.38339e-07
4.38353e-07
4.38423e-07
4.38458e-07
4.39653e-07
4.46803e-07
5.21974e-07
1.2861e-06
2.30307e-07
2.30253e-07
2.30097e-07
2.30128e-07
2.30217e-07
2.30326e-07
2.30284e-07
2.30888e-07
2.342e-07
2.9082e-07
1.17636e-06
1.33679e-07
1.33629e-07
1.3303e-07
1.33005e-07
1.33246e-07
1.33676e-07
1.33595e-07
1.33637e-07
1.34912e-07
1.85051e-07
1.30772e-06
8.58714e-08
8.58306e-08
8.6394e-08
8.64056e-08
8.62682e-08
8.58665e-08
8.58956e-08
8.64988e-08
8.76046e-08
1.34262e-07
1.7821e-06
6.33007e-08
6.32804e-08
6.34324e-08
6.34451e-08
6.34123e-08
6.32914e-08
6.33227e-08
6.36782e-08
6.41873e-08
1.0886e-07
3.19437e-06
5.14372e-08
5.14491e-08
5.14843e-08
5.1451e-08
5.14916e-08
5.14481e-08
5.15084e-08
5.18098e-08
5.14746e-08
9.93639e-08
8.10992e-06
4.47945e-08
4.47442e-08
4.47418e-08
4.47613e-08
4.47355e-08
4.47209e-08
4.47947e-08
4.47684e-08
4.38616e-08
1.07253e-07
2.56298e-05
4.08164e-08
4.07864e-08
4.07784e-08
4.0767e-08
4.07646e-08
4.07659e-08
4.06389e-08
4.04178e-08
3.97779e-08
1.12837e-07
3.82798e-05
3.82298e-08
3.82293e-08
3.8185e-08
3.82019e-08
3.8216e-08
3.81386e-08
3.7922e-08
3.68069e-08
9.88684e-08
3.09903e-05
3.6211e-08
3.62125e-08
3.61488e-08
3.61865e-08
3.62036e-08
3.61405e-08
3.59749e-08
3.45767e-08
7.83986e-08
1.99554e-05
3.46352e-08
3.46385e-08
3.45519e-08
3.46181e-08
3.46346e-08
3.45836e-08
3.44238e-08
3.30219e-08
6.02638e-08
1.14235e-05
3.32932e-08
3.32975e-08
3.31776e-08
3.32857e-08
3.32992e-08
3.32578e-08
3.31046e-08
3.16284e-08
4.69428e-08
6.17612e-06
3.20737e-08
3.20785e-08
3.20788e-08
3.20775e-08
3.20861e-08
3.20516e-08
3.19079e-08
3.03139e-08
3.78532e-08
3.26701e-06
3.09163e-08
3.09205e-08
3.09092e-08
3.093e-08
3.0935e-08
3.09051e-08
3.07738e-08
2.92492e-08
3.17565e-08
1.7228e-06
2.97868e-08
2.979e-08
2.97668e-08
2.9809e-08
2.98118e-08
2.97852e-08
2.96664e-08
2.8252e-08
2.75685e-08
9.13676e-07
2.86646e-08
2.86665e-08
2.86295e-08
2.86936e-08
2.86962e-08
2.86718e-08
2.85615e-08
2.71899e-08
2.44001e-08
4.89685e-07
2.75354e-08
2.75364e-08
2.74811e-08
2.75702e-08
2.75737e-08
2.75511e-08
2.74397e-08
2.61564e-08
2.21375e-08
2.66583e-07
2.63874e-08
2.63882e-08
2.63059e-08
2.64273e-08
2.64326e-08
2.64112e-08
2.64324e-08
2.5141e-08
2.0467e-08
1.4851e-07
2.52082e-08
2.52102e-08
2.52395e-08
2.5254e-08
2.52606e-08
2.52387e-08
2.53225e-08
2.41249e-08
1.91887e-08
8.55292e-08
2.3983e-08
2.39867e-08
2.40085e-08
2.40332e-08
2.40426e-08
2.40168e-08
2.4125e-08
2.30929e-08
1.82701e-08
5.15674e-08
2.28497e-08
2.2856e-08
2.28715e-08
2.29034e-08
2.29158e-08
2.28811e-08
2.30184e-08
2.20317e-08
1.73834e-08
3.29828e-08
2.15835e-08
2.15951e-08
2.16042e-08
2.16442e-08
2.16617e-08
2.17004e-08
2.18558e-08
2.0922e-08
1.66688e-08
2.26177e-08
)
;

boundaryField
{
    fuel
    {
        type            fixedValue;
        value           uniform 0;
    }
    wall
    {
        type            zeroGradient;
    }
    outlet
    {
        type            zeroGradient;
    }
    frontAndBack
    {
        type            empty;
    }
    procBoundary3to0
    {
        type            processor;
        value           nonuniform List<scalar> 10(2.03452e-08 2.03604e-08 2.03646e-08 2.04089e-08 2.04304e-08 2.04692e-08 2.06547e-08 1.97405e-08 1.59903e-08 1.67482e-08);
    }
    procBoundary3to2
    {
        type            processor;
        value           nonuniform List<scalar> 
25
(
1.84177e-06
8.84418e-07
4.3835e-07
2.30154e-07
1.33033e-07
8.63843e-08
6.34187e-08
5.147e-08
4.4742e-08
4.07824e-08
3.82534e-08
3.82534e-08
3.62227e-08
3.46395e-08
3.32923e-08
3.20685e-08
3.09073e-08
2.9774e-08
2.8648e-08
2.75149e-08
2.63628e-08
2.51793e-08
2.39496e-08
2.28123e-08
2.15393e-08
)
;
    }
}


// ************************************************************************* //
