/*--------------------------------*- C++ -*----------------------------------*\
| =========                 |                                                 |
| \\      /  F ield         | OpenFOAM: The Open Source CFD Toolbox           |
|  \\    /   O peration     | Version:  dev                                   |
|   \\  /    A nd           | Web:      www.OpenFOAM.org                      |
|    \\/     M anipulation  |                                                 |
\*---------------------------------------------------------------------------*/
FoamFile
{
    version     2.0;
    format      ascii;
    class       volScalarField;
    location    "0.17";
    object      C5H5O;
}
// * * * * * * * * * * * * * * * * * * * * * * * * * * * * * * * * * * * * * //

dimensions      [0 0 0 0 0 0 0];

internalField   nonuniform List<scalar> 
50
(
6.5003e-27
6.47763e-27
6.46311e-27
6.45831e-27
6.4622e-27
6.47331e-27
6.48968e-27
6.50854e-27
6.52822e-27
6.54686e-27
6.56236e-27
6.57127e-27
6.56948e-27
6.55472e-27
6.52364e-27
6.4717e-27
6.39552e-27
6.28964e-27
6.15565e-27
5.99054e-27
5.79382e-27
5.56622e-27
5.3097e-27
5.0275e-27
4.7257e-27
4.40728e-27
4.08378e-27
3.75385e-27
3.43577e-27
3.13885e-27
2.86469e-27
2.61729e-27
2.39867e-27
2.20513e-27
2.04297e-27
1.90308e-27
1.78873e-27
1.69397e-27
1.61571e-27
1.55003e-27
1.49445e-27
1.44329e-27
1.38945e-27
1.323e-27
1.23187e-27
1.10506e-27
9.3794e-28
7.35214e-28
5.02256e-28
2.23695e-28
)
;

boundaryField
{
    wall
    {
        type            zeroGradient;
    }
    fuel
    {
        type            fixedValue;
        value           nonuniform 0();
    }
    outlet
    {
        type            inletOutlet;
        inletValue      uniform 0;
        value           uniform 0;
    }
    procBoundary3to2
    {
        type            processor;
        value           uniform 6.52573e-27;
    }
}


// ************************************************************************* //
