/*--------------------------------*- C++ -*----------------------------------*\
| =========                 |                                                 |
| \\      /  F ield         | OpenFOAM: The Open Source CFD Toolbox           |
|  \\    /   O peration     | Version:  dev                                   |
|   \\  /    A nd           | Web:      www.OpenFOAM.org                      |
|    \\/     M anipulation  |                                                 |
\*---------------------------------------------------------------------------*/
FoamFile
{
    version     2.0;
    format      ascii;
    class       volScalarField;
    location    "0.17";
    object      HCCOH;
}
// * * * * * * * * * * * * * * * * * * * * * * * * * * * * * * * * * * * * * //

dimensions      [0 0 0 0 0 0 0];

internalField   nonuniform List<scalar> 
250
(
2.18089e-05
2.18086e-05
2.18071e-05
2.18101e-05
2.18079e-05
2.18073e-05
2.18097e-05
2.18075e-05
2.17423e-05
1.99286e-05
3.5959e-07
2.04618e-05
2.04637e-05
2.04624e-05
2.04632e-05
2.04631e-05
2.04616e-05
2.04682e-05
2.04733e-05
2.04374e-05
1.86609e-05
6.85034e-07
1.8399e-05
1.84021e-05
1.84008e-05
1.84007e-05
1.84011e-05
1.83996e-05
1.84108e-05
1.84232e-05
1.83788e-05
1.59098e-05
7.77863e-07
1.69279e-05
1.69317e-05
1.69308e-05
1.69288e-05
1.69303e-05
1.69294e-05
1.6945e-05
1.69658e-05
1.69006e-05
1.37057e-05
7.29168e-07
1.58426e-05
1.58469e-05
1.58467e-05
1.58381e-05
1.58449e-05
1.5845e-05
1.58651e-05
1.58958e-05
1.5811e-05
1.21301e-05
6.27173e-07
1.49256e-05
1.49304e-05
1.4932e-05
1.49319e-05
1.49278e-05
1.49293e-05
1.49633e-05
1.50257e-05
1.49349e-05
1.1073e-05
5.23453e-07
1.41686e-05
1.41734e-05
1.41762e-05
1.41692e-05
1.41693e-05
1.41732e-05
1.42143e-05
1.42973e-05
1.42058e-05
1.04138e-05
4.4008e-07
1.34948e-05
1.34995e-05
1.35035e-05
1.34932e-05
1.34924e-05
1.35002e-05
1.3549e-05
1.36586e-05
1.35752e-05
1.00398e-05
3.86422e-07
1.28756e-05
1.28791e-05
1.28867e-05
1.28687e-05
1.28767e-05
1.28803e-05
1.29364e-05
1.3047e-05
1.29925e-05
9.81283e-06
3.72184e-07
1.23161e-05
1.23189e-05
1.23284e-05
1.23058e-05
1.23115e-05
1.2321e-05
1.23842e-05
1.24368e-05
1.24124e-05
9.65036e-06
4.19125e-07
1.1779e-05
1.1792e-05
1.17608e-05
1.17902e-05
1.17833e-05
1.18684e-05
1.19443e-05
1.19459e-05
9.54864e-06
5.33626e-07
1.1232e-05
1.12482e-05
1.12079e-05
1.1281e-05
1.12377e-05
1.13337e-05
1.14247e-05
1.1491e-05
9.49619e-06
7.84547e-07
1.07177e-05
1.0737e-05
1.0685e-05
1.07689e-05
1.07244e-05
1.08312e-05
1.09277e-05
1.10386e-05
9.45422e-06
1.24962e-06
1.02334e-05
1.02558e-05
1.01883e-05
1.0289e-05
1.02409e-05
1.03579e-05
1.04557e-05
1.06096e-05
9.40881e-06
1.94763e-06
9.77677e-06
9.80213e-06
9.777e-06
9.83758e-06
9.78498e-06
9.91088e-06
1.00065e-05
1.02003e-05
9.34817e-06
2.82963e-06
9.34552e-06
9.37317e-06
9.34174e-06
9.41079e-06
9.35427e-06
9.48761e-06
9.57823e-06
9.8069e-06
9.2613e-06
3.80731e-06
8.93729e-06
8.96657e-06
8.9291e-06
9.00589e-06
8.94647e-06
9.08554e-06
9.16911e-06
9.42622e-06
9.14759e-06
4.78364e-06
8.54968e-06
8.57993e-06
8.53633e-06
8.62039e-06
8.55918e-06
8.70215e-06
8.77716e-06
9.05491e-06
9.00423e-06
5.6745e-06
8.18017e-06
8.21079e-06
8.16045e-06
8.2519e-06
8.18989e-06
8.33494e-06
8.39992e-06
8.68922e-06
8.83068e-06
6.4204e-06
7.82609e-06
7.85665e-06
7.79777e-06
7.89798e-06
7.83594e-06
7.9813e-06
8.03446e-06
8.36928e-06
8.62989e-06
6.98909e-06
7.48457e-06
7.51499e-06
7.4858e-06
7.55606e-06
7.49445e-06
7.63848e-06
7.67642e-06
8.0411e-06
8.40567e-06
7.37217e-06
7.15208e-06
7.18248e-06
7.14885e-06
7.22216e-06
7.16185e-06
7.30314e-06
7.3675e-06
7.69484e-06
8.13935e-06
7.57872e-06
6.86158e-06
6.89321e-06
6.85292e-06
6.93078e-06
6.87144e-06
7.00993e-06
7.06837e-06
7.38738e-06
7.83243e-06
7.62978e-06
6.55487e-06
6.59038e-06
6.56362e-06
6.62689e-06
6.56506e-06
6.7076e-06
6.75739e-06
7.08002e-06
7.50978e-06
7.55244e-06
)
;

boundaryField
{
    fuel
    {
        type            fixedValue;
        value           uniform 0;
    }
    wall
    {
        type            zeroGradient;
    }
    outlet
    {
        type            zeroGradient;
    }
    frontAndBack
    {
        type            empty;
    }
    procBoundary3to0
    {
        type            processor;
        value           nonuniform List<scalar> 10(6.27365e-06 6.31137e-06 6.27938e-06 6.34503e-06 6.28389e-06 6.42381e-06 6.46877e-06 6.75161e-06 7.21724e-06 7.37137e-06);
    }
    procBoundary3to2
    {
        type            processor;
        value           nonuniform List<scalar> 
25
(
2.18086e-05
2.04639e-05
1.84023e-05
1.69317e-05
1.58468e-05
1.49303e-05
1.41733e-05
1.34995e-05
1.28797e-05
1.23198e-05
1.17767e-05
1.17767e-05
1.12313e-05
1.07187e-05
1.02362e-05
9.78133e-06
9.35181e-06
8.94525e-06
8.55921e-06
8.19113e-06
7.83833e-06
7.49787e-06
7.1662e-06
6.87639e-06
6.57063e-06
)
;
    }
}


// ************************************************************************* //
