/*--------------------------------*- C++ -*----------------------------------*\
| =========                 |                                                 |
| \\      /  F ield         | OpenFOAM: The Open Source CFD Toolbox           |
|  \\    /   O peration     | Version:  dev                                   |
|   \\  /    A nd           | Web:      www.OpenFOAM.org                      |
|    \\/     M anipulation  |                                                 |
\*---------------------------------------------------------------------------*/
FoamFile
{
    version     2.0;
    format      ascii;
    class       volScalarField;
    location    "0.17";
    object      HO2;
}
// * * * * * * * * * * * * * * * * * * * * * * * * * * * * * * * * * * * * * //

dimensions      [0 0 0 0 0 0 0];

internalField   nonuniform List<scalar> 
50
(
3.37543e-11
3.16154e-11
2.96247e-11
2.77952e-11
2.61061e-11
2.45427e-11
2.30898e-11
2.17205e-11
2.04414e-11
1.9253e-11
1.81529e-11
1.71238e-11
1.6146e-11
1.52354e-11
1.43841e-11
1.35797e-11
1.28196e-11
1.20879e-11
1.14018e-11
1.07487e-11
1.01251e-11
9.52802e-12
8.95469e-12
8.40299e-12
7.87443e-12
7.36398e-12
6.88076e-12
6.41465e-12
5.98586e-12
5.60255e-12
5.26412e-12
4.97486e-12
4.7374e-12
4.54845e-12
4.41597e-12
4.33219e-12
4.30147e-12
4.32118e-12
4.39264e-12
4.52049e-12
4.70901e-12
4.96652e-12
5.29668e-12
5.69017e-12
6.10976e-12
6.47446e-12
6.65068e-12
6.43933e-12
5.47916e-12
2.99543e-12
)
;

boundaryField
{
    wall
    {
        type            zeroGradient;
    }
    fuel
    {
        type            fixedValue;
        value           nonuniform 0();
    }
    outlet
    {
        type            inletOutlet;
        inletValue      uniform 0;
        value           uniform 0;
    }
    procBoundary3to2
    {
        type            processor;
        value           uniform 3.60689e-11;
    }
}


// ************************************************************************* //
