/*--------------------------------*- C++ -*----------------------------------*\
| =========                 |                                                 |
| \\      /  F ield         | OpenFOAM: The Open Source CFD Toolbox           |
|  \\    /   O peration     | Version:  dev                                   |
|   \\  /    A nd           | Web:      www.OpenFOAM.org                      |
|    \\/     M anipulation  |                                                 |
\*---------------------------------------------------------------------------*/
FoamFile
{
    version     2.0;
    format      ascii;
    class       volScalarField;
    location    "0.17";
    object      n-A1C2H2;
}
// * * * * * * * * * * * * * * * * * * * * * * * * * * * * * * * * * * * * * //

dimensions      [0 0 0 0 0 0 0];

internalField   nonuniform List<scalar> 
250
(
5.85771e-09
5.86176e-09
5.85627e-09
5.85907e-09
5.85866e-09
5.85876e-09
5.86352e-09
5.8959e-09
6.09094e-09
7.63094e-09
1.68961e-11
2.95042e-09
2.95181e-09
2.94985e-09
2.95099e-09
2.95062e-09
2.95128e-09
2.95362e-09
2.97226e-09
3.09646e-09
4.0841e-09
1.66999e-10
1.44932e-09
1.44952e-09
1.4491e-09
1.44932e-09
1.4493e-09
1.44994e-09
1.4512e-09
1.46373e-09
1.54801e-09
2.2667e-09
4.01255e-10
7.46595e-10
7.46486e-10
7.46168e-10
7.45906e-10
7.46223e-10
7.47037e-10
7.47809e-10
7.56418e-10
8.16435e-10
1.38733e-09
5.63816e-10
4.17706e-10
4.17544e-10
4.15564e-10
4.15188e-10
4.16089e-10
4.17961e-10
4.18466e-10
4.24041e-10
4.68628e-10
9.47974e-10
6.05066e-10
2.4881e-10
2.48673e-10
2.50718e-10
2.5065e-10
2.50209e-10
2.48943e-10
2.49795e-10
2.56904e-10
2.95284e-10
7.11396e-10
5.4003e-10
1.63905e-10
1.63848e-10
1.6438e-10
1.64348e-10
1.64282e-10
1.63951e-10
1.64791e-10
1.70664e-10
2.03021e-10
5.70186e-10
4.9017e-10
1.15508e-10
1.15581e-10
1.15679e-10
1.15473e-10
1.15675e-10
1.15605e-10
1.16545e-10
1.21984e-10
1.48076e-10
4.76483e-10
6.40602e-10
8.60564e-11
8.58222e-11
8.57756e-11
8.58657e-11
8.57247e-11
8.57345e-11
8.66794e-11
9.0362e-11
1.11749e-10
4.08647e-10
1.65209e-09
6.71999e-11
6.70477e-11
6.69849e-11
6.69789e-11
6.69193e-11
6.69691e-11
6.68566e-11
6.93182e-11
9.08575e-11
3.55821e-10
3.3671e-09
5.45299e-11
5.45089e-11
5.43808e-11
5.43895e-11
5.44797e-11
5.45569e-11
5.68774e-11
7.51185e-11
3.11456e-10
4.5954e-09
4.48283e-11
4.48186e-11
4.46381e-11
4.47108e-11
4.48018e-11
4.49268e-11
4.73403e-11
6.34129e-11
2.72197e-10
4.65444e-09
3.78419e-11
3.78418e-11
3.75989e-11
3.77565e-11
3.78374e-11
3.80106e-11
4.0296e-11
5.56371e-11
2.3708e-10
3.76609e-09
3.26244e-11
3.26298e-11
3.22897e-11
3.25724e-11
3.26371e-11
3.28472e-11
3.49993e-11
4.91491e-11
2.06366e-10
2.81245e-09
2.85971e-11
2.86054e-11
2.86654e-11
2.85781e-11
2.86219e-11
2.8853e-11
3.08742e-11
4.35471e-11
1.79962e-10
2.09155e-09
2.53983e-11
2.54057e-11
2.5436e-11
2.54038e-11
2.54312e-11
2.567e-11
2.75633e-11
3.9422e-11
1.57387e-10
1.575e-09
2.27983e-11
2.28026e-11
2.28083e-11
2.28199e-11
2.28361e-11
2.30733e-11
2.48351e-11
3.59184e-11
1.37662e-10
1.19106e-09
2.06483e-11
2.06485e-11
2.06309e-11
2.06787e-11
2.06886e-11
2.09183e-11
2.25376e-11
3.25501e-11
1.18821e-10
8.95271e-10
1.88497e-11
1.88456e-11
1.88023e-11
1.88833e-11
1.88906e-11
1.91094e-11
2.05687e-11
2.96119e-11
1.02558e-10
6.66353e-10
1.73354e-11
1.73277e-11
1.72519e-11
1.73687e-11
1.73756e-11
1.75819e-11
1.90782e-11
2.70513e-11
8.85377e-11
4.92309e-10
1.60582e-11
1.60481e-11
1.60939e-11
1.60904e-11
1.60965e-11
1.62881e-11
1.77056e-11
2.48133e-11
7.6461e-11
3.63197e-10
1.49838e-11
1.49719e-11
1.50107e-11
1.50125e-11
1.50193e-11
1.51935e-11
1.64838e-11
2.28629e-11
6.71387e-11
2.69453e-10
1.41964e-11
1.4184e-11
1.42175e-11
1.42213e-11
1.42287e-11
1.43848e-11
1.55694e-11
2.11715e-11
5.78735e-11
2.02339e-10
1.35211e-11
1.35099e-11
1.35391e-11
1.35436e-11
1.35525e-11
1.37367e-11
1.48124e-11
1.97194e-11
5.07655e-11
1.54597e-10
)
;

boundaryField
{
    fuel
    {
        type            fixedValue;
        value           uniform 0;
    }
    wall
    {
        type            zeroGradient;
    }
    outlet
    {
        type            zeroGradient;
    }
    frontAndBack
    {
        type            empty;
    }
    procBoundary3to0
    {
        type            processor;
        value           nonuniform List<scalar> 10(1.30393e-11 1.30288e-11 1.3055e-11 1.30576e-11 1.3067e-11 1.32398e-11 1.422e-11 1.8485e-11 4.47238e-11 1.20729e-10);
    }
    procBoundary3to2
    {
        type            processor;
        value           nonuniform List<scalar> 
25
(
5.85992e-09
2.95111e-09
1.44955e-09
7.46266e-10
4.15527e-10
2.50661e-10
1.64315e-10
1.15611e-10
8.57701e-11
6.69902e-11
5.46598e-11
5.46598e-11
4.49057e-11
3.78876e-11
3.26495e-11
2.86081e-11
2.53994e-11
2.27924e-11
2.06372e-11
1.88349e-11
1.73181e-11
1.60394e-11
1.49647e-11
1.41779e-11
1.35031e-11
)
;
    }
}


// ************************************************************************* //
