/*--------------------------------*- C++ -*----------------------------------*\
| =========                 |                                                 |
| \\      /  F ield         | OpenFOAM: The Open Source CFD Toolbox           |
|  \\    /   O peration     | Version:  dev                                   |
|   \\  /    A nd           | Web:      www.OpenFOAM.org                      |
|    \\/     M anipulation  |                                                 |
\*---------------------------------------------------------------------------*/
FoamFile
{
    version     2.0;
    format      ascii;
    class       volScalarField;
    location    "0.17";
    object      p;
}
// * * * * * * * * * * * * * * * * * * * * * * * * * * * * * * * * * * * * * //

dimensions      [1 -1 -2 0 0 0 0];

internalField   nonuniform List<scalar> 
50
(
100037
100037
100036
100035
100035
100034
100033
100033
100032
100031
100031
100030
100029
100029
100028
100027
100026
100026
100025
100024
100024
100023
100022
100022
100021
100020
100019
100019
100018
100017
100017
100016
100015
100014
100014
100013
100012
100011
100010
100010
100009
100008
100007
100006
100005
100005
100004
100003
100002
100000
)
;

boundaryField
{
    wall
    {
        type            zeroGradient;
    }
    fuel
    {
        type            zeroGradient;
    }
    outlet
    {
        type            totalPressure;
        rho             none;
        psi             none;
        gamma           1;
        p0              uniform 100000;
        value           uniform 99999.9;
    }
    procBoundary3to2
    {
        type            processor;
        value           uniform 100038;
    }
}


// ************************************************************************* //
