/*--------------------------------*- C++ -*----------------------------------*\
| =========                 |                                                 |
| \\      /  F ield         | OpenFOAM: The Open Source CFD Toolbox           |
|  \\    /   O peration     | Version:  dev                                   |
|   \\  /    A nd           | Web:      www.OpenFOAM.org                      |
|    \\/     M anipulation  |                                                 |
\*---------------------------------------------------------------------------*/
FoamFile
{
    version     2.0;
    format      ascii;
    class       volScalarField;
    location    "0.17";
    object      P2-H;
}
// * * * * * * * * * * * * * * * * * * * * * * * * * * * * * * * * * * * * * //

dimensions      [0 0 0 0 0 0 0];

internalField   nonuniform List<scalar> 
250
(
3.23539e-13
3.236e-13
3.23369e-13
3.23584e-13
3.23567e-13
3.23602e-13
3.23805e-13
3.25237e-13
3.35547e-13
4.46415e-13
5.17176e-11
1.92582e-13
1.92612e-13
1.92478e-13
1.92616e-13
1.92596e-13
1.92653e-13
1.92833e-13
1.94339e-13
2.05019e-13
3.1015e-13
1.52634e-11
8.98472e-14
8.98482e-14
8.98047e-14
8.98443e-14
8.98458e-14
8.98987e-14
9.00006e-14
9.10502e-14
9.84566e-14
1.70131e-13
1.28654e-12
3.93851e-14
3.93747e-14
3.93472e-14
3.93383e-14
3.93605e-14
3.94164e-14
3.9469e-14
4.00917e-14
4.4684e-14
9.33171e-14
1.4633e-13
1.76328e-14
1.76224e-14
1.75047e-14
1.74861e-14
1.75396e-14
1.76475e-14
1.76728e-14
1.79938e-14
2.07831e-14
5.49675e-14
2.65613e-14
8.06115e-15
8.05382e-15
8.1589e-15
8.1572e-15
8.1394e-15
8.0671e-15
8.10269e-15
8.42932e-15
1.0354e-14
3.54552e-14
7.38745e-15
4.10171e-15
4.09873e-15
4.12387e-15
4.12435e-15
4.12131e-15
4.10297e-15
4.1308e-15
4.3456e-15
5.66445e-15
2.48288e-14
3.13314e-15
2.27447e-15
2.27633e-15
2.28089e-15
2.27591e-15
2.28191e-15
2.27717e-15
2.30318e-15
2.46576e-15
3.34351e-15
1.85022e-14
2.42864e-15
1.37193e-15
1.36556e-15
1.36461e-15
1.36811e-15
1.3643e-15
1.3632e-15
1.3857e-15
1.47508e-15
2.07429e-15
1.43783e-14
4.43664e-15
8.95941e-16
8.92336e-16
8.90838e-16
8.9168e-16
8.90205e-16
8.9044e-16
8.86153e-16
9.35843e-16
1.4564e-15
1.14703e-14
7.41825e-15
6.27275e-16
6.26696e-16
6.25087e-16
6.25016e-16
6.26144e-16
6.26616e-16
6.67188e-16
1.05795e-15
9.28968e-15
9.20735e-15
4.52642e-16
4.52341e-16
4.50056e-16
4.50917e-16
4.52045e-16
4.53442e-16
4.91075e-16
8.00283e-16
7.58878e-15
9.89935e-15
3.43606e-16
3.43511e-16
3.40559e-16
3.42457e-16
3.4341e-16
3.45455e-16
3.77763e-16
6.47668e-16
6.23345e-15
1.00552e-14
2.71642e-16
2.71657e-16
2.67623e-16
2.70985e-16
2.71707e-16
2.7414e-16
3.02158e-16
5.32842e-16
5.14103e-15
1.02652e-14
2.21685e-16
2.21754e-16
2.22595e-16
2.21445e-16
2.21905e-16
2.24483e-16
2.49026e-16
4.42431e-16
4.25456e-15
1.05144e-14
1.85447e-16
1.85517e-16
1.85958e-16
1.85483e-16
1.85754e-16
1.88309e-16
2.0998e-16
3.80578e-16
3.53142e-15
1.05584e-14
1.58194e-16
1.58237e-16
1.58388e-16
1.58392e-16
1.58541e-16
1.60979e-16
1.80148e-16
3.31308e-16
2.92624e-15
1.01831e-14
1.37113e-16
1.37118e-16
1.37032e-16
1.37388e-16
1.37472e-16
1.39744e-16
1.5661e-16
2.86664e-16
2.3727e-15
9.33355e-15
1.20472e-16
1.2044e-16
1.20119e-16
1.20766e-16
1.20824e-16
1.22915e-16
1.37546e-16
2.49735e-16
1.91773e-15
8.12774e-15
1.07163e-16
1.071e-16
1.06503e-16
1.07444e-16
1.07496e-16
1.09408e-16
1.23765e-16
2.19059e-16
1.54565e-15
6.76827e-15
9.64493e-17
9.63668e-17
9.67625e-17
9.67094e-17
9.67552e-17
9.84862e-17
1.11628e-16
1.93423e-16
1.24279e-15
5.44334e-15
8.78232e-17
8.77262e-17
8.80512e-17
8.80451e-17
8.80958e-17
8.96407e-17
1.01273e-16
1.72013e-16
1.02228e-15
4.27333e-15
8.17454e-17
8.1643e-17
8.19193e-17
8.19288e-17
8.19845e-17
8.33549e-17
9.38015e-17
1.5413e-16
8.15829e-16
3.30669e-15
7.67801e-17
7.66846e-17
7.69227e-17
7.69353e-17
7.70014e-17
7.85349e-17
8.78567e-17
1.39354e-16
6.67043e-16
2.54197e-15
)
;

boundaryField
{
    fuel
    {
        type            fixedValue;
        value           uniform 0;
    }
    wall
    {
        type            zeroGradient;
    }
    outlet
    {
        type            zeroGradient;
    }
    frontAndBack
    {
        type            empty;
    }
    procBoundary3to0
    {
        type            processor;
        value           nonuniform List<scalar> 10(7.34345e-17 7.33426e-17 7.35558e-17 7.35515e-17 7.36204e-17 7.50444e-17 8.34157e-17 1.27252e-16 5.48125e-16 1.95787e-15);
    }
    procBoundary3to2
    {
        type            processor;
        value           nonuniform List<scalar> 
25
(
3.23587e-13
1.92614e-13
8.98576e-14
3.93607e-14
1.75046e-14
8.15674e-15
4.12142e-15
2.27861e-15
1.36425e-15
8.90717e-16
6.2996e-16
6.2996e-16
4.54065e-16
3.44378e-16
2.72051e-16
2.21878e-16
1.85509e-16
1.58173e-16
1.37038e-16
1.20363e-16
1.07034e-16
9.63118e-17
8.76867e-17
8.16172e-17
7.66603e-17
)
;
    }
}


// ************************************************************************* //
