/*--------------------------------*- C++ -*----------------------------------*\
| =========                 |                                                 |
| \\      /  F ield         | OpenFOAM: The Open Source CFD Toolbox           |
|  \\    /   O peration     | Version:  dev                                   |
|   \\  /    A nd           | Web:      www.OpenFOAM.org                      |
|    \\/     M anipulation  |                                                 |
\*---------------------------------------------------------------------------*/
FoamFile
{
    version     2.0;
    format      ascii;
    class       volVectorField;
    location    "0.17";
    object      U;
}
// * * * * * * * * * * * * * * * * * * * * * * * * * * * * * * * * * * * * * //

dimensions      [0 1 -1 0 0 0 0];

internalField   nonuniform List<vector> 
13
(
(4.03029e-13 -4.03029e-13 0.0696279)
(3.97336e-13 -3.97336e-13 0.0706703)
(3.91599e-13 -3.91599e-13 0.0716816)
(3.85818e-13 -3.85818e-13 0.0726775)
(3.79994e-13 -3.79994e-13 0.0736618)
(3.74125e-13 -3.74125e-13 0.0746345)
(3.68214e-13 -3.68214e-13 0.0755985)
(3.62258e-13 -3.62258e-13 0.0765453)
(3.5626e-13 -3.5626e-13 0.0774685)
(3.50217e-13 -3.50217e-13 0.0783929)
(3.4413e-13 -3.4413e-13 0.0793151)
(3.38e-13 -3.38e-13 0.0802152)
(3.31826e-13 -3.31826e-13 0.081051)
)
;

boundaryField
{
    wall
    {
        type            zeroGradient;
    }
    fuel
    {
        type            fixedValue;
        value           nonuniform 0();
    }
    outlet
    {
        type            pressureInletOutletVelocity;
        value           nonuniform 0();
    }
    procBoundary3to2
    {
        type            processor;
        value           uniform (4.08678e-13 -4.08678e-13 0.068584);
    }
    procBoundary3to4
    {
        type            processor;
        value           uniform (3.25611e-13 -3.25611e-13 0.0819345);
    }
}


// ************************************************************************* //
