/*--------------------------------*- C++ -*----------------------------------*\
| =========                 |                                                 |
| \\      /  F ield         | OpenFOAM: The Open Source CFD Toolbox           |
|  \\    /   O peration     | Version:  dev                                   |
|   \\  /    A nd           | Web:      www.OpenFOAM.org                      |
|    \\/     M anipulation  |                                                 |
\*---------------------------------------------------------------------------*/
FoamFile
{
    version     2.0;
    format      ascii;
    class       volScalarField;
    location    "0";
    object      A1;
}
// * * * * * * * * * * * * * * * * * * * * * * * * * * * * * * * * * * * * * //

dimensions      [0 0 0 0 0 0 0];

internalField   nonuniform List<scalar> 
250
(
2.72541e-05
1.92052e-05
1.65239e-05
1.60814e-05
1.58146e-05
1.58601e-05
1.58266e-05
1.58714e-05
1.58412e-05
1.58699e-05
2.5775e-05
1.94622e-05
1.71992e-05
1.68204e-05
1.65823e-05
1.66222e-05
1.65907e-05
1.66316e-05
1.66031e-05
1.66301e-05
1.66435e-05
1.65683e-05
1.66344e-05
1.65611e-05
1.65861e-05
1.66066e-05
1.66547e-05
1.74409e-05
1.94539e-05
2.47927e-05
2.46504e-05
1.97235e-05
1.78293e-05
1.75035e-05
1.72936e-05
1.73281e-05
1.7299e-05
1.73356e-05
1.7309e-05
1.73341e-05
1.73468e-05
1.72766e-05
1.73381e-05
1.72714e-05
1.7295e-05
1.73132e-05
1.73593e-05
1.80661e-05
1.99197e-05
2.48579e-05
2.38137e-05
1.99846e-05
1.84112e-05
1.81309e-05
1.7947e-05
1.79776e-05
1.79511e-05
1.79833e-05
1.79589e-05
1.7982e-05
1.7994e-05
1.79289e-05
1.79858e-05
1.79261e-05
1.79479e-05
1.79644e-05
1.80068e-05
1.86336e-05
2.03151e-05
2.48069e-05
2.32094e-05
2.02473e-05
1.89473e-05
1.87157e-05
1.85579e-05
1.85744e-05
1.85505e-05
1.85785e-05
1.85563e-05
1.85776e-05
1.85889e-05
1.85289e-05
1.85811e-05
1.85285e-05
1.85483e-05
1.85655e-05
1.86064e-05
1.91487e-05
2.06454e-05
2.46528e-05
2.27924e-05
2.05073e-05
1.94418e-05
1.92459e-05
1.91103e-05
1.91237e-05
1.91025e-05
1.91266e-05
1.91065e-05
1.91261e-05
1.91366e-05
1.90817e-05
1.91293e-05
1.90836e-05
1.91012e-05
1.91169e-05
1.9153e-05
1.9618e-05
2.09216e-05
2.44208e-05
2.25269e-05
2.07684e-05
1.99007e-05
1.97363e-05
1.96212e-05
1.96316e-05
1.96129e-05
1.96333e-05
1.96154e-05
1.96334e-05
1.96431e-05
1.95933e-05
1.96363e-05
1.95967e-05
1.96125e-05
1.96258e-05
1.96578e-05
2.00495e-05
2.11574e-05
2.41418e-05
2.23849e-05
2.1033e-05
2.03304e-05
2.01933e-05
2.0097e-05
2.01045e-05
2.00882e-05
2.01053e-05
2.00896e-05
2.0106e-05
2.01148e-05
2.00699e-05
2.01084e-05
2.00742e-05
2.00886e-05
2.00995e-05
2.01276e-05
2.04515e-05
2.13681e-05
2.38489e-05
2.23452e-05
2.13035e-05
2.07376e-05
2.06234e-05
2.05437e-05
2.05486e-05
2.05346e-05
2.05486e-05
2.05349e-05
2.05498e-05
2.05576e-05
2.05178e-05
2.05518e-05
2.05226e-05
2.05356e-05
2.05445e-05
2.05692e-05
2.0832e-05
2.15689e-05
2.35744e-05
2.23894e-05
2.15793e-05
2.11254e-05
2.10287e-05
2.09634e-05
2.09657e-05
2.0954e-05
2.0965e-05
2.09534e-05
2.09668e-05
2.09734e-05
2.0939e-05
2.09681e-05
2.09439e-05
2.09555e-05
2.09631e-05
2.09855e-05
2.11947e-05
2.17714e-05
2.33467e-05
2.24949e-05
2.18501e-05
2.14866e-05
2.14006e-05
2.13479e-05
2.13472e-05
2.13379e-05
2.13456e-05
2.13364e-05
2.1348e-05
2.13532e-05
2.13249e-05
2.13485e-05
2.13296e-05
2.13398e-05
2.13467e-05
2.13687e-05
2.15324e-05
2.19764e-05
2.31822e-05
2.26253e-05
2.20894e-05
2.1795e-05
2.17135e-05
2.16711e-05
2.16671e-05
2.166e-05
2.16647e-05
2.16577e-05
2.16676e-05
2.16713e-05
2.16491e-05
2.16672e-05
2.16535e-05
2.16623e-05
2.1669e-05
2.16924e-05
2.18203e-05
2.21652e-05
2.30798e-05
2.27369e-05
2.22602e-05
2.20095e-05
2.19282e-05
2.18926e-05
2.18859e-05
2.18806e-05
2.18828e-05
2.18776e-05
2.1886e-05
2.18885e-05
2.18714e-05
2.18849e-05
2.18754e-05
2.18831e-05
2.18898e-05
2.19154e-05
2.20204e-05
2.23055e-05
2.3035e-05
)
;

boundaryField
{
    fuel
    {
        type            fixedValue;
        value           nonuniform 0();
    }
    wall
    {
        type            zeroGradient;
    }
    outlet
    {
        type            zeroGradient;
    }
    frontAndBack
    {
        type            empty;
    }
    procBoundary1to0
    {
        type            processor;
        value           nonuniform List<scalar> 
21
(
2.92198e-05
1.89639e-05
1.5812e-05
1.52935e-05
1.49977e-05
1.50482e-05
1.50131e-05
1.50611e-05
1.50297e-05
1.50597e-05
1.5884e-05
1.5884e-05
1.58045e-05
1.58745e-05
1.57957e-05
1.58213e-05
1.58445e-05
1.58944e-05
1.67569e-05
1.89176e-05
2.45949e-05
)
;
    }
}


// ************************************************************************* //
