/*--------------------------------*- C++ -*----------------------------------*\
| =========                 |                                                 |
| \\      /  F ield         | OpenFOAM: The Open Source CFD Toolbox           |
|  \\    /   O peration     | Version:  dev                                   |
|   \\  /    A nd           | Web:      www.OpenFOAM.org                      |
|    \\/     M anipulation  |                                                 |
\*---------------------------------------------------------------------------*/
FoamFile
{
    version     2.0;
    format      ascii;
    class       volScalarField;
    location    "0";
    object      A2C2HB*;
}
// * * * * * * * * * * * * * * * * * * * * * * * * * * * * * * * * * * * * * //

dimensions      [0 0 0 0 0 0 0];

internalField   nonuniform List<scalar> 
250
(
1.76717e-12
8.07685e-13
6.965e-13
5.81689e-13
5.77057e-13
5.57946e-13
5.60973e-13
5.54023e-13
5.57204e-13
5.53775e-13
1.21705e-12
5.96547e-13
5.38786e-13
4.49967e-13
4.48829e-13
4.32451e-13
4.35384e-13
4.29093e-13
4.32149e-13
4.28993e-13
4.27e-13
4.36322e-13
4.28525e-13
4.38681e-13
4.37842e-13
4.45135e-13
4.81271e-13
5.05817e-13
7.53835e-13
1.17782e-12
8.14544e-13
4.26014e-13
3.99936e-13
3.33761e-13
3.34535e-13
3.21205e-13
3.23806e-13
3.18507e-13
3.2121e-13
3.18507e-13
3.16808e-13
3.24768e-13
3.1804e-13
3.26493e-13
3.25662e-13
3.3119e-13
3.59093e-13
3.72575e-13
5.52752e-13
8.48942e-13
5.28446e-13
2.93293e-13
2.84224e-13
2.37107e-13
2.38742e-13
2.28313e-13
2.30449e-13
2.26272e-13
2.28496e-13
2.26329e-13
2.24966e-13
2.3135e-13
2.25908e-13
2.32481e-13
2.31782e-13
2.3575e-13
2.56325e-13
2.62713e-13
3.87591e-13
5.83456e-13
3.30777e-13
1.92789e-13
1.92575e-13
1.59653e-13
1.6129e-13
1.5467e-13
1.56313e-13
1.53215e-13
1.54931e-13
1.53295e-13
1.52261e-13
1.57092e-13
1.52944e-13
1.57733e-13
1.57217e-13
1.59661e-13
1.73775e-13
1.76604e-13
2.5876e-13
3.80447e-13
1.9805e-13
1.20647e-13
1.23338e-13
1.01991e-13
1.03464e-13
9.89144e-14
1.00099e-13
9.79376e-14
9.918e-14
9.80167e-14
9.72761e-14
1.00724e-13
9.77437e-14
1.01018e-13
1.00675e-13
1.02148e-13
1.11558e-13
1.12152e-13
1.63065e-13
2.33237e-13
1.11514e-13
7.02714e-14
7.3365e-14
6.03656e-14
6.14978e-14
5.85862e-14
5.93819e-14
5.79769e-14
5.88131e-14
5.80425e-14
5.75466e-14
5.98423e-14
5.78459e-14
5.99365e-14
5.97234e-14
6.05748e-14
6.64213e-14
6.60447e-14
9.53714e-14
1.3217e-13
5.71865e-14
3.67912e-14
3.92163e-14
3.19724e-14
3.27261e-14
3.10402e-14
3.15266e-14
3.06982e-14
3.12073e-14
3.07446e-14
3.04437e-14
3.18291e-14
3.06175e-14
3.18343e-14
3.17097e-14
3.21623e-14
3.54616e-14
3.48535e-14
5.01508e-14
6.70857e-14
2.52327e-14
1.63465e-14
1.78037e-14
1.43159e-14
1.47343e-14
1.39006e-14
1.41552e-14
1.37382e-14
1.40021e-14
1.37655e-14
1.361e-14
1.4322e-14
1.36959e-14
1.4303e-14
1.4239e-14
1.4443e-14
1.60416e-14
1.5573e-14
2.24272e-14
2.88657e-14
8.82371e-15
5.72395e-15
6.35698e-15
5.04186e-15
5.21806e-15
4.89773e-15
5.00105e-15
4.83841e-15
4.94391e-15
4.85051e-15
4.78835e-15
5.07114e-15
4.8212e-15
5.05642e-15
5.03092e-15
5.10141e-15
5.70589e-15
5.47529e-15
7.88753e-15
9.74938e-15
2.16843e-15
1.40016e-15
1.57889e-15
1.23284e-15
1.28258e-15
1.19715e-15
1.22601e-15
1.18207e-15
1.21117e-15
1.18564e-15
1.16823e-15
1.24641e-15
1.17704e-15
1.24052e-15
1.2335e-15
1.25037e-15
1.40992e-15
1.33959e-15
1.93855e-15
2.30967e-15
2.75565e-16
1.77652e-16
2.01475e-16
1.56319e-16
1.63109e-16
1.51851e-16
1.55791e-16
1.49969e-16
1.5388e-16
1.50464e-16
1.48079e-16
1.58642e-16
1.4925e-16
1.57643e-16
1.56716e-16
1.58725e-16
1.79513e-16
1.69808e-16
2.45049e-16
2.85076e-16
1.72444e-17
1.16994e-17
1.30171e-17
1.04227e-17
1.08195e-17
1.01606e-17
1.03952e-17
1.00528e-17
1.02837e-17
1.00828e-17
9.93762e-18
1.05661e-17
1.0008e-17
1.0502e-17
1.04474e-17
1.05633e-17
1.17591e-17
1.12196e-17
1.54633e-17
1.77942e-17
)
;

boundaryField
{
    fuel
    {
        type            fixedValue;
        value           nonuniform 0();
    }
    wall
    {
        type            zeroGradient;
    }
    outlet
    {
        type            zeroGradient;
    }
    frontAndBack
    {
        type            empty;
    }
    procBoundary1to0
    {
        type            processor;
        value           nonuniform List<scalar> 
21
(
2.50295e-12
1.05969e-12
8.66718e-13
7.21557e-13
7.11774e-13
6.90383e-13
6.93283e-13
6.86119e-13
6.89139e-13
6.85681e-13
5.51582e-13
5.51582e-13
5.61747e-13
5.53371e-13
5.64695e-13
5.64066e-13
5.73255e-13
6.17921e-13
6.58482e-13
9.85676e-13
1.56264e-12
)
;
    }
}


// ************************************************************************* //
