/*--------------------------------*- C++ -*----------------------------------*\
| =========                 |                                                 |
| \\      /  F ield         | OpenFOAM: The Open Source CFD Toolbox           |
|  \\    /   O peration     | Version:  dev                                   |
|   \\  /    A nd           | Web:      www.OpenFOAM.org                      |
|    \\/     M anipulation  |                                                 |
\*---------------------------------------------------------------------------*/
FoamFile
{
    version     2.0;
    format      ascii;
    class       volScalarField;
    location    "0";
    object      A2C2HB;
}
// * * * * * * * * * * * * * * * * * * * * * * * * * * * * * * * * * * * * * //

dimensions      [0 0 0 0 0 0 0];

internalField   nonuniform List<scalar> 
25
(
1.08514e-17
8.36581e-18
6.52906e-18
5.2023e-18
4.27715e-18
3.67082e-18
3.33398e-18
3.21079e-18
3.28065e-18
3.53728e-18
3.98824e-18
4.65517e-18
5.57446e-18
6.79651e-18
8.37968e-18
1.04331e-17
1.30412e-17
1.62883e-17
2.01329e-17
2.47728e-17
3.0314e-17
3.68513e-17
4.39472e-17
5.18259e-17
6.05811e-17
)
;

boundaryField
{
    wall
    {
        type            zeroGradient;
    }
    fuel
    {
        type            fixedValue;
        value           nonuniform 0();
    }
    outlet
    {
        type            inletOutlet;
        inletValue      nonuniform 0();
        value           nonuniform 0();
    }
    procBoundary1to0
    {
        type            processor;
        value           uniform 1.41986e-17;
    }
    procBoundary1to2
    {
        type            processor;
        value           uniform 6.97321e-17;
    }
}


// ************************************************************************* //
