/*--------------------------------*- C++ -*----------------------------------*\
| =========                 |                                                 |
| \\      /  F ield         | OpenFOAM: The Open Source CFD Toolbox           |
|  \\    /   O peration     | Version:  dev                                   |
|   \\  /    A nd           | Web:      www.OpenFOAM.org                      |
|    \\/     M anipulation  |                                                 |
\*---------------------------------------------------------------------------*/
FoamFile
{
    version     2.0;
    format      ascii;
    class       volScalarField;
    location    "0";
    object      A2C2HA;
}
// * * * * * * * * * * * * * * * * * * * * * * * * * * * * * * * * * * * * * //

dimensions      [0 0 0 0 0 0 0];

internalField   nonuniform List<scalar> 
250
(
1.667e-09
8.56954e-10
6.55276e-10
6.12001e-10
5.94254e-10
5.94503e-10
5.92817e-10
5.94666e-10
5.93215e-10
5.94518e-10
1.46667e-09
8.38221e-10
6.7316e-10
6.31846e-10
6.16668e-10
6.15609e-10
6.14332e-10
6.15469e-10
6.14406e-10
6.15343e-10
6.15707e-10
6.13145e-10
6.15474e-10
6.13139e-10
6.145e-10
6.17282e-10
6.27224e-10
6.80917e-10
8.49042e-10
1.29459e-09
1.29665e-09
8.09265e-10
6.77091e-10
6.373e-10
6.2479e-10
6.2243e-10
6.21607e-10
6.22007e-10
6.2137e-10
6.21918e-10
6.22057e-10
6.2062e-10
6.2194e-10
6.20731e-10
6.21865e-10
6.24695e-10
6.35749e-10
6.82133e-10
8.40069e-10
1.24483e-09
1.14845e-09
7.70925e-10
6.66914e-10
6.29035e-10
6.19056e-10
6.15653e-10
6.1525e-10
6.15022e-10
6.14776e-10
6.14981e-10
6.14925e-10
6.14483e-10
6.149e-10
6.14639e-10
6.15556e-10
6.1831e-10
6.29982e-10
6.69027e-10
8.14392e-10
1.17383e-09
1.01748e-09
7.25528e-10
6.44998e-10
6.09639e-10
6.01836e-10
5.98167e-10
5.98089e-10
5.97432e-10
5.9748e-10
5.9744e-10
5.97247e-10
5.97525e-10
5.97274e-10
5.97652e-10
5.9839e-10
6.00844e-10
6.1236e-10
6.44714e-10
7.75119e-10
1.08739e-09
9.02204e-10
6.78049e-10
6.15578e-10
5.84091e-10
5.78034e-10
5.74272e-10
5.7439e-10
5.73537e-10
5.73752e-10
5.73588e-10
5.73329e-10
5.73985e-10
5.73362e-10
5.74046e-10
5.74646e-10
5.76754e-10
5.87492e-10
6.13833e-10
7.27417e-10
9.93159e-10
8.02935e-10
6.32466e-10
5.83676e-10
5.56913e-10
5.52129e-10
5.48696e-10
5.4888e-10
5.4804e-10
5.483e-10
5.48125e-10
5.47863e-10
5.4858e-10
5.47869e-10
5.48579e-10
5.49074e-10
5.50813e-10
5.60171e-10
5.81469e-10
6.77277e-10
8.9901e-10
7.20745e-10
5.92677e-10
5.54047e-10
5.32388e-10
5.28479e-10
5.2565e-10
5.25798e-10
5.25117e-10
5.25327e-10
5.25224e-10
5.25005e-10
5.25552e-10
5.24963e-10
5.25518e-10
5.2593e-10
5.27311e-10
5.34955e-10
5.52154e-10
6.30299e-10
8.11734e-10
6.56385e-10
5.61319e-10
5.30242e-10
5.13494e-10
5.10178e-10
5.08046e-10
5.08104e-10
5.07645e-10
5.07756e-10
5.07763e-10
5.07605e-10
5.07882e-10
5.07512e-10
5.07842e-10
5.08188e-10
5.09259e-10
5.15158e-10
5.29052e-10
5.907e-10
7.36169e-10
6.09395e-10
5.39232e-10
5.13912e-10
5.01361e-10
4.98482e-10
4.96977e-10
4.96939e-10
4.96685e-10
4.967e-10
4.9681e-10
4.96703e-10
4.96736e-10
4.96569e-10
4.96708e-10
4.96995e-10
4.97832e-10
5.02214e-10
5.13413e-10
5.6061e-10
6.7473e-10
5.77725e-10
5.2547e-10
5.04663e-10
4.95291e-10
4.92783e-10
4.91736e-10
4.91632e-10
4.91518e-10
4.91472e-10
4.91649e-10
4.91568e-10
4.9146e-10
4.91411e-10
4.91451e-10
4.91678e-10
4.92363e-10
4.95604e-10
5.04585e-10
5.39953e-10
6.27623e-10
5.58179e-10
5.17836e-10
5.00499e-10
4.93225e-10
4.91046e-10
4.9027e-10
4.90142e-10
4.90091e-10
4.90027e-10
4.90229e-10
4.90148e-10
4.90015e-10
4.89982e-10
4.9002e-10
4.90186e-10
4.90788e-10
4.93295e-10
5.0052e-10
5.27047e-10
5.93879e-10
5.47591e-10
5.13928e-10
4.988e-10
4.92692e-10
4.9075e-10
4.90105e-10
4.89977e-10
4.89946e-10
4.89885e-10
4.90089e-10
4.9e-10
4.89886e-10
4.89832e-10
4.89898e-10
4.90021e-10
4.90582e-10
4.92686e-10
4.98778e-10
5.19816e-10
5.73213e-10
)
;

boundaryField
{
    fuel
    {
        type            fixedValue;
        value           nonuniform 0();
    }
    wall
    {
        type            zeroGradient;
    }
    outlet
    {
        type            zeroGradient;
    }
    frontAndBack
    {
        type            empty;
    }
    procBoundary1to0
    {
        type            processor;
        value           nonuniform List<scalar> 
21
(
1.91065e-09
8.66907e-10
6.2618e-10
5.79622e-10
5.59652e-10
5.60929e-10
5.58956e-10
5.61351e-10
5.59624e-10
5.61196e-10
5.95098e-10
5.95098e-10
5.91485e-10
5.94748e-10
5.91322e-10
5.92876e-10
5.95559e-10
6.0427e-10
6.64627e-10
8.41169e-10
1.32073e-09
)
;
    }
}


// ************************************************************************* //
