/*--------------------------------*- C++ -*----------------------------------*\
| =========                 |                                                 |
| \\      /  F ield         | OpenFOAM: The Open Source CFD Toolbox           |
|  \\    /   O peration     | Version:  dev                                   |
|   \\  /    A nd           | Web:      www.OpenFOAM.org                      |
|    \\/     M anipulation  |                                                 |
\*---------------------------------------------------------------------------*/
FoamFile
{
    version     2.0;
    format      ascii;
    class       volScalarField;
    location    "0";
    object      A2C2HA*;
}
// * * * * * * * * * * * * * * * * * * * * * * * * * * * * * * * * * * * * * //

dimensions      [0 0 0 0 0 0 0];

internalField   nonuniform List<scalar> 
250
(
1.19184e-12
6.12554e-13
5.54405e-13
4.70102e-13
4.6635e-13
4.51343e-13
4.53646e-13
4.48166e-13
4.50633e-13
4.47907e-13
8.37485e-13
4.57565e-13
4.31835e-13
3.64354e-13
3.63533e-13
3.50235e-13
3.52575e-13
3.47426e-13
3.49902e-13
3.47291e-13
3.45635e-13
3.53342e-13
3.46944e-13
3.55311e-13
3.54611e-13
3.60711e-13
3.89654e-13
4.05663e-13
5.72182e-13
8.06235e-13
5.69318e-13
3.26963e-13
3.19419e-13
2.67819e-13
2.68621e-13
2.57571e-13
2.59703e-13
2.55275e-13
2.57517e-13
2.55233e-13
2.53798e-13
2.60509e-13
2.54874e-13
2.61961e-13
2.6126e-13
2.65934e-13
2.88674e-13
2.96592e-13
4.18711e-13
5.78074e-13
3.72237e-13
2.22597e-13
2.23482e-13
1.86296e-13
1.87784e-13
1.79115e-13
1.80875e-13
1.77382e-13
1.7923e-13
1.77396e-13
1.7625e-13
1.81626e-13
1.77071e-13
1.82567e-13
1.81983e-13
1.85316e-13
2.0213e-13
2.05146e-13
2.89945e-13
3.92148e-13
2.32495e-13
1.43047e-13
1.47324e-13
1.21432e-13
1.22834e-13
1.17444e-13
1.18774e-13
1.16236e-13
1.17632e-13
1.16276e-13
1.15429e-13
1.19405e-13
1.16009e-13
1.19919e-13
1.19504e-13
1.21503e-13
1.32856e-13
1.33809e-13
1.89227e-13
2.50716e-13
1.37508e-13
8.6802e-14
9.09793e-14
7.45783e-14
7.57574e-14
7.21792e-14
7.31021e-14
7.14001e-14
7.23707e-14
7.14458e-14
7.08646e-14
7.3585e-14
7.12449e-14
7.38088e-14
7.35467e-14
7.47064e-14
8.20339e-14
8.1826e-14
1.15668e-13
1.501e-13
7.5904e-14
4.88591e-14
5.19844e-14
4.23697e-14
4.32118e-14
4.10312e-14
4.16199e-14
4.05699e-14
4.11893e-14
4.06088e-14
4.02407e-14
4.19556e-14
4.04707e-14
4.20229e-14
4.18693e-14
4.25083e-14
4.68582e-14
4.63044e-14
6.54093e-14
8.30675e-14
3.80782e-14
2.48098e-14
2.67887e-14
2.16666e-14
2.219e-14
2.09927e-14
2.13332e-14
2.07473e-14
2.11042e-14
2.07748e-14
2.05636e-14
2.15419e-14
2.06896e-14
2.15451e-14
2.14601e-14
2.17833e-14
2.41191e-14
2.36052e-14
3.3366e-14
4.14027e-14
1.65319e-14
1.08147e-14
1.18668e-14
9.49632e-15
9.77259e-15
9.20581e-15
9.37637e-15
9.09409e-15
9.27122e-15
9.11019e-15
9.00567e-15
9.48688e-15
9.06518e-15
9.47428e-15
9.43232e-15
9.57242e-15
1.06585e-14
1.03241e-14
1.46369e-14
1.77038e-14
5.77469e-15
3.78683e-15
4.21847e-15
3.34244e-15
3.4563e-15
3.24304e-15
3.31086e-15
3.20293e-15
3.27245e-15
3.21015e-15
3.16907e-15
3.35667e-15
3.1914e-15
3.34715e-15
3.33062e-15
3.37832e-15
3.78105e-15
3.62653e-15
5.14711e-15
6.05444e-15
1.45204e-15
9.49302e-16
1.07063e-15
8.37758e-16
8.70341e-16
8.12826e-16
8.32017e-16
8.02486e-16
8.21933e-16
8.04685e-16
7.93001e-16
8.4561e-16
7.9907e-16
8.41741e-16
8.37079e-16
8.48708e-16
9.56238e-16
9.09258e-16
1.29736e-15
1.48897e-15
1.95168e-16
1.2769e-16
1.44609e-16
1.12654e-16
1.17343e-16
1.09368e-16
1.12128e-16
1.08006e-16
1.10761e-16
1.0833e-16
1.06639e-16
1.14137e-16
1.0749e-16
1.13446e-16
1.12791e-16
1.14261e-16
1.29008e-16
1.22225e-16
1.7411e-16
1.96817e-16
1.44873e-17
9.99962e-18
1.10957e-17
8.93479e-18
9.25482e-18
8.70543e-18
8.89839e-18
8.6126e-18
8.80431e-18
8.63552e-18
8.51392e-18
9.04078e-18
8.57458e-18
8.98897e-18
8.94302e-18
9.04453e-18
1.00449e-17
9.60398e-18
1.30645e-17
1.46728e-17
)
;

boundaryField
{
    fuel
    {
        type            fixedValue;
        value           nonuniform 0();
    }
    wall
    {
        type            zeroGradient;
    }
    outlet
    {
        type            zeroGradient;
    }
    frontAndBack
    {
        type            empty;
    }
    procBoundary1to0
    {
        type            processor;
        value           nonuniform List<scalar> 
21
(
1.65281e-12
7.88044e-13
6.80138e-13
5.77177e-13
5.69291e-13
5.53116e-13
5.55192e-13
5.49802e-13
5.52011e-13
5.49396e-13
4.46141e-13
4.46141e-13
4.54244e-13
4.47626e-13
4.56648e-13
4.56142e-13
4.63657e-13
4.98482e-13
5.26378e-13
7.42867e-13
1.06739e-12
)
;
    }
}


// ************************************************************************* //
