/*--------------------------------*- C++ -*----------------------------------*\
| =========                 |                                                 |
| \\      /  F ield         | OpenFOAM: The Open Source CFD Toolbox           |
|  \\    /   O peration     | Version:  dev                                   |
|   \\  /    A nd           | Web:      www.OpenFOAM.org                      |
|    \\/     M anipulation  |                                                 |
\*---------------------------------------------------------------------------*/
FoamFile
{
    version     2.0;
    format      ascii;
    class       volScalarField;
    location    "0";
    object      A2R5-;
}
// * * * * * * * * * * * * * * * * * * * * * * * * * * * * * * * * * * * * * //

dimensions      [0 0 0 0 0 0 0];

internalField   nonuniform List<scalar> 
250
(
1.04386e-09
7.27883e-10
6.96804e-10
5.74773e-10
5.70029e-10
5.48568e-10
5.51975e-10
5.43881e-10
5.47654e-10
5.43451e-10
7.71446e-10
5.36776e-10
5.23591e-10
4.33514e-10
4.31667e-10
4.14736e-10
4.17651e-10
4.11016e-10
4.14242e-10
4.10763e-10
4.08564e-10
4.18876e-10
4.10374e-10
4.21504e-10
4.20433e-10
4.28657e-10
4.67018e-10
4.86942e-10
6.80494e-10
8.35348e-10
5.52352e-10
3.8558e-10
3.82653e-10
3.18101e-10
3.17959e-10
3.04951e-10
3.07343e-10
3.02111e-10
3.04757e-10
3.01979e-10
3.00237e-10
3.0841e-10
3.01617e-10
3.10239e-10
3.09341e-10
3.15308e-10
3.43404e-10
3.54387e-10
4.91134e-10
5.96433e-10
3.8291e-10
2.69274e-10
2.71412e-10
2.26594e-10
2.27372e-10
2.17527e-10
2.19415e-10
2.15436e-10
2.17524e-10
2.15383e-10
2.14047e-10
2.20321e-10
2.15068e-10
2.21501e-10
2.20806e-10
2.24979e-10
2.45013e-10
2.5023e-10
3.43418e-10
4.1122e-10
2.56234e-10
1.8116e-10
1.85903e-10
1.5489e-10
1.55883e-10
1.49664e-10
1.51103e-10
1.48183e-10
1.49772e-10
1.48176e-10
1.47184e-10
1.51849e-10
1.47916e-10
1.52531e-10
1.52036e-10
1.54621e-10
1.68188e-10
1.70519e-10
2.3175e-10
2.72965e-10
1.64259e-10
1.16981e-10
1.21755e-10
1.01484e-10
1.02539e-10
9.82208e-11
9.92728e-11
9.72154e-11
9.83757e-11
9.72328e-11
9.65207e-11
9.98628e-11
9.70255e-11
1.00198e-10
9.9872e-11
1.01451e-10
1.10538e-10
1.10976e-10
1.49601e-10
1.73083e-10
9.92727e-11
7.09281e-11
7.48789e-11
6.22401e-11
6.31474e-11
6.03107e-11
6.10411e-11
5.96683e-11
6.04696e-11
5.96946e-11
5.92093e-11
6.14805e-11
5.95389e-11
6.16088e-11
6.14037e-11
6.23349e-11
6.81e-11
6.76937e-11
9.08226e-11
1.03182e-10
5.49712e-11
3.91473e-11
4.1958e-11
3.46341e-11
3.52994e-11
3.35877e-11
3.40563e-11
3.32132e-11
3.37216e-11
3.32385e-11
3.29338e-11
3.43545e-11
3.31315e-11
3.43809e-11
3.42575e-11
3.4768e-11
3.81432e-11
3.75273e-11
5.03646e-11
5.62166e-11
2.66338e-11
1.87805e-11
2.046e-11
1.67074e-11
1.71158e-11
1.62133e-11
1.64767e-11
1.60245e-11
1.63055e-11
1.60432e-11
1.58764e-11
1.66507e-11
1.59796e-11
1.66409e-11
1.65742e-11
1.68172e-11
1.85541e-11
1.80625e-11
2.43682e-11
2.67523e-11
1.067e-11
7.45424e-12
8.23923e-12
6.66118e-12
6.85771e-12
6.47046e-12
6.59038e-12
6.39367e-12
6.51901e-12
6.40385e-12
6.32992e-12
6.6713e-12
6.37361e-12
6.65836e-12
6.62895e-12
6.72235e-12
7.45317e-12
7.18829e-12
9.74246e-12
1.05371e-11
3.36522e-12
2.33839e-12
2.60719e-12
2.09295e-12
2.16273e-12
2.03466e-12
2.07625e-12
2.01049e-12
2.05324e-12
2.01444e-12
1.98913e-12
2.10488e-12
2.00349e-12
2.09804e-12
2.08816e-12
2.11603e-12
2.35418e-12
2.25629e-12
3.06635e-12
3.28462e-12
8.68715e-13
6.2063e-13
6.84121e-13
5.58186e-13
5.75091e-13
5.43495e-13
5.53943e-13
5.3746e-13
5.48289e-13
5.38493e-13
5.31851e-13
5.61575e-13
5.35542e-13
5.59499e-13
5.56938e-13
5.6378e-13
6.22719e-13
5.98579e-13
7.96772e-13
8.50357e-13
3.77172e-13
2.97553e-13
3.09144e-13
2.6749e-13
2.69632e-13
2.59538e-13
2.62537e-13
2.56607e-13
2.60463e-13
2.56862e-13
2.5349e-13
2.66683e-13
2.55198e-13
2.65799e-13
2.64115e-13
2.67917e-13
2.90185e-13
2.83629e-13
3.5953e-13
3.8549e-13
)
;

boundaryField
{
    fuel
    {
        type            fixedValue;
        value           nonuniform 0();
    }
    wall
    {
        type            zeroGradient;
    }
    outlet
    {
        type            zeroGradient;
    }
    frontAndBack
    {
        type            empty;
    }
    procBoundary1to0
    {
        type            processor;
        value           nonuniform List<scalar> 
21
(
1.37057e-09
9.61696e-10
9.03611e-10
7.41959e-10
7.33085e-10
7.06437e-10
7.10339e-10
7.00799e-10
7.05028e-10
7.00126e-10
5.40758e-10
5.40758e-10
5.53313e-10
5.43066e-10
5.56867e-10
5.55731e-10
5.66707e-10
6.17559e-10
6.50487e-10
9.14524e-10
1.13034e-09
)
;
    }
}


// ************************************************************************* //
