/*--------------------------------*- C++ -*----------------------------------*\
| =========                 |                                                 |
| \\      /  F ield         | OpenFOAM: The Open Source CFD Toolbox           |
|  \\    /   O peration     | Version:  dev                                   |
|   \\  /    A nd           | Web:      www.OpenFOAM.org                      |
|    \\/     M anipulation  |                                                 |
\*---------------------------------------------------------------------------*/
FoamFile
{
    version     2.0;
    format      ascii;
    class       volScalarField;
    location    "0";
    object      A3;
}
// * * * * * * * * * * * * * * * * * * * * * * * * * * * * * * * * * * * * * //

dimensions      [0 0 0 0 0 0 0];

internalField   nonuniform List<scalar> 
250
(
2.02881e-08
1.16191e-08
8.23602e-09
7.09072e-09
6.81915e-09
6.76518e-09
6.75229e-09
6.75291e-09
6.74781e-09
6.75052e-09
1.80584e-08
1.09323e-08
8.08255e-09
7.09039e-09
6.85095e-09
6.80073e-09
6.78874e-09
6.78851e-09
6.7841e-09
6.78631e-09
6.78575e-09
6.7818e-09
6.78768e-09
6.78707e-09
6.80019e-09
6.85924e-09
7.11045e-09
8.05166e-09
1.1631e-08
1.96911e-08
1.61456e-08
1.03176e-08
7.93303e-09
7.08076e-09
6.87135e-09
6.825e-09
6.81394e-09
6.81302e-09
6.80923e-09
6.81099e-09
6.81036e-09
6.80729e-09
6.81212e-09
6.81223e-09
6.82431e-09
6.87807e-09
7.10388e-09
7.94255e-09
1.11667e-08
1.84387e-08
1.45111e-08
9.77158e-09
7.78981e-09
7.06443e-09
6.8827e-09
6.8404e-09
6.83024e-09
6.82881e-09
6.82555e-09
6.82695e-09
6.8263e-09
6.82394e-09
6.82791e-09
6.82854e-09
6.83958e-09
6.88829e-09
7.08806e-09
7.82559e-09
1.06846e-08
1.71255e-08
1.3122e-08
9.2862e-09
7.65538e-09
7.0437e-09
6.8876e-09
6.84937e-09
6.84009e-09
6.83831e-09
6.8355e-09
6.83662e-09
6.83602e-09
6.83419e-09
6.83748e-09
6.83846e-09
6.84844e-09
6.8919e-09
7.06633e-09
7.7056e-09
1.01957e-08
1.57883e-08
1.19496e-08
8.8675e-09
7.53185e-09
7.02145e-09
6.88814e-09
6.85405e-09
6.84561e-09
6.84364e-09
6.84119e-09
6.8421e-09
6.84159e-09
6.84016e-09
6.84292e-09
6.8441e-09
6.85306e-09
6.89115e-09
7.04181e-09
7.58702e-09
9.71277e-09
1.44656e-08
1.09679e-08
8.5068e-09
7.42054e-09
6.99904e-09
6.88611e-09
6.85606e-09
6.84844e-09
6.84638e-09
6.84425e-09
6.845e-09
6.84459e-09
6.84347e-09
6.8458e-09
6.8471e-09
6.85506e-09
6.88796e-09
7.01633e-09
7.4736e-09
9.24847e-09
1.31954e-08
1.01534e-08
8.19964e-09
7.32209e-09
6.97762e-09
6.88274e-09
6.85654e-09
6.84969e-09
6.84763e-09
6.84577e-09
6.84642e-09
6.84611e-09
6.84522e-09
6.84721e-09
6.84856e-09
6.85558e-09
6.88364e-09
6.9914e-09
7.36828e-09
8.8146e-09
1.20115e-08
9.48532e-09
7.94157e-09
7.23665e-09
6.95791e-09
6.8788e-09
6.8562e-09
6.85009e-09
6.8481e-09
6.84647e-09
6.84704e-09
6.84682e-09
6.84612e-09
6.84782e-09
6.84919e-09
6.85533e-09
6.879e-09
6.96808e-09
7.27332e-09
8.42134e-09
1.09428e-08
8.94604e-09
7.72862e-09
7.16408e-09
6.94035e-09
6.87479e-09
6.85545e-09
6.85004e-09
6.84815e-09
6.84672e-09
6.84724e-09
6.8471e-09
6.84654e-09
6.84801e-09
6.84936e-09
6.85471e-09
6.87451e-09
6.94712e-09
7.19042e-09
8.0773e-09
1.00128e-08
8.52264e-09
7.55803e-09
7.10441e-09
6.92529e-09
6.87101e-09
6.85452e-09
6.84973e-09
6.84796e-09
6.84671e-09
6.84719e-09
6.84711e-09
6.84667e-09
6.84794e-09
6.84927e-09
6.85392e-09
6.87043e-09
6.92911e-09
7.12109e-09
7.79008e-09
9.24126e-09
8.20957e-09
7.42965e-09
7.0584e-09
6.91323e-09
6.86771e-09
6.85353e-09
6.84927e-09
6.84761e-09
6.8465e-09
6.84697e-09
6.84692e-09
6.84656e-09
6.84768e-09
6.84898e-09
6.85307e-09
6.867e-09
6.91473e-09
7.06728e-09
7.56843e-09
8.65007e-09
8.01759e-09
7.34994e-09
7.02919e-09
6.90536e-09
6.86542e-09
6.85277e-09
6.84886e-09
6.84729e-09
6.84626e-09
6.84673e-09
6.8467e-09
6.84638e-09
6.84741e-09
6.84868e-09
6.8524e-09
6.86467e-09
6.90539e-09
7.03323e-09
7.42896e-09
8.28083e-09
)
;

boundaryField
{
    fuel
    {
        type            fixedValue;
        value           nonuniform 0();
    }
    wall
    {
        type            zeroGradient;
    }
    outlet
    {
        type            zeroGradient;
    }
    frontAndBack
    {
        type            empty;
    }
    procBoundary1to0
    {
        type            processor;
        value           nonuniform List<scalar> 
21
(
2.28809e-08
1.23821e-08
8.39204e-09
7.07987e-09
6.77441e-09
6.71672e-09
6.703e-09
6.70454e-09
6.69871e-09
6.70195e-09
6.75012e-09
6.75012e-09
6.74513e-09
6.75223e-09
6.7507e-09
6.76481e-09
6.82929e-09
7.10502e-09
8.14836e-09
1.20697e-08
2.08512e-08
)
;
    }
}


// ************************************************************************* //
