/*--------------------------------*- C++ -*----------------------------------*\
| =========                 |                                                 |
| \\      /  F ield         | OpenFOAM: The Open Source CFD Toolbox           |
|  \\    /   O peration     | Version:  dev                                   |
|   \\  /    A nd           | Web:      www.OpenFOAM.org                      |
|    \\/     M anipulation  |                                                 |
\*---------------------------------------------------------------------------*/
FoamFile
{
    version     2.0;
    format      ascii;
    class       volScalarField;
    location    "0";
    object      C2O;
}
// * * * * * * * * * * * * * * * * * * * * * * * * * * * * * * * * * * * * * //

dimensions      [0 0 0 0 0 0 0];

internalField   nonuniform List<scalar> 
250
(
2.25616e-08
1.90696e-08
2.11488e-08
1.83041e-08
1.85082e-08
1.77809e-08
1.79247e-08
1.76233e-08
1.77705e-08
1.76113e-08
1.75508e-08
1.43598e-08
1.56078e-08
1.34784e-08
1.36086e-08
1.30788e-08
1.31849e-08
1.29635e-08
1.30742e-08
1.29565e-08
1.28837e-08
1.32309e-08
1.29425e-08
1.33147e-08
1.32682e-08
1.34977e-08
1.45652e-08
1.44807e-08
1.79803e-08
1.87446e-08
1.33858e-08
1.07102e-08
1.14226e-08
9.88096e-09
9.96218e-09
9.58251e-09
9.6589e-09
9.50039e-09
9.58147e-09
9.49637e-09
9.44356e-09
9.69303e-09
9.48526e-09
9.74681e-09
9.71461e-09
9.87647e-09
1.06259e-08
1.05953e-08
1.31791e-08
1.39627e-08
1.00279e-08
7.91905e-09
8.30912e-09
7.22032e-09
7.2733e-09
6.99911e-09
7.05359e-09
6.94132e-09
7.00014e-09
6.93906e-09
6.90117e-09
7.07902e-09
6.93044e-09
7.11128e-09
7.09017e-09
7.20176e-09
7.72275e-09
7.71612e-09
9.57631e-09
1.0275e-08
7.37093e-09
5.76479e-09
5.99203e-09
5.20961e-09
5.24224e-09
5.07257e-09
5.11167e-09
5.03222e-09
5.07492e-09
5.03102e-09
5.00383e-09
5.13084e-09
5.02431e-09
5.14848e-09
5.13525e-09
5.20504e-09
5.55687e-09
5.57137e-09
6.88692e-09
7.45621e-09
5.29303e-09
4.12667e-09
4.25409e-09
3.71397e-09
3.73828e-09
3.61873e-09
3.64677e-09
3.591e-09
3.62178e-09
3.59044e-09
3.57113e-09
3.66113e-09
3.58526e-09
3.66956e-09
3.66156e-09
3.7059e-09
3.9476e-09
3.95848e-09
4.87061e-09
5.30434e-09
3.70036e-09
2.89049e-09
2.95893e-09
2.59792e-09
2.61538e-09
2.5342e-09
2.55366e-09
2.51592e-09
2.53724e-09
2.51569e-09
2.50256e-09
2.56384e-09
2.51191e-09
2.5671e-09
2.56248e-09
2.59021e-09
2.75029e-09
2.75805e-09
3.36937e-09
3.68349e-09
2.53822e-09
2.00746e-09
2.03597e-09
1.80801e-09
1.81856e-09
1.76712e-09
1.77958e-09
1.7558e-09
1.76945e-09
1.75566e-09
1.74741e-09
1.78607e-09
1.75319e-09
1.78693e-09
1.78448e-09
1.80114e-09
1.90082e-09
1.90879e-09
2.29792e-09
2.51803e-09
1.75947e-09
1.43222e-09
1.43267e-09
1.29841e-09
1.30251e-09
1.27261e-09
1.27964e-09
1.26598e-09
1.27383e-09
1.26575e-09
1.26105e-09
1.28322e-09
1.26439e-09
1.28327e-09
1.28219e-09
1.29181e-09
1.34964e-09
1.35997e-09
1.59459e-09
1.74751e-09
1.29456e-09
1.10096e-09
1.0836e-09
1.00923e-09
1.00825e-09
9.92336e-10
9.95561e-10
9.88449e-10
9.92405e-10
9.88042e-10
9.85571e-10
9.97235e-10
9.87455e-10
9.97211e-10
9.96883e-10
1.00256e-09
1.03424e-09
1.04698e-09
1.18404e-09
1.29236e-09
1.05591e-09
9.40781e-10
9.14492e-10
8.74164e-10
8.6994e-10
8.61964e-10
8.62881e-10
8.59424e-10
8.61146e-10
8.58833e-10
8.57504e-10
8.63603e-10
8.58679e-10
8.63736e-10
8.63658e-10
8.67548e-10
8.84731e-10
8.98704e-10
9.80084e-10
1.05967e-09
9.5713e-10
8.81804e-10
8.53229e-10
8.2905e-10
8.23321e-10
8.18984e-10
8.18793e-10
8.16917e-10
8.17666e-10
8.16181e-10
8.1521e-10
8.19309e-10
8.16159e-10
8.19571e-10
8.1938e-10
8.22768e-10
8.333e-10
8.47109e-10
9.00809e-10
9.62237e-10
9.22601e-10
8.64468e-10
8.36581e-10
8.18794e-10
8.12668e-10
8.09663e-10
8.09067e-10
8.07718e-10
8.08155e-10
8.06894e-10
8.05957e-10
8.09649e-10
8.06873e-10
8.09969e-10
8.09574e-10
8.12939e-10
8.2083e-10
8.34006e-10
8.75443e-10
9.26535e-10
)
;

boundaryField
{
    fuel
    {
        type            fixedValue;
        value           nonuniform 0();
    }
    wall
    {
        type            zeroGradient;
    }
    outlet
    {
        type            zeroGradient;
    }
    frontAndBack
    {
        type            empty;
    }
    procBoundary1to0
    {
        type            processor;
        value           nonuniform List<scalar> 
21
(
2.84011e-08
2.49813e-08
2.83131e-08
2.46326e-08
2.49546e-08
2.39743e-08
2.41661e-08
2.37676e-08
2.3957e-08
2.37478e-08
1.75123e-08
1.75123e-08
1.79844e-08
1.75938e-08
1.81078e-08
1.80456e-08
1.83626e-08
1.98488e-08
1.96699e-08
2.42456e-08
2.48003e-08
)
;
    }
}


// ************************************************************************* //
