/*--------------------------------*- C++ -*----------------------------------*\
| =========                 |                                                 |
| \\      /  F ield         | OpenFOAM: The Open Source CFD Toolbox           |
|  \\    /   O peration     | Version:  dev                                   |
|   \\  /    A nd           | Web:      www.OpenFOAM.org                      |
|    \\/     M anipulation  |                                                 |
\*---------------------------------------------------------------------------*/
FoamFile
{
    version     2.0;
    format      ascii;
    class       volScalarField;
    location    "0";
    object      C4H612;
}
// * * * * * * * * * * * * * * * * * * * * * * * * * * * * * * * * * * * * * //

dimensions      [0 0 0 0 0 0 0];

internalField   nonuniform List<scalar> 
250
(
5.5725e-09
5.08528e-09
4.70095e-09
4.737e-09
4.67107e-09
4.71394e-09
4.69886e-09
4.72404e-09
4.70896e-09
4.72402e-09
6.14183e-09
5.9653e-09
5.5082e-09
5.66783e-09
5.57945e-09
5.66217e-09
5.63617e-09
5.67927e-09
5.65354e-09
5.67907e-09
5.69213e-09
5.62136e-09
5.68052e-09
5.61675e-09
5.62623e-09
5.61136e-09
5.52793e-09
5.72852e-09
5.75583e-09
6.26709e-09
7.29965e-09
7.55363e-09
6.94281e-09
7.32216e-09
7.18785e-09
7.34511e-09
7.29801e-09
7.37494e-09
7.32867e-09
7.37399e-09
7.39827e-09
7.27238e-09
7.37859e-09
7.26786e-09
7.28208e-09
7.25151e-09
7.0649e-09
7.33117e-09
7.1161e-09
7.6459e-09
9.58046e-09
1.0581e-08
9.65042e-09
1.0467e-08
1.02345e-08
1.05435e-08
1.04519e-08
1.05983e-08
1.05091e-08
1.05951e-08
1.06423e-08
1.04031e-08
1.06069e-08
1.0402e-08
1.04252e-08
1.03693e-08
9.9712e-09
1.03753e-08
9.68082e-09
1.02544e-08
1.431e-08
1.69111e-08
1.52337e-08
1.70917e-08
1.66487e-08
1.72165e-08
1.70215e-08
1.73252e-08
1.71367e-08
1.73151e-08
1.74149e-08
1.6918e-08
1.73455e-08
1.69293e-08
1.69729e-08
1.68748e-08
1.60274e-08
1.67069e-08
1.4936e-08
1.55902e-08
2.51684e-08
3.14315e-08
2.80715e-08
3.22668e-08
3.13038e-08
3.25883e-08
3.21454e-08
3.28124e-08
3.23896e-08
3.27811e-08
3.30032e-08
3.19102e-08
3.28607e-08
3.1961e-08
3.20524e-08
3.18561e-08
2.99196e-08
3.13126e-08
2.69603e-08
2.77625e-08
5.17881e-08
6.4757e-08
5.83598e-08
6.6421e-08
6.45209e-08
6.69096e-08
6.60483e-08
6.72593e-08
6.64718e-08
6.7174e-08
6.75692e-08
6.56082e-08
6.73419e-08
6.57593e-08
6.5916e-08
6.56513e-08
6.20055e-08
6.47296e-08
5.58986e-08
5.7101e-08
1.04474e-07
1.20302e-07
1.12033e-07
1.20905e-07
1.1832e-07
1.20886e-07
1.19831e-07
1.21074e-07
1.20231e-07
1.20901e-07
1.21254e-07
1.19403e-07
1.21106e-07
1.19669e-07
1.19782e-07
1.19828e-07
1.16085e-07
1.19766e-07
1.10358e-07
1.12875e-07
1.67016e-07
1.7799e-07
1.70018e-07
1.76128e-07
1.73359e-07
1.75237e-07
1.7424e-07
1.75075e-07
1.74467e-07
1.74777e-07
1.74941e-07
1.74006e-07
1.74988e-07
1.74333e-07
1.743e-07
1.74894e-07
1.72519e-07
1.76397e-07
1.71555e-07
1.76001e-07
2.25074e-07
2.32622e-07
2.24639e-07
2.29265e-07
2.26189e-07
2.27705e-07
2.26645e-07
2.27231e-07
2.26774e-07
2.2673e-07
2.268e-07
2.26508e-07
2.27029e-07
2.26913e-07
2.2673e-07
2.27844e-07
2.26038e-07
2.30357e-07
2.2775e-07
2.33186e-07
2.88023e-07
2.93516e-07
2.85439e-07
2.88936e-07
2.85414e-07
2.86598e-07
2.85423e-07
2.85723e-07
2.85462e-07
2.84935e-07
2.84896e-07
2.85416e-07
2.8536e-07
2.85921e-07
2.85515e-07
2.873e-07
2.85925e-07
2.90801e-07
2.89514e-07
2.95179e-07
3.55746e-07
3.57553e-07
3.49958e-07
3.5113e-07
3.47265e-07
3.47774e-07
3.46584e-07
3.46379e-07
3.46481e-07
3.45269e-07
3.45012e-07
3.46858e-07
3.45781e-07
3.47426e-07
3.46691e-07
3.49326e-07
3.4897e-07
3.54201e-07
3.55949e-07
3.61977e-07
4.10458e-07
4.07944e-07
4.01061e-07
3.99614e-07
3.95598e-07
3.95357e-07
3.94236e-07
3.93512e-07
3.93996e-07
3.92146e-07
3.91645e-07
3.94829e-07
3.92682e-07
3.95402e-07
3.94344e-07
3.97718e-07
3.98493e-07
4.03908e-07
4.09196e-07
4.15949e-07
)
;

boundaryField
{
    fuel
    {
        type            fixedValue;
        value           nonuniform 0();
    }
    wall
    {
        type            zeroGradient;
    }
    outlet
    {
        type            zeroGradient;
    }
    frontAndBack
    {
        type            empty;
    }
    procBoundary1to0
    {
        type            processor;
        value           nonuniform List<scalar> 
21
(
5.35762e-09
4.58711e-09
4.2295e-09
4.1884e-09
4.13316e-09
4.15336e-09
4.14432e-09
4.1595e-09
4.15026e-09
4.15946e-09
4.73139e-09
4.73139e-09
4.6898e-09
4.72428e-09
4.68626e-09
4.69279e-09
4.68834e-09
4.66035e-09
4.82925e-09
4.99559e-09
5.5051e-09
)
;
    }
}


// ************************************************************************* //
