/*--------------------------------*- C++ -*----------------------------------*\
| =========                 |                                                 |
| \\      /  F ield         | OpenFOAM: The Open Source CFD Toolbox           |
|  \\    /   O peration     | Version:  dev                                   |
|   \\  /    A nd           | Web:      www.OpenFOAM.org                      |
|    \\/     M anipulation  |                                                 |
\*---------------------------------------------------------------------------*/
FoamFile
{
    version     2.0;
    format      ascii;
    class       volScalarField;
    location    "0";
    object      C5H2;
}
// * * * * * * * * * * * * * * * * * * * * * * * * * * * * * * * * * * * * * //

dimensions      [0 0 0 0 0 0 0];

internalField   nonuniform List<scalar> 
250
(
5.10979e-08
4.56825e-08
4.63127e-08
4.22377e-08
4.19603e-08
4.11292e-08
4.12314e-08
4.09201e-08
4.10495e-08
4.08897e-08
4.58664e-08
4.13011e-08
4.14907e-08
3.82578e-08
3.79694e-08
3.7318e-08
3.73871e-08
3.71347e-08
3.72385e-08
3.71079e-08
3.70045e-08
3.74259e-08
3.70924e-08
3.75834e-08
3.75375e-08
3.79977e-08
3.9709e-08
4.06827e-08
4.76079e-08
5.12679e-08
4.17166e-08
3.80022e-08
3.78507e-08
3.53317e-08
3.50292e-08
3.45267e-08
3.45653e-08
3.43649e-08
3.44447e-08
3.4339e-08
3.42518e-08
3.45967e-08
3.43288e-08
3.47291e-08
3.46927e-08
3.50852e-08
3.64332e-08
3.73057e-08
4.29142e-08
4.62229e-08
3.85791e-08
3.5639e-08
3.52363e-08
3.33026e-08
3.29892e-08
3.2603e-08
3.2615e-08
3.24579e-08
3.25165e-08
3.24307e-08
3.23573e-08
3.26394e-08
3.24267e-08
3.27518e-08
3.27244e-08
3.30646e-08
3.41157e-08
3.49088e-08
3.94043e-08
4.23377e-08
3.63301e-08
3.40226e-08
3.34644e-08
3.19731e-08
3.16514e-08
3.13767e-08
3.13667e-08
3.12439e-08
3.12848e-08
3.12136e-08
3.11519e-08
3.13846e-08
3.12164e-08
3.14807e-08
3.14616e-08
3.17543e-08
3.25633e-08
3.33018e-08
3.68768e-08
3.94384e-08
3.48057e-08
3.29996e-08
3.23408e-08
3.11999e-08
3.08813e-08
3.06716e-08
3.0645e-08
3.05475e-08
3.05745e-08
3.0513e-08
3.04613e-08
3.06561e-08
3.05229e-08
3.07393e-08
3.07272e-08
3.09839e-08
3.16127e-08
3.22889e-08
3.51147e-08
3.73227e-08
3.38182e-08
3.23738e-08
3.16729e-08
3.07896e-08
3.04825e-08
3.03187e-08
3.02806e-08
3.02011e-08
3.02178e-08
3.01617e-08
3.01188e-08
3.02847e-08
3.01789e-08
3.03579e-08
3.03515e-08
3.05788e-08
3.10685e-08
3.16828e-08
3.39055e-08
3.57841e-08
3.31829e-08
3.19869e-08
3.12896e-08
3.05926e-08
3.03049e-08
3.01725e-08
3.01276e-08
3.00603e-08
3.00699e-08
3.00159e-08
2.99812e-08
3.01245e-08
3.00405e-08
3.01897e-08
3.01878e-08
3.03892e-08
3.0772e-08
3.13229e-08
3.30619e-08
3.46379e-08
3.27471e-08
3.17219e-08
3.106e-08
3.0499e-08
3.02366e-08
3.01255e-08
3.00776e-08
3.00186e-08
3.00236e-08
2.99696e-08
2.99429e-08
3.0067e-08
3.00015e-08
3.01257e-08
3.0128e-08
3.03047e-08
3.06052e-08
3.10918e-08
3.2442e-08
3.37441e-08
3.24106e-08
3.15109e-08
3.09024e-08
3.04438e-08
3.02099e-08
3.01137e-08
3.00653e-08
3.00124e-08
3.00143e-08
2.99594e-08
2.99405e-08
3.00476e-08
2.99982e-08
3.01006e-08
3.01072e-08
3.02599e-08
3.04967e-08
3.09206e-08
3.19587e-08
3.30193e-08
3.21277e-08
3.13283e-08
3.07792e-08
3.03997e-08
3.01941e-08
3.01086e-08
3.00613e-08
3.00131e-08
3.00131e-08
2.99568e-08
2.99453e-08
3.00372e-08
3.00021e-08
3.00853e-08
3.00962e-08
3.02266e-08
3.04148e-08
3.07808e-08
3.15735e-08
3.243e-08
3.18943e-08
3.11765e-08
3.06822e-08
3.03623e-08
3.01812e-08
3.01037e-08
3.00582e-08
3.00135e-08
3.00125e-08
2.99548e-08
2.99497e-08
3.0029e-08
3.00057e-08
3.0073e-08
3.00881e-08
3.01993e-08
3.03522e-08
3.06697e-08
3.12809e-08
3.19783e-08
3.1737e-08
3.10748e-08
3.06191e-08
3.03369e-08
3.01726e-08
3.01e-08
3.0056e-08
3.00136e-08
3.00122e-08
2.99535e-08
2.99526e-08
3.00237e-08
3.00081e-08
3.00651e-08
3.0083e-08
3.01811e-08
3.03131e-08
3.05979e-08
3.10982e-08
3.16951e-08
)
;

boundaryField
{
    fuel
    {
        type            fixedValue;
        value           nonuniform 0();
    }
    wall
    {
        type            zeroGradient;
    }
    outlet
    {
        type            zeroGradient;
    }
    frontAndBack
    {
        type            empty;
    }
    procBoundary1to0
    {
        type            processor;
        value           nonuniform List<scalar> 
21
(
5.74803e-08
5.12391e-08
5.24561e-08
4.73889e-08
4.71275e-08
4.60796e-08
4.622e-08
4.5844e-08
4.59987e-08
4.58068e-08
4.0768e-08
4.0768e-08
4.12779e-08
4.08708e-08
4.1466e-08
4.14124e-08
4.19571e-08
4.41035e-08
4.52092e-08
5.36434e-08
5.75772e-08
)
;
    }
}


// ************************************************************************* //
