/*--------------------------------*- C++ -*----------------------------------*\
| =========                 |                                                 |
| \\      /  F ield         | OpenFOAM: The Open Source CFD Toolbox           |
|  \\    /   O peration     | Version:  dev                                   |
|   \\  /    A nd           | Web:      www.OpenFOAM.org                      |
|    \\/     M anipulation  |                                                 |
\*---------------------------------------------------------------------------*/
FoamFile
{
    version     2.0;
    format      ascii;
    class       volScalarField;
    location    "0";
    object      C5H4O;
}
// * * * * * * * * * * * * * * * * * * * * * * * * * * * * * * * * * * * * * //

dimensions      [0 0 0 0 0 0 0];

internalField   nonuniform List<scalar> 
250
(
2.89013e-09
2.13313e-09
1.70718e-09
1.65667e-09
1.61416e-09
1.6304e-09
1.62396e-09
1.63478e-09
1.62812e-09
1.63465e-09
3.03986e-09
2.41668e-09
1.98543e-09
1.9649e-09
1.91703e-09
1.94225e-09
1.93316e-09
1.94814e-09
1.93889e-09
1.94792e-09
1.95252e-09
1.92743e-09
1.9488e-09
1.92533e-09
1.92981e-09
1.92719e-09
1.91193e-09
2.0617e-09
2.36086e-09
3.20554e-09
3.3566e-09
2.8647e-09
2.40845e-09
2.43023e-09
2.37269e-09
2.41203e-09
2.39868e-09
2.42006e-09
2.40674e-09
2.41963e-09
2.42643e-09
2.39056e-09
2.42121e-09
2.38891e-09
2.39444e-09
2.38922e-09
2.35534e-09
2.52328e-09
2.79117e-09
3.67546e-09
3.916e-09
3.55692e-09
3.06004e-09
3.13293e-09
3.06099e-09
3.1184e-09
3.09947e-09
3.12832e-09
3.11005e-09
3.1275e-09
3.13666e-09
3.08849e-09
3.13002e-09
3.08845e-09
3.09494e-09
3.08861e-09
3.03171e-09
3.22479e-09
3.4573e-09
4.402e-09
4.75347e-09
4.48661e-09
3.96414e-09
4.06652e-09
3.98562e-09
4.03607e-09
4.01411e-09
4.04423e-09
4.02453e-09
4.04291e-09
4.05176e-09
4.00278e-09
4.04573e-09
4.00568e-09
4.01169e-09
4.01145e-09
3.9554e-09
4.15938e-09
4.39933e-09
5.41038e-09
5.67077e-09
5.36054e-09
4.88985e-09
4.92912e-09
4.85184e-09
4.88512e-09
4.86723e-09
4.88648e-09
4.8728e-09
4.88493e-09
4.88888e-09
4.86051e-09
4.88643e-09
4.86592e-09
4.86926e-09
4.87899e-09
4.85904e-09
5.05221e-09
5.39157e-09
6.42953e-09
6.2598e-09
5.82828e-09
5.4599e-09
5.40061e-09
5.34018e-09
5.3455e-09
5.33579e-09
5.33995e-09
5.3353e-09
5.33855e-09
5.33666e-09
5.3351e-09
5.3381e-09
5.34083e-09
5.3411e-09
5.35907e-09
5.38749e-09
5.54662e-09
5.99919e-09
6.98014e-09
6.33287e-09
5.83631e-09
5.5644e-09
5.44699e-09
5.40469e-09
5.39184e-09
5.38842e-09
5.38344e-09
5.38453e-09
5.38229e-09
5.37759e-09
5.39071e-09
5.38084e-09
5.39531e-09
5.39407e-09
5.41387e-09
5.46643e-09
5.58987e-09
6.06302e-09
6.90935e-09
6.0558e-09
5.58779e-09
5.38248e-09
5.26006e-09
5.23037e-09
5.21279e-09
5.21193e-09
5.20491e-09
5.20746e-09
5.20382e-09
5.19945e-09
5.21388e-09
5.2026e-09
5.21727e-09
5.21617e-09
5.23303e-09
5.28395e-09
5.38035e-09
5.78531e-09
6.46475e-09
5.6846e-09
5.30296e-09
5.13755e-09
5.04215e-09
5.01883e-09
5.00516e-09
5.00396e-09
4.99916e-09
5.00046e-09
4.99794e-09
4.99552e-09
5.00386e-09
4.9977e-09
5.00657e-09
5.00652e-09
5.01884e-09
5.05495e-09
5.13313e-09
5.43244e-09
5.95158e-09
5.43133e-09
5.1403e-09
5.00086e-09
4.93489e-09
4.91457e-09
4.9059e-09
4.90368e-09
4.90127e-09
4.90115e-09
4.89984e-09
4.89912e-09
4.90187e-09
4.90055e-09
4.90434e-09
4.90524e-09
4.91408e-09
4.93679e-09
5.00121e-09
5.20753e-09
5.59466e-09
5.31381e-09
5.08009e-09
4.96249e-09
4.91172e-09
4.89402e-09
4.88737e-09
4.88494e-09
4.88319e-09
4.88275e-09
4.88164e-09
4.88159e-09
4.88266e-09
4.88281e-09
4.88483e-09
4.88616e-09
4.89307e-09
4.91014e-09
4.96225e-09
5.11224e-09
5.40326e-09
5.25661e-09
5.05481e-09
4.95177e-09
4.90845e-09
4.8927e-09
4.88679e-09
4.88444e-09
4.8828e-09
4.88235e-09
4.8812e-09
4.8814e-09
4.88208e-09
4.88257e-09
4.884e-09
4.88554e-09
4.89134e-09
4.90603e-09
4.94992e-09
5.06866e-09
5.30114e-09
)
;

boundaryField
{
    fuel
    {
        type            fixedValue;
        value           nonuniform 0();
    }
    wall
    {
        type            zeroGradient;
    }
    outlet
    {
        type            zeroGradient;
    }
    frontAndBack
    {
        type            empty;
    }
    procBoundary1to0
    {
        type            processor;
        value           nonuniform List<scalar> 
21
(
2.86272e-09
1.9533e-09
1.51721e-09
1.44385e-09
1.40394e-09
1.41447e-09
1.40968e-09
1.41783e-09
1.41281e-09
1.41772e-09
1.63788e-09
1.63788e-09
1.61983e-09
1.63522e-09
1.61783e-09
1.62145e-09
1.62112e-09
1.6178e-09
1.75663e-09
2.07866e-09
2.89976e-09
)
;
    }
}


// ************************************************************************* //
