/*--------------------------------*- C++ -*----------------------------------*\
| =========                 |                                                 |
| \\      /  F ield         | OpenFOAM: The Open Source CFD Toolbox           |
|  \\    /   O peration     | Version:  dev                                   |
|   \\  /    A nd           | Web:      www.OpenFOAM.org                      |
|    \\/     M anipulation  |                                                 |
\*---------------------------------------------------------------------------*/
FoamFile
{
    version     2.0;
    format      ascii;
    class       volScalarField;
    location    "0";
    object      C6H2;
}
// * * * * * * * * * * * * * * * * * * * * * * * * * * * * * * * * * * * * * //

dimensions      [0 0 0 0 0 0 0];

internalField   nonuniform List<scalar> 
25
(
8.3435e-10
7.63233e-10
6.97951e-10
6.37602e-10
5.81573e-10
5.29438e-10
4.80894e-10
4.35722e-10
3.93765e-10
3.549e-10
3.18967e-10
2.85991e-10
2.55732e-10
2.28045e-10
2.02892e-10
1.7991e-10
1.59297e-10
1.40678e-10
1.23774e-10
1.08619e-10
9.49633e-11
8.26175e-11
7.15814e-11
6.1609e-11
5.28055e-11
)
;

boundaryField
{
    wall
    {
        type            zeroGradient;
    }
    fuel
    {
        type            fixedValue;
        value           nonuniform 0();
    }
    outlet
    {
        type            inletOutlet;
        inletValue      nonuniform 0();
        value           nonuniform 0();
    }
    procBoundary1to0
    {
        type            processor;
        value           uniform 9.12671e-10;
    }
    procBoundary1to2
    {
        type            processor;
        value           uniform 4.49855e-11;
    }
}


// ************************************************************************* //
