/*--------------------------------*- C++ -*----------------------------------*\
| =========                 |                                                 |
| \\      /  F ield         | OpenFOAM: The Open Source CFD Toolbox           |
|  \\    /   O peration     | Version:  dev                                   |
|   \\  /    A nd           | Web:      www.OpenFOAM.org                      |
|    \\/     M anipulation  |                                                 |
\*---------------------------------------------------------------------------*/
FoamFile
{
    version     2.0;
    format      ascii;
    class       volScalarField;
    location    "0";
    object      C6H5O;
}
// * * * * * * * * * * * * * * * * * * * * * * * * * * * * * * * * * * * * * //

dimensions      [0 0 0 0 0 0 0];

internalField   nonuniform List<scalar> 
250
(
7.9302e-10
5.6008e-10
5.24955e-10
4.87804e-10
4.84525e-10
4.7812e-10
4.78884e-10
4.76661e-10
4.7757e-10
4.76509e-10
6.72096e-10
4.99093e-10
4.80257e-10
4.45065e-10
4.43457e-10
4.36419e-10
4.3748e-10
4.34766e-10
4.36007e-10
4.34655e-10
4.33739e-10
4.37839e-10
4.3449e-10
4.39014e-10
4.38724e-10
4.42362e-10
4.58353e-10
4.69884e-10
5.58445e-10
6.82193e-10
5.60653e-10
4.30997e-10
4.24546e-10
3.90936e-10
3.9079e-10
3.83196e-10
3.84539e-10
3.81418e-10
3.82965e-10
3.81352e-10
3.80282e-10
3.85138e-10
3.81117e-10
3.8624e-10
3.85793e-10
3.89326e-10
4.05236e-10
4.11931e-10
4.90715e-10
5.88967e-10
4.54036e-10
3.56625e-10
3.5801e-10
3.27237e-10
3.28155e-10
3.20536e-10
3.22014e-10
3.1881e-10
3.20491e-10
3.1879e-10
3.17673e-10
3.22781e-10
3.18506e-10
3.2367e-10
3.23163e-10
3.26339e-10
3.41276e-10
3.44171e-10
4.11763e-10
4.85731e-10
3.54145e-10
2.82655e-10
2.87639e-10
2.61484e-10
2.62681e-10
2.56885e-10
2.58244e-10
2.55435e-10
2.56968e-10
2.55448e-10
2.54452e-10
2.59016e-10
2.55164e-10
2.59609e-10
2.5916e-10
2.61525e-10
2.73761e-10
2.74839e-10
3.28475e-10
3.81044e-10
2.69421e-10
2.2071e-10
2.25231e-10
2.06163e-10
2.07234e-10
2.02885e-10
2.03929e-10
2.01817e-10
2.03e-10
2.01845e-10
2.01081e-10
2.04562e-10
2.01607e-10
2.04896e-10
2.04572e-10
2.06204e-10
2.15203e-10
2.15394e-10
2.53874e-10
2.8956e-10
2.06794e-10
1.7515e-10
1.78193e-10
1.6517e-10
1.6595e-10
1.62896e-10
1.6364e-10
1.62144e-10
1.62999e-10
1.62173e-10
1.61617e-10
1.64119e-10
1.61987e-10
1.64289e-10
1.64071e-10
1.65176e-10
1.71377e-10
1.71357e-10
1.97399e-10
2.21344e-10
1.62346e-10
1.40315e-10
1.42606e-10
1.32905e-10
1.33584e-10
1.31215e-10
1.31823e-10
1.30643e-10
1.31339e-10
1.30674e-10
1.30224e-10
1.32234e-10
1.30512e-10
1.32293e-10
1.32128e-10
1.32929e-10
1.37568e-10
1.37327e-10
1.55905e-10
1.723e-10
1.2357e-10
1.06689e-10
1.08749e-10
1.00956e-10
1.01642e-10
9.96886e-11
1.00232e-10
9.92497e-11
9.98509e-11
9.92842e-11
9.89068e-11
1.00601e-10
9.9137e-11
1.00579e-10
1.00446e-10
1.01021e-10
1.04696e-10
1.0422e-10
1.182e-10
1.29347e-10
8.57249e-11
7.40355e-11
7.54081e-11
7.00564e-11
7.05973e-11
6.92501e-11
6.96487e-11
6.89792e-11
6.93984e-11
6.90086e-11
6.87577e-11
6.98997e-11
6.89042e-11
6.98465e-11
6.97684e-11
7.00978e-11
7.25461e-11
7.21675e-11
8.14014e-11
8.85165e-11
5.67241e-11
5.03167e-11
5.06472e-11
4.79446e-11
4.82083e-11
4.75404e-11
4.774e-11
4.7426e-11
4.76217e-11
4.74423e-11
4.73375e-11
4.7836e-11
4.73976e-11
4.77978e-11
4.77844e-11
4.7907e-11
4.90779e-11
4.90363e-11
5.37567e-11
5.81242e-11
4.26657e-11
3.95657e-11
3.91948e-11
3.81158e-11
3.81615e-11
3.79128e-11
3.79776e-11
3.78775e-11
3.79338e-11
3.78845e-11
3.78611e-11
3.79868e-11
3.78737e-11
3.79704e-11
3.79907e-11
3.80142e-11
3.8451e-11
3.86296e-11
4.07346e-11
4.36214e-11
3.87336e-11
3.68109e-11
3.62236e-11
3.56743e-11
3.56306e-11
3.55197e-11
3.5538e-11
3.55024e-11
3.55153e-11
3.55073e-11
3.54985e-11
3.55356e-11
3.54994e-11
3.55259e-11
3.55476e-11
3.55515e-11
3.57801e-11
3.59957e-11
3.7272e-11
3.95089e-11
)
;

boundaryField
{
    fuel
    {
        type            fixedValue;
        value           nonuniform 0();
    }
    wall
    {
        type            zeroGradient;
    }
    outlet
    {
        type            zeroGradient;
    }
    frontAndBack
    {
        type            empty;
    }
    procBoundary1to0
    {
        type            processor;
        value           nonuniform List<scalar> 
21
(
9.32692e-10
6.16476e-10
5.61325e-10
5.21071e-10
5.16035e-10
5.10119e-10
5.10636e-10
5.08866e-10
5.09479e-10
5.08679e-10
4.75754e-10
4.75754e-10
4.79017e-10
4.76406e-10
4.80165e-10
4.80074e-10
4.83762e-10
4.99697e-10
5.16555e-10
6.15089e-10
7.63975e-10
)
;
    }
}


// ************************************************************************* //
