/*--------------------------------*- C++ -*----------------------------------*\
| =========                 |                                                 |
| \\      /  F ield         | OpenFOAM: The Open Source CFD Toolbox           |
|  \\    /   O peration     | Version:  dev                                   |
|   \\  /    A nd           | Web:      www.OpenFOAM.org                      |
|    \\/     M anipulation  |                                                 |
\*---------------------------------------------------------------------------*/
FoamFile
{
    version     2.0;
    format      ascii;
    class       volScalarField;
    location    "0";
    object      CH4;
}
// * * * * * * * * * * * * * * * * * * * * * * * * * * * * * * * * * * * * * //

dimensions      [0 0 0 0 0 0 0];

internalField   nonuniform List<scalar> 
25
(
2.05187e-07
1.65235e-07
1.36399e-07
1.15205e-07
9.92074e-08
8.67061e-08
7.68807e-08
6.86536e-08
6.15971e-08
5.54432e-08
5.00287e-08
4.52573e-08
4.10704e-08
3.74273e-08
3.43013e-08
3.16158e-08
2.9383e-08
2.76003e-08
2.62823e-08
2.53379e-08
2.47467e-08
2.45081e-08
2.46214e-08
2.50745e-08
2.58923e-08
)
;

boundaryField
{
    wall
    {
        type            zeroGradient;
    }
    fuel
    {
        type            fixedValue;
        value           nonuniform 0();
    }
    outlet
    {
        type            inletOutlet;
        inletValue      nonuniform 0();
        value           nonuniform 0();
    }
    procBoundary1to0
    {
        type            processor;
        value           uniform 2.6165e-07;
    }
    procBoundary1to2
    {
        type            processor;
        value           uniform 2.70273e-08;
    }
}


// ************************************************************************* //
