/*--------------------------------*- C++ -*----------------------------------*\
| =========                 |                                                 |
| \\      /  F ield         | OpenFOAM: The Open Source CFD Toolbox           |
|  \\    /   O peration     | Version:  dev                                   |
|   \\  /    A nd           | Web:      www.OpenFOAM.org                      |
|    \\/     M anipulation  |                                                 |
\*---------------------------------------------------------------------------*/
FoamFile
{
    version     2.0;
    format      ascii;
    class       volScalarField;
    location    "0";
    object      CH4;
}
// * * * * * * * * * * * * * * * * * * * * * * * * * * * * * * * * * * * * * //

dimensions      [0 0 0 0 0 0 0];

internalField   nonuniform List<scalar> 
250
(
0.00113506
0.00106988
0.00104381
0.00103732
0.00103406
0.00103429
0.00103397
0.0010344
0.00103414
0.00103443
0.00112191
0.00107059
0.00104894
0.00104327
0.00104047
0.0010406
0.00104032
0.00104069
0.00104046
0.00104072
0.00104084
0.00104017
0.00104073
0.00104004
0.00104029
0.00104061
0.00104191
0.00105136
0.00107477
0.00112269
0.00111154
0.00107111
0.00105322
0.00104825
0.00104586
0.00104592
0.00104568
0.00104598
0.00104578
0.00104601
0.00104611
0.00104553
0.00104601
0.00104543
0.00104566
0.00104595
0.00104721
0.00105547
0.00107671
0.00112014
0.00110332
0.00107142
0.00105671
0.00105234
0.00105031
0.00105031
0.00105011
0.00105036
0.00105019
0.00105038
0.00105047
0.00104998
0.00105038
0.0010499
0.0010501
0.00105038
0.00105156
0.0010587
0.00107772
0.00111652
0.00109676
0.00107153
0.00105948
0.0010557
0.001054
0.00105391
0.00105374
0.00105393
0.0010538
0.00105396
0.00105403
0.00105363
0.00105395
0.00105357
0.00105374
0.00105401
0.00105512
0.00106118
0.00107793
0.00111204
0.00109147
0.00107148
0.00106164
0.00105836
0.00105694
0.00105682
0.00105668
0.00105683
0.00105673
0.00105687
0.00105692
0.00105659
0.00105685
0.00105655
0.00105669
0.00105694
0.00105795
0.00106303
0.00107752
0.00110697
0.00108719
0.00107131
0.00106331
0.00106049
0.0010593
0.00105917
0.00105906
0.00105917
0.00105909
0.00105921
0.00105925
0.00105898
0.00105919
0.00105896
0.00105907
0.00105929
0.0010602
0.0010644
0.00107667
0.00110159
0.00108371
0.00107106
0.00106457
0.00106217
0.00106119
0.00106105
0.00106096
0.00106104
0.00106098
0.00106108
0.00106112
0.0010609
0.00106106
0.00106089
0.00106098
0.00106117
0.00106198
0.00106539
0.00107555
0.00109617
0.00108086
0.00107074
0.00106549
0.00106345
0.00106265
0.00106251
0.00106244
0.0010625
0.00106246
0.00106254
0.00106256
0.0010624
0.00106251
0.00106239
0.00106246
0.00106263
0.00106334
0.00106606
0.00107427
0.00109094
0.00107845
0.0010703
0.00106607
0.00106434
0.0010637
0.00106356
0.00106351
0.00106354
0.00106352
0.00106359
0.0010636
0.00106348
0.00106355
0.00106348
0.00106353
0.00106368
0.00106429
0.00106642
0.00107291
0.00108606
0.00107637
0.00106974
0.00106631
0.00106485
0.00106433
0.00106419
0.00106416
0.00106418
0.00106416
0.00106423
0.00106423
0.00106415
0.00106418
0.00106414
0.00106418
0.00106431
0.00106483
0.00106649
0.0010715
0.00108165
0.00107458
0.00106908
0.00106623
0.001065
0.00106457
0.00106445
0.00106443
0.00106444
0.00106443
0.00106449
0.00106449
0.00106443
0.00106444
0.00106442
0.00106445
0.00106456
0.00106499
0.0010663
0.00107014
0.00107793
0.00107333
0.00106854
0.00106605
0.00106498
0.00106461
0.0010645
0.00106448
0.00106449
0.00106448
0.00106453
0.00106453
0.00106448
0.00106449
0.00106447
0.0010645
0.00106459
0.00106497
0.00106606
0.00106912
0.00107542
)
;

boundaryField
{
    fuel
    {
        type            fixedValue;
        value           nonuniform 0();
    }
    wall
    {
        type            zeroGradient;
    }
    outlet
    {
        type            zeroGradient;
    }
    frontAndBack
    {
        type            empty;
    }
    procBoundary1to0
    {
        type            processor;
        value           nonuniform List<scalar> 
21
(
0.00115181
0.00106906
0.00103787
0.00103038
0.00102664
0.00102696
0.0010266
0.00102709
0.0010268
0.00102712
0.00103457
0.00103457
0.00103381
0.00103445
0.00103365
0.00103393
0.00103427
0.0010356
0.00104628
0.00107184
0.00112405
)
;
    }
}


// ************************************************************************* //
