/*--------------------------------*- C++ -*----------------------------------*\
| =========                 |                                                 |
| \\      /  F ield         | OpenFOAM: The Open Source CFD Toolbox           |
|  \\    /   O peration     | Version:  dev                                   |
|   \\  /    A nd           | Web:      www.OpenFOAM.org                      |
|    \\/     M anipulation  |                                                 |
\*---------------------------------------------------------------------------*/
FoamFile
{
    version     2.0;
    format      ascii;
    class       volScalarField;
    location    "0";
    object      H;
}
// * * * * * * * * * * * * * * * * * * * * * * * * * * * * * * * * * * * * * //

dimensions      [0 0 0 0 0 0 0];

internalField   nonuniform List<scalar> 
250
(
4.29846e-06
4.38081e-06
5.12568e-06
4.73713e-06
4.83332e-06
4.69795e-06
4.73077e-06
4.66867e-06
4.70098e-06
4.66749e-06
3.55899e-06
3.48817e-06
4.05349e-06
3.70973e-06
3.78665e-06
3.67247e-06
3.70078e-06
3.64792e-06
3.6761e-06
3.64746e-06
3.63053e-06
3.71404e-06
3.64348e-06
3.73216e-06
3.7182e-06
3.75759e-06
3.95899e-06
3.80233e-06
4.18734e-06
3.85083e-06
2.85553e-06
2.70559e-06
3.12308e-06
2.83464e-06
2.89466e-06
2.80102e-06
2.82456e-06
2.78121e-06
2.80492e-06
2.78124e-06
2.76718e-06
2.83611e-06
2.77768e-06
2.84961e-06
2.83812e-06
2.87001e-06
3.03283e-06
2.91031e-06
3.24656e-06
3.00973e-06
2.21696e-06
2.04154e-06
2.34069e-06
2.11067e-06
2.15682e-06
2.08108e-06
2.09997e-06
2.06565e-06
2.08493e-06
2.06598e-06
2.05466e-06
2.1098e-06
2.0629e-06
2.11905e-06
2.11018e-06
2.13487e-06
2.26262e-06
2.16859e-06
2.44701e-06
2.28462e-06
1.66115e-06
1.48861e-06
1.70111e-06
1.51773e-06
1.55091e-06
1.50088e-06
1.51557e-06
1.4893e-06
1.50446e-06
1.48977e-06
1.48092e-06
1.52371e-06
1.48718e-06
1.52932e-06
1.52294e-06
1.53911e-06
1.63352e-06
1.56788e-06
1.78812e-06
1.68022e-06
1.19512e-06
1.04777e-06
1.19144e-06
1.05605e-06
1.08028e-06
1.04317e-06
1.0542e-06
1.03479e-06
1.0463e-06
1.0353e-06
1.02858e-06
1.06074e-06
1.03317e-06
1.0636e-06
1.05931e-06
1.06999e-06
1.13951e-06
1.0925e-06
1.25937e-06
1.19065e-06
8.16494e-07
7.00601e-07
7.94109e-07
6.98391e-07
7.15415e-07
6.89062e-07
6.97044e-07
6.83265e-07
6.91658e-07
6.8374e-07
6.78837e-07
7.02083e-07
6.82061e-07
7.03183e-07
7.00407e-07
7.0742e-07
7.56259e-07
7.23831e-07
8.44679e-07
8.03532e-07
5.18131e-07
4.34056e-07
4.91823e-07
4.27976e-07
4.39288e-07
4.21721e-07
4.272e-07
4.17977e-07
4.23743e-07
4.18375e-07
4.14999e-07
4.30842e-07
4.17127e-07
4.31016e-07
4.29273e-07
4.33677e-07
4.65919e-07
4.4474e-07
5.27142e-07
5.0467e-07
2.93353e-07
2.39138e-07
2.7179e-07
2.33318e-07
2.40158e-07
2.29636e-07
2.33045e-07
2.27484e-07
2.31046e-07
2.27774e-07
2.25687e-07
2.35396e-07
2.26944e-07
2.3521e-07
2.3419e-07
2.36649e-07
2.55834e-07
2.43264e-07
2.93879e-07
2.8312e-07
1.40518e-07
1.11966e-07
1.27649e-07
1.08305e-07
1.11785e-07
1.06525e-07
1.083e-07
1.05498e-07
1.07333e-07
1.0567e-07
1.04589e-07
1.09561e-07
1.05211e-07
1.09342e-07
1.08832e-07
1.09964e-07
1.19509e-07
1.13228e-07
1.39043e-07
1.34718e-07
5.31853e-08
4.14541e-08
4.73106e-08
3.9629e-08
4.09992e-08
3.89211e-08
3.9647e-08
3.85299e-08
3.92753e-08
3.86058e-08
3.81543e-08
4.01899e-08
3.84011e-08
4.00522e-08
3.98458e-08
4.02616e-08
4.40343e-08
4.16022e-08
5.20515e-08
5.09019e-08
1.25743e-08
9.6781e-09
1.09791e-08
9.15145e-09
9.46825e-09
8.97712e-09
9.15292e-09
8.88661e-09
9.06671e-09
8.90505e-09
8.79072e-09
9.29329e-09
8.85083e-09
9.24955e-09
9.19829e-09
9.29298e-09
1.01893e-08
9.6352e-09
1.21974e-08
1.21017e-08
1.62486e-09
1.31776e-09
1.44377e-09
1.2477e-09
1.27759e-09
1.22461e-09
1.24358e-09
1.21365e-09
1.234e-09
1.21548e-09
1.20056e-09
1.26222e-09
1.20812e-09
1.25633e-09
1.2492e-09
1.26147e-09
1.36197e-09
1.30433e-09
1.59467e-09
1.61081e-09
)
;

boundaryField
{
    fuel
    {
        type            fixedValue;
        value           nonuniform 0();
    }
    wall
    {
        type            zeroGradient;
    }
    outlet
    {
        type            zeroGradient;
    }
    frontAndBack
    {
        type            empty;
    }
    procBoundary1to0
    {
        type            processor;
        value           nonuniform List<scalar> 
21
(
5.04164e-06
5.36185e-06
6.32496e-06
5.90533e-06
6.02517e-06
5.86821e-06
5.90559e-06
5.83497e-06
5.87074e-06
5.83283e-06
4.6477e-06
4.6477e-06
4.74544e-06
4.66321e-06
4.76826e-06
4.75245e-06
4.79935e-06
5.03999e-06
4.84345e-06
5.2565e-06
4.79025e-06
)
;
    }
}


// ************************************************************************* //
