/*--------------------------------*- C++ -*----------------------------------*\
| =========                 |                                                 |
| \\      /  F ield         | OpenFOAM: The Open Source CFD Toolbox           |
|  \\    /   O peration     | Version:  dev                                   |
|   \\  /    A nd           | Web:      www.OpenFOAM.org                      |
|    \\/     M anipulation  |                                                 |
\*---------------------------------------------------------------------------*/
FoamFile
{
    version     2.0;
    format      ascii;
    class       volScalarField;
    location    "0";
    object      H2;
}
// * * * * * * * * * * * * * * * * * * * * * * * * * * * * * * * * * * * * * //

dimensions      [0 0 0 0 0 0 0];

internalField   nonuniform List<scalar> 
250
(
0.00917388
0.00928931
0.00933372
0.0093624
0.00937026
0.00937357
0.00937389
0.00937453
0.00937454
0.00937479
0.00920776
0.00930518
0.00934445
0.00936906
0.0093762
0.00937903
0.00937941
0.00937995
0.00938
0.00938021
0.0093805
0.00937972
0.00938014
0.00937903
0.00937871
0.00937563
0.00936573
0.00934478
0.0092823
0.00920408
0.00923666
0.0093182
0.00935278
0.00937362
0.00938008
0.00938247
0.0093829
0.00938334
0.00938343
0.0093836
0.00938383
0.00938324
0.00938351
0.00938263
0.0093823
0.00937959
0.0093712
0.0093526
0.00929826
0.00922787
0.00926084
0.0093285
0.00935877
0.0093762
0.009382
0.009384
0.00938447
0.00938482
0.00938495
0.00938508
0.00938526
0.00938484
0.00938497
0.0093843
0.00938395
0.00938157
0.00937459
0.00935822
0.00931158
0.00924909
0.00928066
0.00933642
0.00936262
0.00937707
0.00938223
0.00938388
0.00938438
0.00938466
0.00938482
0.00938492
0.00938505
0.00938477
0.00938478
0.00938428
0.00938394
0.00938187
0.00937611
0.00936185
0.00932238
0.00926768
0.00929662
0.00934221
0.00936471
0.0093766
0.00938114
0.00938252
0.00938303
0.00938325
0.00938343
0.00938351
0.0093836
0.00938342
0.00938335
0.00938298
0.00938264
0.00938086
0.00937613
0.00936387
0.00933092
0.00928377
0.00930935
0.00934642
0.00936552
0.0093753
0.00937924
0.00938041
0.0093809
0.00938109
0.00938128
0.00938135
0.00938141
0.00938129
0.00938117
0.00938089
0.00938056
0.00937904
0.00937515
0.00936476
0.0093376
0.00929761
0.00931956
0.00934962
0.00936563
0.00937367
0.00937705
0.00937806
0.00937852
0.0093787
0.00937888
0.00937896
0.00937899
0.0093789
0.00937876
0.00937853
0.00937822
0.00937692
0.00937371
0.00936504
0.00934292
0.00930959
0.00932795
0.0093523
0.00936556
0.0093722
0.00937505
0.00937594
0.00937636
0.00937655
0.00937671
0.0093768
0.00937682
0.00937672
0.0093766
0.00937638
0.0093761
0.00937499
0.00937233
0.0093652
0.0093474
0.00932008
0.00933511
0.00935484
0.00936572
0.00937123
0.0093736
0.0093744
0.00937477
0.00937496
0.0093751
0.0093752
0.00937521
0.0093751
0.009375
0.0093748
0.00937453
0.0093736
0.00937137
0.00936559
0.00935143
0.00932939
0.00934132
0.00935735
0.00936628
0.00937084
0.00937281
0.00937353
0.00937386
0.00937406
0.00937417
0.00937428
0.00937428
0.00937417
0.00937407
0.00937389
0.00937364
0.00937285
0.00937099
0.00936632
0.00935518
0.00933758
0.00934649
0.00935968
0.00936712
0.00937092
0.00937258
0.00937322
0.00937351
0.0093737
0.00937381
0.00937392
0.00937391
0.0093738
0.00937371
0.00937354
0.00937331
0.00937264
0.00937108
0.00936726
0.00935847
0.00934433
0.00934995
0.00936132
0.00936783
0.00937114
0.00937259
0.00937318
0.00937345
0.00937363
0.00937373
0.00937384
0.00937383
0.00937372
0.00937364
0.00937348
0.00937325
0.00937266
0.0093713
0.00936801
0.00936073
0.00934881
)
;

boundaryField
{
    fuel
    {
        type            fixedValue;
        value           nonuniform 0();
    }
    wall
    {
        type            zeroGradient;
    }
    outlet
    {
        type            zeroGradient;
    }
    frontAndBack
    {
        type            empty;
    }
    procBoundary1to0
    {
        type            processor;
        value           nonuniform List<scalar> 
21
(
0.00913426
0.00927065
0.00932059
0.00935369
0.00936227
0.00936608
0.00936634
0.00936706
0.00936705
0.00936734
0.00937513
0.00937513
0.00937416
0.00937473
0.00937339
0.00937307
0.0093696
0.00935811
0.0093347
0.00926383
0.00917807
)
;
    }
}


// ************************************************************************* //
