/*--------------------------------*- C++ -*----------------------------------*\
| =========                 |                                                 |
| \\      /  F ield         | OpenFOAM: The Open Source CFD Toolbox           |
|  \\    /   O peration     | Version:  dev                                   |
|   \\  /    A nd           | Web:      www.OpenFOAM.org                      |
|    \\/     M anipulation  |                                                 |
\*---------------------------------------------------------------------------*/
FoamFile
{
    version     2.0;
    format      ascii;
    class       volScalarField;
    location    "0";
    object      n-A1C2H2;
}
// * * * * * * * * * * * * * * * * * * * * * * * * * * * * * * * * * * * * * //

dimensions      [0 0 0 0 0 0 0];

internalField   nonuniform List<scalar> 
250
(
2.82612e-11
1.92641e-11
1.67836e-11
1.5922e-11
1.56494e-11
1.56059e-11
1.55848e-11
1.5598e-11
1.55797e-11
1.55933e-11
2.61024e-11
1.93444e-11
1.72958e-11
1.66212e-11
1.63732e-11
1.63559e-11
1.633e-11
1.63514e-11
1.63278e-11
1.6347e-11
1.63553e-11
1.63019e-11
1.63509e-11
1.63168e-11
1.63376e-11
1.63956e-11
1.66088e-11
1.74608e-11
2.01131e-11
2.57484e-11
2.49802e-11
2.00316e-11
1.82966e-11
1.78428e-11
1.76039e-11
1.76293e-11
1.75934e-11
1.76307e-11
1.75966e-11
1.7626e-11
1.76424e-11
1.7556e-11
1.76334e-11
1.75764e-11
1.75981e-11
1.76419e-11
1.77729e-11
1.85555e-11
2.0781e-11
2.58616e-11
2.50731e-11
2.16176e-11
2.01137e-11
1.9902e-11
1.96586e-11
1.97314e-11
1.96817e-11
1.97385e-11
1.96907e-11
1.97329e-11
1.97591e-11
1.96317e-11
1.97456e-11
1.96634e-11
1.9686e-11
1.9724e-11
1.97596e-11
2.04896e-11
2.22686e-11
2.68291e-11
2.65891e-11
2.43345e-11
2.30397e-11
2.30441e-11
2.28018e-11
2.28793e-11
2.2817e-11
2.28859e-11
2.28279e-11
2.28789e-11
2.29126e-11
2.27558e-11
2.28978e-11
2.2804e-11
2.28265e-11
2.28688e-11
2.28504e-11
2.35117e-11
2.49075e-11
2.89686e-11
2.96147e-11
2.81778e-11
2.71546e-11
2.72063e-11
2.69724e-11
2.70539e-11
2.69882e-11
2.70484e-11
2.69923e-11
2.70402e-11
2.70727e-11
2.69243e-11
2.70628e-11
2.69888e-11
2.70101e-11
2.70587e-11
2.70562e-11
2.76381e-11
2.88407e-11
3.2417e-11
3.40232e-11
3.2959e-11
3.22715e-11
3.21814e-11
3.19795e-11
3.20056e-11
3.19509e-11
3.19745e-11
3.19382e-11
3.19664e-11
3.1985e-11
3.1899e-11
3.19875e-11
3.1974e-11
3.19913e-11
3.20637e-11
3.21792e-11
3.26357e-11
3.39291e-11
3.7059e-11
3.95959e-11
3.84459e-11
3.81385e-11
3.77242e-11
3.75747e-11
3.74986e-11
3.74698e-11
3.74322e-11
3.74328e-11
3.74262e-11
3.74187e-11
3.74455e-11
3.74389e-11
3.75234e-11
3.75307e-11
3.76441e-11
3.7961e-11
3.82528e-11
3.9923e-11
4.26819e-11
4.65573e-11
4.50772e-11
4.51077e-11
4.43404e-11
4.42332e-11
4.40615e-11
4.40577e-11
4.39608e-11
4.39985e-11
4.39579e-11
4.39218e-11
4.40665e-11
4.39589e-11
4.41446e-11
4.41358e-11
4.42957e-11
4.48143e-11
4.4945e-11
4.70853e-11
4.95294e-11
5.88586e-11
5.80669e-11
5.78591e-11
5.74799e-11
5.72116e-11
5.7184e-11
5.71115e-11
5.70747e-11
5.70676e-11
5.70628e-11
5.70357e-11
5.71103e-11
5.707e-11
5.72138e-11
5.71936e-11
5.73942e-11
5.77624e-11
5.79827e-11
5.97443e-11
6.18035e-11
9.95314e-11
1.00683e-10
9.91864e-11
9.9612e-11
9.87574e-11
9.89946e-11
9.87448e-11
9.8776e-11
9.87029e-11
9.87192e-11
9.86434e-11
9.87875e-11
9.87196e-11
9.89709e-11
9.88747e-11
9.93133e-11
9.95341e-11
1.00248e-10
1.01411e-10
1.03282e-10
1.98005e-10
1.86759e-10
1.87615e-10
1.79914e-10
1.79381e-10
1.77456e-10
1.77815e-10
1.76513e-10
1.77312e-10
1.76446e-10
1.7558e-10
1.78809e-10
1.7609e-10
1.7883e-10
1.78275e-10
1.79706e-10
1.84481e-10
1.8381e-10
1.97964e-10
2.02338e-10
2.45763e-10
2.14692e-10
2.19335e-10
2.00584e-10
2.0095e-10
1.9619e-10
1.97517e-10
1.94537e-10
1.96474e-10
1.94535e-10
1.92608e-10
1.99901e-10
1.93611e-10
1.99432e-10
1.98347e-10
2.00612e-10
2.11395e-10
2.08261e-10
2.41688e-10
2.51724e-10
)
;

boundaryField
{
    fuel
    {
        type            fixedValue;
        value           nonuniform 0();
    }
    wall
    {
        type            zeroGradient;
    }
    outlet
    {
        type            zeroGradient;
    }
    frontAndBack
    {
        type            empty;
    }
    procBoundary1to0
    {
        type            processor;
        value           nonuniform List<scalar> 
21
(
3.14407e-11
1.95566e-11
1.65162e-11
1.54861e-11
1.51779e-11
1.51217e-11
1.51021e-11
1.51133e-11
1.50965e-11
1.51084e-11
1.55971e-11
1.55971e-11
1.55621e-11
1.5596e-11
1.55749e-11
1.55955e-11
1.56681e-11
1.59389e-11
1.68848e-11
1.99214e-11
2.61355e-11
)
;
    }
}


// ************************************************************************* //
