/*--------------------------------*- C++ -*----------------------------------*\
| =========                 |                                                 |
| \\      /  F ield         | OpenFOAM: The Open Source CFD Toolbox           |
|  \\    /   O peration     | Version:  dev                                   |
|   \\  /    A nd           | Web:      www.OpenFOAM.org                      |
|    \\/     M anipulation  |                                                 |
\*---------------------------------------------------------------------------*/
FoamFile
{
    version     2.0;
    format      ascii;
    class       volScalarField;
    location    "0";
    object      n-C4H3;
}
// * * * * * * * * * * * * * * * * * * * * * * * * * * * * * * * * * * * * * //

dimensions      [0 0 0 0 0 0 0];

internalField   nonuniform List<scalar> 
25
(
6.68133e-11
6.50121e-11
6.34473e-11
6.20762e-11
6.08646e-11
5.97828e-11
5.88041e-11
5.79037e-11
5.70591e-11
5.62501e-11
5.54574e-11
5.46708e-11
5.38721e-11
5.30528e-11
5.22104e-11
5.13296e-11
5.0429e-11
4.94959e-11
4.85188e-11
4.75155e-11
4.64793e-11
4.54053e-11
4.43115e-11
4.31799e-11
4.20424e-11
)
;

boundaryField
{
    wall
    {
        type            zeroGradient;
    }
    fuel
    {
        type            fixedValue;
        value           nonuniform 0();
    }
    outlet
    {
        type            inletOutlet;
        inletValue      nonuniform 0();
        value           nonuniform 0();
    }
    procBoundary1to0
    {
        type            processor;
        value           uniform 6.89145e-11;
    }
    procBoundary1to2
    {
        type            processor;
        value           uniform 4.08787e-11;
    }
}


// ************************************************************************* //
