/*--------------------------------*- C++ -*----------------------------------*\
| =========                 |                                                 |
| \\      /  F ield         | OpenFOAM: The Open Source CFD Toolbox           |
|  \\    /   O peration     | Version:  dev                                   |
|   \\  /    A nd           | Web:      www.OpenFOAM.org                      |
|    \\/     M anipulation  |                                                 |
\*---------------------------------------------------------------------------*/
FoamFile
{
    version     2.0;
    format      ascii;
    class       volScalarField;
    location    "0";
    object      naphthyne;
}
// * * * * * * * * * * * * * * * * * * * * * * * * * * * * * * * * * * * * * //

dimensions      [0 0 0 0 0 0 0];

internalField   nonuniform List<scalar> 
250
(
3.23274e-09
1.83524e-09
1.48921e-09
1.36661e-09
1.33269e-09
1.32338e-09
1.3218e-09
1.32134e-09
1.32043e-09
1.32075e-09
2.80065e-09
1.72758e-09
1.4506e-09
1.34045e-09
1.31195e-09
1.30201e-09
1.30091e-09
1.29976e-09
1.2993e-09
1.29923e-09
1.29871e-09
1.29936e-09
1.2994e-09
1.30084e-09
1.30264e-09
1.31214e-09
1.34729e-09
1.44869e-09
1.81256e-09
2.58289e-09
2.4499e-09
1.6263e-09
1.40356e-09
1.30699e-09
1.28305e-09
1.27334e-09
1.27251e-09
1.27109e-09
1.27087e-09
1.27062e-09
1.2701e-09
1.27105e-09
1.27072e-09
1.2724e-09
1.274e-09
1.28243e-09
1.31429e-09
1.40111e-09
1.72273e-09
2.39811e-09
2.16917e-09
1.53769e-09
1.3567e-09
1.2745e-09
1.25421e-09
1.24541e-09
1.24467e-09
1.24333e-09
1.24314e-09
1.24292e-09
1.2425e-09
1.24324e-09
1.24299e-09
1.24438e-09
1.24586e-09
1.25311e-09
1.28071e-09
1.35498e-09
1.63444e-09
2.22275e-09
1.94912e-09
1.46503e-09
1.31702e-09
1.24855e-09
1.23111e-09
1.22405e-09
1.22325e-09
1.2222e-09
1.22192e-09
1.22184e-09
1.22156e-09
1.22183e-09
1.22191e-09
1.22277e-09
1.22418e-09
1.23014e-09
1.2531e-09
1.31687e-09
1.55602e-09
2.0659e-09
1.78049e-09
1.41031e-09
1.28795e-09
1.23225e-09
1.21716e-09
1.21141e-09
1.21052e-09
1.20978e-09
1.2094e-09
1.20947e-09
1.20931e-09
1.20914e-09
1.20953e-09
1.2099e-09
1.21125e-09
1.21614e-09
1.23501e-09
1.2894e-09
1.4915e-09
1.93049e-09
1.65302e-09
1.36994e-09
1.26883e-09
1.22382e-09
1.21077e-09
1.20611e-09
1.20518e-09
1.20465e-09
1.20421e-09
1.20439e-09
1.2043e-09
1.20388e-09
1.20444e-09
1.20453e-09
1.20578e-09
1.20983e-09
1.22529e-09
1.27123e-09
1.44011e-09
1.81388e-09
1.55614e-09
1.33932e-09
1.25635e-09
1.21989e-09
1.20873e-09
1.20489e-09
1.20398e-09
1.20355e-09
1.20312e-09
1.20333e-09
1.20326e-09
1.20282e-09
1.20336e-09
1.20339e-09
1.2045e-09
1.20791e-09
1.22064e-09
1.25886e-09
1.39808e-09
1.71077e-09
1.48096e-09
1.31459e-09
1.24706e-09
1.2175e-09
1.20808e-09
1.20486e-09
1.20402e-09
1.20363e-09
1.20324e-09
1.20346e-09
1.20338e-09
1.20302e-09
1.20345e-09
1.20353e-09
1.20449e-09
1.20737e-09
1.21787e-09
1.2491e-09
1.36165e-09
1.61717e-09
1.42187e-09
1.29392e-09
1.23923e-09
1.21536e-09
1.2075e-09
1.2048e-09
1.20404e-09
1.20368e-09
1.20334e-09
1.20355e-09
1.20346e-09
1.20318e-09
1.20351e-09
1.20365e-09
1.20446e-09
1.20691e-09
1.21548e-09
1.24061e-09
1.32932e-09
1.53256e-09
1.3762e-09
1.27705e-09
1.23265e-09
1.21344e-09
1.2069e-09
1.20463e-09
1.20395e-09
1.20362e-09
1.20332e-09
1.20353e-09
1.20344e-09
1.20322e-09
1.20347e-09
1.20365e-09
1.20434e-09
1.20641e-09
1.21336e-09
1.2334e-09
1.30161e-09
1.45924e-09
1.3429e-09
1.26421e-09
1.22754e-09
1.21189e-09
1.2064e-09
1.20448e-09
1.20386e-09
1.20356e-09
1.2033e-09
1.2035e-09
1.20341e-09
1.20323e-09
1.20342e-09
1.20363e-09
1.20422e-09
1.20601e-09
1.21169e-09
1.22779e-09
1.27975e-09
1.40082e-09
1.3227e-09
1.25618e-09
1.22429e-09
1.2109e-09
1.20608e-09
1.20438e-09
1.20381e-09
1.20353e-09
1.20328e-09
1.20348e-09
1.20339e-09
1.20323e-09
1.20339e-09
1.20362e-09
1.20414e-09
1.20576e-09
1.21062e-09
1.22424e-09
1.26575e-09
1.36315e-09
)
;

boundaryField
{
    fuel
    {
        type            fixedValue;
        value           nonuniform 0();
    }
    wall
    {
        type            zeroGradient;
    }
    outlet
    {
        type            zeroGradient;
    }
    frontAndBack
    {
        type            empty;
    }
    procBoundary1to0
    {
        type            processor;
        value           nonuniform List<scalar> 
21
(
3.76737e-09
1.94297e-09
1.51212e-09
1.37751e-09
1.33758e-09
1.32966e-09
1.32746e-09
1.32802e-09
1.32651e-09
1.32739e-09
1.32039e-09
1.32039e-09
1.32011e-09
1.32104e-09
1.32159e-09
1.32369e-09
1.33404e-09
1.37109e-09
1.48878e-09
1.89331e-09
2.76253e-09
)
;
    }
}


// ************************************************************************* //
