/*--------------------------------*- C++ -*----------------------------------*\
| =========                 |                                                 |
| \\      /  F ield         | OpenFOAM: The Open Source CFD Toolbox           |
|  \\    /   O peration     | Version:  dev                                   |
|   \\  /    A nd           | Web:      www.OpenFOAM.org                      |
|    \\/     M anipulation  |                                                 |
\*---------------------------------------------------------------------------*/
FoamFile
{
    version     2.0;
    format      ascii;
    class       volScalarField;
    location    "0";
    object      OH;
}
// * * * * * * * * * * * * * * * * * * * * * * * * * * * * * * * * * * * * * //

dimensions      [0 0 0 0 0 0 0];

internalField   nonuniform List<scalar> 
250
(
3.04617e-06
3.01564e-06
3.68025e-06
3.27377e-06
3.3576e-06
3.22536e-06
3.25631e-06
3.19668e-06
3.22746e-06
3.19533e-06
2.30519e-06
2.16055e-06
2.61916e-06
2.29521e-06
2.35666e-06
2.25543e-06
2.27972e-06
2.2337e-06
2.25809e-06
2.23315e-06
2.21841e-06
2.29125e-06
2.2299e-06
2.30681e-06
2.29517e-06
2.33123e-06
2.51354e-06
2.39195e-06
2.78772e-06
2.54875e-06
1.65506e-06
1.47677e-06
1.77922e-06
1.53775e-06
1.58099e-06
1.50698e-06
1.52505e-06
1.49143e-06
1.50974e-06
1.49135e-06
1.48045e-06
1.53401e-06
1.48871e-06
1.54407e-06
1.53563e-06
1.5613e-06
1.69235e-06
1.60693e-06
1.91101e-06
1.76559e-06
1.12009e-06
9.56723e-07
1.14595e-06
9.78206e-07
1.00757e-06
9.55536e-07
9.68228e-07
9.45063e-07
9.58033e-07
9.45214e-07
9.37594e-07
9.74868e-07
9.43204e-07
9.80661e-07
9.7505e-07
9.92042e-07
1.08147e-06
1.02397e-06
1.24164e-06
1.15797e-06
7.0779e-07
5.78615e-07
6.9269e-07
5.80031e-07
5.98022e-07
5.6892e-07
5.77291e-07
5.62337e-07
5.70947e-07
5.62565e-07
5.57552e-07
5.81929e-07
5.61121e-07
5.84752e-07
5.81379e-07
5.90698e-07
6.46378e-07
6.12499e-07
7.573e-07
7.12443e-07
4.11536e-07
3.24002e-07
3.86816e-07
3.19413e-07
3.30195e-07
3.12709e-07
3.17823e-07
3.0889e-07
3.14177e-07
3.09102e-07
3.06041e-07
3.20824e-07
3.08139e-07
3.21901e-07
3.20069e-07
3.25024e-07
3.58131e-07
3.38309e-07
4.26912e-07
4.05031e-07
2.1477e-07
1.62833e-07
1.9434e-07
1.5793e-07
1.63784e-07
1.54313e-07
1.57147e-07
1.52321e-07
1.55254e-07
1.52477e-07
1.50783e-07
1.589e-07
1.51896e-07
1.59162e-07
1.58257e-07
1.6071e-07
1.78429e-07
1.67882e-07
2.16764e-07
2.07429e-07
9.64151e-08
7.01876e-08
8.40449e-08
6.69751e-08
6.97373e-08
6.53102e-08
6.66774e-08
6.44163e-08
6.58263e-08
6.45093e-08
6.36973e-08
6.75599e-08
6.42075e-08
6.75514e-08
6.71511e-08
6.82172e-08
7.64245e-08
7.15293e-08
9.48989e-08
9.16283e-08
3.46724e-08
2.41563e-08
2.91352e-08
2.26908e-08
2.37463e-08
2.20873e-08
2.26195e-08
2.17685e-08
2.23118e-08
2.18113e-08
2.14993e-08
2.29734e-08
2.16865e-08
2.29279e-08
2.27819e-08
2.31492e-08
2.62072e-08
2.43672e-08
3.3346e-08
3.24885e-08
9.03666e-09
6.06838e-09
7.36893e-09
5.62707e-09
5.91804e-09
5.4725e-09
5.62122e-09
5.39162e-09
5.54129e-09
5.40527e-09
5.31941e-09
5.72203e-09
5.36863e-09
5.69988e-09
5.66147e-09
5.75039e-09
6.56762e-09
6.07001e-09
8.52877e-09
8.38041e-09
1.50725e-09
9.91941e-10
1.20323e-09
9.09379e-10
9.59015e-10
8.84055e-10
9.09959e-10
8.71104e-10
8.96872e-10
8.73694e-10
8.5872e-10
9.28006e-10
8.66944e-10
9.22707e-10
9.16342e-10
9.29838e-10
1.06693e-09
9.83785e-10
1.40389e-09
1.3949e-09
1.38211e-10
9.5062e-11
1.11898e-10
8.73609e-11
9.14822e-11
8.51551e-11
8.7392e-11
8.40685e-11
8.62973e-11
8.42955e-11
8.29425e-11
8.90375e-11
8.3665e-11
8.84828e-11
8.79263e-11
8.90325e-11
1.0057e-10
9.37767e-11
1.29179e-10
1.29983e-10
8.74501e-12
6.74895e-12
7.47662e-12
6.28165e-12
6.45802e-12
6.1417e-12
6.25298e-12
6.07823e-12
6.19575e-12
6.08853e-12
6.00483e-12
6.35581e-12
6.04813e-12
6.32222e-12
6.28518e-12
6.35461e-12
6.95146e-12
6.63033e-12
8.41953e-12
8.59463e-12
)
;

boundaryField
{
    fuel
    {
        type            fixedValue;
        value           nonuniform 0();
    }
    wall
    {
        type            zeroGradient;
    }
    outlet
    {
        type            zeroGradient;
    }
    frontAndBack
    {
        type            empty;
    }
    procBoundary1to0
    {
        type            processor;
        value           nonuniform List<scalar> 
21
(
3.84319e-06
4.03242e-06
4.96454e-06
4.48182e-06
4.59455e-06
4.42784e-06
4.46602e-06
4.39226e-06
4.42925e-06
4.38975e-06
3.1763e-06
3.1763e-06
3.27032e-06
3.19152e-06
3.2923e-06
3.27769e-06
3.32547e-06
3.56653e-06
3.39978e-06
3.87839e-06
3.50455e-06
)
;
    }
}


// ************************************************************************* //
