/*--------------------------------*- C++ -*----------------------------------*\
| =========                 |                                                 |
| \\      /  F ield         | OpenFOAM: The Open Source CFD Toolbox           |
|  \\    /   O peration     | Version:  dev                                   |
|   \\  /    A nd           | Web:      www.OpenFOAM.org                      |
|    \\/     M anipulation  |                                                 |
\*---------------------------------------------------------------------------*/
FoamFile
{
    version     2.0;
    format      ascii;
    class       volScalarField;
    location    "0";
    object      PC3H4;
}
// * * * * * * * * * * * * * * * * * * * * * * * * * * * * * * * * * * * * * //

dimensions      [0 0 0 0 0 0 0];

internalField   nonuniform List<scalar> 
25
(
6.26054e-10
6.05264e-10
5.85401e-10
5.66336e-10
5.4798e-10
5.30265e-10
5.13134e-10
4.96545e-10
4.80463e-10
4.64869e-10
4.4973e-10
4.35099e-10
4.20954e-10
4.07334e-10
3.94304e-10
3.8183e-10
3.70192e-10
3.59386e-10
3.49467e-10
3.40689e-10
3.33141e-10
3.26965e-10
3.22405e-10
3.19611e-10
3.18867e-10
)
;

boundaryField
{
    wall
    {
        type            zeroGradient;
    }
    fuel
    {
        type            fixedValue;
        value           nonuniform 0();
    }
    outlet
    {
        type            inletOutlet;
        inletValue      nonuniform 0();
        value           nonuniform 0();
    }
    procBoundary1to0
    {
        type            processor;
        value           uniform 6.47948e-10;
    }
    procBoundary1to2
    {
        type            processor;
        value           uniform 3.20374e-10;
    }
}


// ************************************************************************* //
