/*--------------------------------*- C++ -*----------------------------------*\
| =========                 |                                                 |
| \\      /  F ield         | OpenFOAM: The Open Source CFD Toolbox           |
|  \\    /   O peration     | Version:  dev                                   |
|   \\  /    A nd           | Web:      www.OpenFOAM.org                      |
|    \\/     M anipulation  |                                                 |
\*---------------------------------------------------------------------------*/
FoamFile
{
    version     2.0;
    format      ascii;
    class       volScalarField;
    location    "0.15";
    object      A1C2H-;
}
// * * * * * * * * * * * * * * * * * * * * * * * * * * * * * * * * * * * * * //

dimensions      [0 0 0 0 0 0 0];

internalField   nonuniform List<scalar> 
250
(
7.294e-07
7.29565e-07
7.2954e-07
7.2913e-07
7.29548e-07
7.29526e-07
7.29644e-07
7.30541e-07
7.37453e-07
7.51386e-07
1.72394e-09
6.26347e-07
6.26373e-07
6.26336e-07
6.26309e-07
6.26299e-07
6.26288e-07
6.26902e-07
6.28583e-07
6.46425e-07
8.21585e-07
1.34979e-09
4.12551e-07
4.12665e-07
4.12616e-07
4.12568e-07
4.12608e-07
4.12556e-07
4.13252e-07
4.15168e-07
4.34155e-07
6.33259e-07
7.42903e-10
2.5483e-07
2.54965e-07
2.55011e-07
2.54783e-07
2.54845e-07
2.54925e-07
2.55565e-07
2.57411e-07
2.73717e-07
4.43272e-07
4.27522e-10
1.58607e-07
1.58575e-07
1.59137e-07
1.58335e-07
1.58372e-07
1.5873e-07
1.5953e-07
1.6111e-07
1.74244e-07
3.04324e-07
2.78685e-10
1.0154e-07
1.01816e-07
1.01189e-07
1.01869e-07
1.01847e-07
1.0159e-07
1.01787e-07
1.04076e-07
1.14127e-07
2.13759e-07
2.08247e-10
6.87058e-08
6.8829e-08
6.86355e-08
6.88813e-08
6.88104e-08
6.87379e-08
6.91305e-08
7.12795e-08
7.92965e-08
1.4789e-07
1.68002e-10
4.88881e-08
4.89593e-08
4.88871e-08
4.89769e-08
4.88629e-08
4.89433e-08
4.93209e-08
5.14961e-08
5.799e-08
1.1124e-07
1.53004e-10
3.62622e-08
3.63104e-08
3.63069e-08
3.62801e-08
3.6299e-08
3.63173e-08
3.66218e-08
3.84033e-08
4.35745e-08
8.53911e-08
1.64252e-10
2.81125e-08
2.81499e-08
2.81619e-08
2.81068e-08
2.80802e-08
2.81717e-08
2.84286e-08
2.91895e-08
3.33606e-08
6.50505e-08
2.54323e-10
2.24561e-08
2.2485e-08
2.23905e-08
2.25564e-08
2.2496e-08
2.28542e-08
2.37029e-08
2.71468e-08
5.0092e-08
4.53023e-10
1.81451e-08
1.81832e-08
1.80649e-08
1.82873e-08
1.81883e-08
1.85316e-08
1.93872e-08
2.24083e-08
4.07947e-08
8.50504e-10
1.50367e-08
1.50823e-08
1.4932e-08
1.51724e-08
1.50799e-08
1.54164e-08
1.6213e-08
1.88213e-08
3.37871e-08
1.48082e-09
1.27208e-08
1.27724e-08
1.25744e-08
1.28546e-08
1.27625e-08
1.3095e-08
1.38244e-08
1.61277e-08
2.84056e-08
2.34666e-09
1.09417e-08
1.09981e-08
1.09702e-08
1.1078e-08
1.09812e-08
1.1309e-08
1.19689e-08
1.40445e-08
2.42181e-08
3.44614e-09
9.53663e-09
9.59564e-09
9.55032e-09
9.67422e-09
9.57364e-09
9.89455e-09
1.04862e-08
1.23866e-08
2.08951e-08
4.78726e-09
8.40063e-09
8.46013e-09
8.4018e-09
8.53673e-09
8.43504e-09
8.74581e-09
9.27245e-09
1.1031e-08
1.82942e-08
6.36501e-09
7.46424e-09
7.52255e-09
7.45384e-09
7.59577e-09
7.49599e-09
7.79335e-09
8.25907e-09
9.89334e-09
1.62726e-08
8.12697e-09
6.68038e-09
6.73621e-09
6.65792e-09
6.8047e-09
6.70942e-09
6.99039e-09
7.39973e-09
8.91295e-09
1.46235e-08
9.96796e-09
6.01611e-09
6.06853e-09
5.97909e-09
6.13134e-09
6.04245e-09
6.30447e-09
6.66165e-09
8.15326e-09
1.33498e-08
1.17633e-08
5.44743e-09
5.49587e-09
5.46147e-09
5.55264e-09
5.47108e-09
5.71219e-09
6.02714e-09
7.46345e-09
1.22972e-08
1.34054e-08
4.95566e-09
4.99929e-09
4.96508e-09
5.0494e-09
4.97662e-09
5.1954e-09
5.49767e-09
6.80498e-09
1.14126e-08
1.48193e-08
4.57505e-09
4.61476e-09
4.58113e-09
4.65912e-09
4.59411e-09
4.79304e-09
5.07462e-09
6.28035e-09
1.05659e-08
1.59542e-08
4.21913e-09
4.25664e-09
4.22281e-09
4.29751e-09
4.23698e-09
4.4232e-09
4.67644e-09
5.8021e-09
9.77706e-09
1.67731e-08
)
;

boundaryField
{
    fuel
    {
        type            fixedValue;
        value           uniform 0;
    }
    wall
    {
        type            zeroGradient;
    }
    outlet
    {
        type            zeroGradient;
    }
    frontAndBack
    {
        type            empty;
    }
    procBoundary3to0
    {
        type            processor;
        value           nonuniform List<scalar> 10(3.93192e-09 3.96572e-09 3.93377e-09 4.00163e-09 3.94827e-09 4.11622e-09 4.34516e-09 5.3399e-09 9.06071e-09 1.72369e-08);
    }
    procBoundary3to2
    {
        type            processor;
        value           nonuniform List<scalar> 
25
(
7.29288e-07
6.26397e-07
4.12669e-07
2.5489e-07
1.58418e-07
1.01895e-07
6.88759e-08
4.89659e-08
3.63165e-08
2.81515e-08
2.24271e-08
2.24271e-08
1.81285e-08
1.50304e-08
1.27225e-08
1.09491e-08
9.54808e-09
8.41472e-09
7.47996e-09
6.69701e-09
6.03309e-09
5.46433e-09
4.9721e-09
4.591e-09
4.23489e-09
)
;
    }
}


// ************************************************************************* //
