/*--------------------------------*- C++ -*----------------------------------*\
| =========                 |                                                 |
| \\      /  F ield         | OpenFOAM: The Open Source CFD Toolbox           |
|  \\    /   O peration     | Version:  dev                                   |
|   \\  /    A nd           | Web:      www.OpenFOAM.org                      |
|    \\/     M anipulation  |                                                 |
\*---------------------------------------------------------------------------*/
FoamFile
{
    version     2.0;
    format      ascii;
    class       volScalarField;
    location    "0.15";
    object      A2C2HB*;
}
// * * * * * * * * * * * * * * * * * * * * * * * * * * * * * * * * * * * * * //

dimensions      [0 0 0 0 0 0 0];

internalField   nonuniform List<scalar> 
250
(
1.58836e-09
1.58807e-09
1.58808e-09
1.58704e-09
1.58804e-09
1.58812e-09
1.58895e-09
1.59393e-09
1.64611e-09
2.13405e-09
3.82414e-12
1.09403e-09
1.09366e-09
1.09369e-09
1.09374e-09
1.09358e-09
1.09364e-09
1.09534e-09
1.10123e-09
1.17153e-09
2.21154e-09
2.01701e-12
5.68153e-10
5.68164e-10
5.68105e-10
5.68122e-10
5.68092e-10
5.68034e-10
5.69423e-10
5.73992e-10
6.2588e-10
1.46227e-09
9.04819e-13
2.93296e-10
2.93411e-10
2.93448e-10
2.93236e-10
2.93263e-10
2.93358e-10
2.94357e-10
2.97709e-10
3.32244e-10
8.84435e-10
4.90104e-13
1.62357e-10
1.62308e-10
1.62929e-10
1.62066e-10
1.62079e-10
1.62475e-10
1.63487e-10
1.65895e-10
1.8921e-10
5.35758e-10
2.99821e-13
9.71239e-11
9.74072e-11
9.67144e-11
9.74595e-11
9.74217e-11
9.71814e-11
9.73991e-11
1.00199e-10
1.16119e-10
3.39691e-10
2.01412e-13
6.35302e-11
6.36595e-11
6.34502e-11
6.37098e-11
6.36293e-11
6.35724e-11
6.3978e-11
6.64191e-11
7.80819e-11
2.13666e-10
1.40529e-13
4.45255e-11
4.46007e-11
4.45229e-11
4.4618e-11
4.44979e-11
4.45886e-11
4.49636e-11
4.73157e-11
5.62219e-11
1.49851e-10
1.16274e-13
3.27418e-11
3.27932e-11
3.27831e-11
3.27674e-11
3.27685e-11
3.28039e-11
3.30955e-11
3.5021e-11
4.18404e-11
1.08321e-10
1.24498e-13
2.51385e-11
2.51785e-11
2.51832e-11
2.51423e-11
2.50985e-11
2.52031e-11
2.5438e-11
2.63669e-11
3.16684e-11
7.79601e-11
1.99226e-13
1.97847e-11
1.9805e-11
1.97288e-11
1.98665e-11
1.98264e-11
2.01478e-11
2.11316e-11
2.54012e-11
5.69489e-11
3.2745e-13
1.56142e-11
1.56426e-11
1.55455e-11
1.57374e-11
1.56586e-11
1.59565e-11
1.69232e-11
2.05436e-11
4.44659e-11
5.70988e-13
1.25537e-11
1.25885e-11
1.24617e-11
1.26699e-11
1.25975e-11
1.28806e-11
1.37691e-11
1.68142e-11
3.54358e-11
9.72332e-13
1.02548e-11
1.02946e-11
1.01207e-11
1.03674e-11
1.02962e-11
1.05685e-11
1.13724e-11
1.39948e-11
2.87602e-11
1.57611e-12
8.49497e-12
8.53893e-12
8.53264e-12
8.60801e-12
8.53348e-12
8.7957e-12
9.51381e-12
1.18216e-11
2.37518e-11
2.43018e-12
7.126e-12
7.17191e-12
7.14833e-12
7.2384e-12
7.16137e-12
7.41289e-12
8.04776e-12
1.01157e-11
1.99204e-11
3.58735e-12
6.04565e-12
6.09176e-12
6.05561e-12
6.15523e-12
6.07796e-12
6.31745e-12
6.87411e-12
8.75208e-12
1.70297e-11
5.09021e-12
5.18168e-12
5.22663e-12
5.18071e-12
5.28614e-12
5.21109e-12
5.43707e-12
5.92188e-12
7.63989e-12
1.48681e-11
6.94379e-12
4.48183e-12
4.52463e-12
4.46979e-12
4.57937e-12
4.50852e-12
4.71971e-12
5.13964e-12
6.70996e-12
1.31772e-11
9.0968e-12
3.90748e-12
3.94752e-12
3.88205e-12
3.99701e-12
3.93161e-12
4.12701e-12
4.48839e-12
6.00886e-12
1.19261e-11
1.14447e-11
3.42945e-12
3.46644e-12
3.44532e-12
3.51067e-12
3.45117e-12
3.63009e-12
3.94353e-12
5.38772e-12
1.09314e-11
1.38435e-11
3.02487e-12
3.05829e-12
3.03548e-12
3.097e-12
3.04427e-12
3.20624e-12
3.49784e-12
4.80603e-12
1.01202e-11
1.61308e-11
2.71575e-12
2.74634e-12
2.72271e-12
2.78045e-12
2.73348e-12
2.88074e-12
3.14653e-12
4.34728e-12
9.35571e-12
1.81454e-11
2.42853e-12
2.45773e-12
2.43285e-12
2.48915e-12
2.44513e-12
2.58357e-12
2.81834e-12
3.93058e-12
8.64084e-12
1.97487e-11
)
;

boundaryField
{
    fuel
    {
        type            fixedValue;
        value           uniform 0;
    }
    wall
    {
        type            zeroGradient;
    }
    outlet
    {
        type            zeroGradient;
    }
    frontAndBack
    {
        type            empty;
    }
    procBoundary3to0
    {
        type            processor;
        value           nonuniform List<scalar> 10(2.19718e-12 2.22367e-12 2.19961e-12 2.2512e-12 2.21236e-12 2.33724e-12 2.54593e-12 3.52717e-12 7.97712e-12 2.08255e-11);
    }
    procBoundary3to2
    {
        type            processor;
        value           nonuniform List<scalar> 
25
(
1.58783e-09
1.09398e-09
5.68291e-10
2.93372e-10
1.62157e-10
9.74864e-11
6.37031e-11
4.4604e-11
3.27957e-11
2.51772e-11
1.97524e-11
1.97524e-11
1.55944e-11
1.25445e-11
1.02537e-11
8.49985e-12
7.13483e-12
6.05691e-12
5.19425e-12
4.49495e-12
3.92063e-12
3.44229e-12
3.03716e-12
2.72754e-12
2.44011e-12
)
;
    }
}


// ************************************************************************* //
