/*--------------------------------*- C++ -*----------------------------------*\
| =========                 |                                                 |
| \\      /  F ield         | OpenFOAM: The Open Source CFD Toolbox           |
|  \\    /   O peration     | Version:  dev                                   |
|   \\  /    A nd           | Web:      www.OpenFOAM.org                      |
|    \\/     M anipulation  |                                                 |
\*---------------------------------------------------------------------------*/
FoamFile
{
    version     2.0;
    format      ascii;
    class       volScalarField;
    location    "0.15";
    object      A2C2HB*;
}
// * * * * * * * * * * * * * * * * * * * * * * * * * * * * * * * * * * * * * //

dimensions      [0 0 0 0 0 0 0];

internalField   nonuniform List<scalar> 
250
(
1.58082e-09
1.58053e-09
1.58055e-09
1.58057e-09
1.58093e-09
1.58109e-09
1.5802e-09
1.58853e-09
1.6379e-09
1.92961e-09
1.61201e-11
1.0758e-09
1.07538e-09
1.07576e-09
1.07575e-09
1.07572e-09
1.07596e-09
1.07672e-09
1.08544e-09
1.14581e-09
1.5876e-09
1.12179e-11
5.58869e-10
5.58309e-10
5.58881e-10
5.58799e-10
5.58776e-10
5.59004e-10
5.59591e-10
5.6595e-10
6.1026e-10
9.59371e-10
4.03163e-12
2.89048e-10
2.88231e-10
2.89068e-10
2.88963e-10
2.88973e-10
2.89131e-10
2.895e-10
2.93723e-10
3.24172e-10
5.76965e-10
1.51193e-12
1.60528e-10
1.59132e-10
1.60541e-10
1.60441e-10
1.60472e-10
1.60566e-10
1.60797e-10
1.63419e-10
1.85007e-10
3.73468e-10
7.6728e-13
9.50711e-11
9.58121e-11
9.51199e-11
9.49533e-11
9.49813e-11
9.51197e-11
9.54825e-11
9.85597e-11
1.15787e-10
2.63134e-10
5.11047e-13
6.22842e-11
6.26501e-11
6.23388e-11
6.21585e-11
6.22047e-11
6.23302e-11
6.26891e-11
6.51434e-11
7.92721e-11
1.98753e-10
4.23592e-13
4.36783e-11
4.38587e-11
4.37568e-11
4.35103e-11
4.35916e-11
4.37479e-11
4.41532e-11
4.63248e-11
5.76996e-11
1.57568e-10
4.53171e-13
3.22092e-11
3.23434e-11
3.23665e-11
3.20625e-11
3.20077e-11
3.23465e-11
3.26733e-11
3.39946e-11
4.33279e-11
1.2882e-10
8.45395e-13
2.44588e-11
2.46061e-11
2.4414e-11
2.45875e-11
2.45569e-11
2.43983e-11
2.44283e-11
2.55926e-11
3.49271e-11
1.07322e-10
1.99053e-12
1.94854e-11
1.94795e-11
1.94903e-11
1.94863e-11
1.94669e-11
1.94514e-11
2.04947e-11
2.84408e-11
9.04502e-11
4.0016e-12
1.54535e-11
1.54749e-11
1.54264e-11
1.54561e-11
1.54681e-11
1.54752e-11
1.64986e-11
2.35086e-11
7.68394e-11
6.7637e-12
1.25073e-11
1.25262e-11
1.24393e-11
1.25119e-11
1.25254e-11
1.25587e-11
1.34871e-11
2.0166e-11
6.57146e-11
9.21332e-12
1.02925e-11
1.03066e-11
1.01738e-11
1.03041e-11
1.03113e-11
1.03624e-11
1.12081e-11
1.7325e-11
5.65544e-11
1.10394e-11
8.59085e-12
8.60176e-12
8.63392e-12
8.61194e-12
8.61048e-12
8.67135e-12
9.44229e-12
1.48751e-11
4.89723e-11
1.24981e-11
7.25889e-12
7.26712e-12
7.285e-12
7.28636e-12
7.2793e-12
7.34369e-12
8.04548e-12
1.30706e-11
4.26631e-11
1.38143e-11
6.19853e-12
6.20453e-12
6.21154e-12
6.22856e-12
6.21939e-12
6.2832e-12
6.9177e-12
1.1525e-11
3.71394e-11
1.50114e-11
5.34108e-12
5.34527e-12
5.3426e-12
5.37048e-12
5.36201e-12
5.42281e-12
5.98846e-12
1.00629e-11
3.19777e-11
1.59679e-11
4.63747e-12
4.64024e-12
4.62731e-12
4.66428e-12
4.65811e-12
4.71467e-12
5.20667e-12
8.79862e-12
2.75074e-11
1.65365e-11
4.05195e-12
4.0537e-12
4.02774e-12
4.07549e-12
4.07203e-12
4.12388e-12
4.6185e-12
7.69852e-12
2.36169e-11
1.66305e-11
3.55783e-12
3.55908e-12
3.57666e-12
3.57854e-12
3.5772e-12
3.62367e-12
4.0776e-12
6.73547e-12
2.03381e-11
1.6263e-11
3.13438e-12
3.13523e-12
3.148e-12
3.15218e-12
3.15289e-12
3.19312e-12
3.59078e-12
5.88785e-12
1.76465e-11
1.55204e-11
2.80772e-12
2.80844e-12
2.81799e-12
2.82322e-12
2.82538e-12
2.8588e-12
3.21136e-12
5.13908e-12
1.48921e-11
1.45197e-11
2.50519e-12
2.50635e-12
2.51346e-12
2.51957e-12
2.52312e-12
2.56864e-12
2.87629e-12
4.47713e-12
1.27251e-11
1.33884e-11
)
;

boundaryField
{
    fuel
    {
        type            fixedValue;
        value           uniform 0;
    }
    wall
    {
        type            zeroGradient;
    }
    outlet
    {
        type            zeroGradient;
    }
    frontAndBack
    {
        type            empty;
    }
    procBoundary3to0
    {
        type            processor;
        value           nonuniform List<scalar> 10(2.25826e-12 2.25949e-12 2.26504e-12 2.271e-12 2.27533e-12 2.31604e-12 2.58574e-12 3.88811e-12 1.0813e-11 1.22212e-11);
    }
    procBoundary3to2
    {
        type            processor;
        value           nonuniform List<scalar> 
25
(
1.58093e-09
1.07583e-09
5.58838e-10
2.88994e-10
1.60469e-10
9.50443e-11
6.22614e-11
4.36425e-11
3.20927e-11
2.46373e-11
1.94895e-11
1.94895e-11
1.54673e-11
1.25109e-11
1.02897e-11
8.58533e-12
7.25221e-12
6.19114e-12
5.33306e-12
4.62887e-12
4.04288e-12
3.54849e-12
3.12499e-12
2.79845e-12
2.49568e-12
)
;
    }
}


// ************************************************************************* //
