/*--------------------------------*- C++ -*----------------------------------*\
| =========                 |                                                 |
| \\      /  F ield         | OpenFOAM: The Open Source CFD Toolbox           |
|  \\    /   O peration     | Version:  dev                                   |
|   \\  /    A nd           | Web:      www.OpenFOAM.org                      |
|    \\/     M anipulation  |                                                 |
\*---------------------------------------------------------------------------*/
FoamFile
{
    version     2.0;
    format      ascii;
    class       volScalarField;
    location    "0.15";
    object      C5H6;
}
// * * * * * * * * * * * * * * * * * * * * * * * * * * * * * * * * * * * * * //

dimensions      [0 0 0 0 0 0 0];

internalField   nonuniform List<scalar> 
50
(
2.87745e-19
3.03897e-19
3.2089e-19
3.38819e-19
3.57671e-19
3.77419e-19
3.9801e-19
4.19637e-19
4.42021e-19
4.65065e-19
4.88342e-19
5.11989e-19
5.36042e-19
5.59876e-19
5.83495e-19
6.067e-19
6.29201e-19
6.51021e-19
6.71849e-19
6.91162e-19
7.09062e-19
7.25359e-19
7.40018e-19
7.52678e-19
7.63328e-19
7.71932e-19
7.78227e-19
7.82226e-19
7.83819e-19
7.8293e-19
7.795e-19
7.73453e-19
7.64713e-19
7.53215e-19
7.38676e-19
7.21398e-19
7.0111e-19
6.77736e-19
6.51203e-19
6.21358e-19
5.88035e-19
5.51037e-19
5.10129e-19
4.65037e-19
4.15441e-19
3.60982e-19
3.01359e-19
2.36862e-19
1.70865e-19
1.18604e-19
)
;

boundaryField
{
    wall
    {
        type            zeroGradient;
    }
    fuel
    {
        type            fixedValue;
        value           nonuniform 0();
    }
    outlet
    {
        type            inletOutlet;
        inletValue      uniform 0;
        value           uniform 1.18604e-19;
    }
    procBoundary3to2
    {
        type            processor;
        value           uniform 2.72474e-19;
    }
}


// ************************************************************************* //
