/*--------------------------------*- C++ -*----------------------------------*\
| =========                 |                                                 |
| \\      /  F ield         | OpenFOAM: The Open Source CFD Toolbox           |
|  \\    /   O peration     | Version:  dev                                   |
|   \\  /    A nd           | Web:      www.OpenFOAM.org                      |
|    \\/     M anipulation  |                                                 |
\*---------------------------------------------------------------------------*/
FoamFile
{
    version     2.0;
    format      ascii;
    class       volScalarField;
    location    "0.15";
    object      n-A1C2H2;
}
// * * * * * * * * * * * * * * * * * * * * * * * * * * * * * * * * * * * * * //

dimensions      [0 0 0 0 0 0 0];

internalField   nonuniform List<scalar> 
250
(
6.07588e-09
6.06907e-09
6.06977e-09
6.0878e-09
6.06932e-09
6.07003e-09
6.0849e-09
6.09322e-09
6.34923e-09
1.0983e-08
4.35697e-11
3.00937e-09
3.00771e-09
3.00803e-09
3.01129e-09
3.00836e-09
3.00786e-09
3.01279e-09
3.02346e-09
3.18288e-09
6.08084e-09
6.47076e-10
1.4651e-09
1.46503e-09
1.465e-09
1.46547e-09
1.46509e-09
1.4648e-09
1.46753e-09
1.47625e-09
1.58105e-09
3.6455e-09
1.3655e-09
7.50817e-10
7.51043e-10
7.51216e-10
7.50707e-10
7.50785e-10
7.50971e-10
7.5286e-10
7.59703e-10
8.31763e-10
2.33727e-09
1.41581e-09
4.17962e-10
4.17776e-10
4.19401e-10
4.17202e-10
4.17272e-10
4.18231e-10
4.20393e-10
4.25541e-10
4.77327e-10
1.57618e-09
1.42345e-09
2.51675e-10
2.5234e-10
2.50598e-10
2.525e-10
2.52434e-10
2.51778e-10
2.52079e-10
2.58598e-10
2.96135e-10
1.10728e-09
1.60417e-09
1.65326e-10
1.65608e-10
1.65086e-10
1.6576e-10
1.65576e-10
1.65389e-10
1.66265e-10
1.72054e-10
2.00936e-10
7.59538e-10
1.71015e-09
1.16411e-10
1.16563e-10
1.16371e-10
1.16627e-10
1.16338e-10
1.16531e-10
1.1739e-10
1.23041e-10
1.45926e-10
5.57838e-10
1.52088e-09
8.64158e-11
8.65176e-11
8.64955e-11
8.64666e-11
8.64859e-11
8.65397e-11
8.72345e-11
9.18577e-11
1.09928e-10
4.12267e-10
1.03356e-09
6.74844e-11
6.7565e-11
6.75798e-11
6.7483e-11
6.73918e-11
6.76212e-11
6.8211e-11
7.04258e-11
8.4882e-11
3.00034e-10
6.17635e-10
5.45086e-11
5.45626e-11
5.4374e-11
5.47205e-11
5.46062e-11
5.5433e-11
5.78236e-11
6.97718e-11
2.19882e-10
3.84704e-10
4.46799e-11
4.47553e-11
4.451e-11
4.49859e-11
4.47852e-11
4.55847e-11
4.79725e-11
5.83009e-11
1.71345e-10
2.57332e-10
3.76009e-11
3.76942e-11
3.73719e-11
3.78927e-11
3.77066e-11
3.84983e-11
4.07393e-11
4.96267e-11
1.35916e-10
1.76942e-10
3.23197e-11
3.24277e-11
3.19909e-11
3.2609e-11
3.24222e-11
3.32124e-11
3.52918e-11
4.31108e-11
1.09722e-10
1.24033e-10
2.82539e-11
2.83743e-11
2.83279e-11
2.85516e-11
2.83517e-11
2.91384e-11
3.10524e-11
3.8071e-11
9.01838e-11
9.21995e-11
2.5039e-11
2.5166e-11
2.50793e-11
2.53422e-11
2.5131e-11
2.59079e-11
2.76592e-11
3.40646e-11
7.53823e-11
7.49631e-11
2.24413e-11
2.257e-11
2.24529e-11
2.27432e-11
2.25272e-11
2.32857e-11
2.48809e-11
3.07996e-11
6.43283e-11
6.64385e-11
2.03084e-11
2.04345e-11
2.02927e-11
2.0601e-11
2.03876e-11
2.11187e-11
2.25666e-11
2.80754e-11
5.61396e-11
6.2687e-11
1.85378e-11
1.86577e-11
1.84928e-11
1.88137e-11
1.861e-11
1.93049e-11
2.06153e-11
2.57482e-11
4.98013e-11
6.14999e-11
1.70588e-11
1.71697e-11
1.69788e-11
1.73124e-11
1.71237e-11
1.77746e-11
1.89558e-11
2.39749e-11
4.51889e-11
6.17521e-11
1.58213e-11
1.59211e-11
1.58557e-11
1.60488e-11
1.58786e-11
1.64786e-11
1.75532e-11
2.23941e-11
4.16293e-11
6.28943e-11
1.47885e-11
1.48743e-11
1.48131e-11
1.49849e-11
1.48379e-11
1.53812e-11
1.64205e-11
2.09193e-11
3.88676e-11
6.46377e-11
1.40375e-11
1.41107e-11
1.40548e-11
1.42056e-11
1.40808e-11
1.45714e-11
1.55581e-11
1.97915e-11
3.64489e-11
6.67639e-11
1.33912e-11
1.34538e-11
1.34032e-11
1.35366e-11
1.34293e-11
1.38784e-11
1.47961e-11
1.88147e-11
3.43996e-11
6.90446e-11
)
;

boundaryField
{
    fuel
    {
        type            fixedValue;
        value           uniform 0;
    }
    wall
    {
        type            zeroGradient;
    }
    outlet
    {
        type            zeroGradient;
    }
    frontAndBack
    {
        type            empty;
    }
    procBoundary3to0
    {
        type            processor;
        value           nonuniform List<scalar> 10(1.29403e-11 1.29884e-11 1.29484e-11 1.30559e-11 1.29728e-11 1.33677e-11 1.42264e-11 1.79312e-11 3.27246e-11 7.1232e-11);
    }
    procBoundary3to2
    {
        type            processor;
        value           nonuniform List<scalar> 
25
(
6.0777e-09
3.00971e-09
1.46541e-09
7.5091e-10
4.17379e-10
2.52545e-10
1.65728e-10
1.16582e-10
8.65312e-11
6.75662e-11
5.44446e-11
5.44446e-11
4.46421e-11
3.75857e-11
3.23222e-11
2.82694e-11
2.50635e-11
2.24718e-11
2.03425e-11
1.85737e-11
1.70952e-11
1.58569e-11
1.48223e-11
1.40691e-11
1.34208e-11
)
;
    }
}


// ************************************************************************* //
