/*--------------------------------*- C++ -*----------------------------------*\
| =========                 |                                                 |
| \\      /  F ield         | OpenFOAM: The Open Source CFD Toolbox           |
|  \\    /   O peration     | Version:  dev                                   |
|   \\  /    A nd           | Web:      www.OpenFOAM.org                      |
|    \\/     M anipulation  |                                                 |
\*---------------------------------------------------------------------------*/
FoamFile
{
    version     2.0;
    format      ascii;
    class       volScalarField;
    location    "0.15";
    object      N2;
}
// * * * * * * * * * * * * * * * * * * * * * * * * * * * * * * * * * * * * * //

dimensions      [0 0 0 0 0 0 0];

internalField   nonuniform List<scalar> 
250
(
0
0
0
0
0
6.3057e-09
3.87115e-07
3.82369e-06
3.56353e-05
0.00032723
0.00258828
0
0
0
0
0
3.56708e-08
7.61076e-07
7.26943e-06
6.72732e-05
0.000625674
0.00740778
0
0
0
0
0
8.45896e-08
1.2025e-06
1.11692e-05
0.000102409
0.000955947
0.0123215
0
0
0
0
0
1.47016e-07
1.70778e-06
1.55079e-05
0.000140549
0.001304
0.0166798
1.44005e-08
0
0
0
0
2.19377e-07
2.2686e-06
2.01979e-05
0.000180492
0.00164979
0.0200676
2.45487e-08
0
0
0
0
3.0434e-07
2.90797e-06
2.52243e-05
0.000220772
0.00197403
0.0223096
2.69953e-08
0
0
0
0
3.91421e-07
3.55684e-06
3.02869e-05
0.00025983
0.00226099
0.0234296
1.99278e-08
0
0
0
7.86428e-09
4.82841e-07
4.22795e-06
3.53264e-05
0.000298257
0.00249978
0.0235823
1.97504e-09
0
0
0
1.84122e-08
5.78024e-07
4.92579e-06
4.07092e-05
0.000336819
0.00268433
0.0229854
0
0
0
0
2.76637e-08
6.84285e-07
5.71299e-06
4.61573e-05
0.00036649
0.00281273
0.0218666
0
0
0
3.62815e-08
7.81847e-07
6.39206e-06
5.0611e-05
0.000394164
0.00288651
0.0204254
0
0
0
4.70798e-08
8.95045e-07
7.1416e-06
5.5068e-05
0.000417039
0.00290973
0.0188113
0
0
0
5.91693e-08
1.01043e-06
7.86569e-06
5.91002e-05
0.000431852
0.00288823
0.0171268
0
0
0
7.27013e-08
1.12764e-06
8.55372e-06
6.25453e-05
0.000442101
0.00282905
0.015442
0
0
0
8.76844e-08
1.24596e-06
9.19609e-06
6.53613e-05
0.000447185
0.00273965
0.0138069
0
0
0
1.04303e-07
1.36436e-06
9.78402e-06
6.75262e-05
0.000446977
0.00262734
0.0122565
0
0
0
1.23043e-07
1.48157e-06
1.03096e-05
6.9039e-05
0.00044244
0.00249323
0.0108141
0
0
0
1.44434e-07
1.59622e-06
1.07661e-05
6.99123e-05
0.000433135
0.00233335
0.00949312
0
0
0
1.68758e-07
1.70684e-06
1.11481e-05
7.01763e-05
0.000420243
0.00216568
0.0082996
0
0
0
1.95927e-07
1.81192e-06
1.14519e-05
6.991e-05
0.000404487
0.00199616
0.00723349
0
0
0
2.25518e-07
1.90997e-06
1.16751e-05
6.9124e-05
0.000386561
0.00183487
0.00628988
0
0
0
2.5695e-07
1.9996e-06
1.18169e-05
6.78313e-05
0.000367004
0.001689
0.00545977
0
0
0
2.85586e-07
2.06993e-06
1.18708e-05
6.63151e-05
0.000346241
0.00152769
0.00473338
0
0
0
3.16178e-07
2.13342e-06
1.18529e-05
6.44755e-05
0.000324755
0.00139194
0.00410398
)
;

boundaryField
{
    fuel
    {
        type            fixedValue;
        value           uniform 0;
    }
    wall
    {
        type            zeroGradient;
    }
    outlet
    {
        type            zeroGradient;
    }
    frontAndBack
    {
        type            empty;
    }
    procBoundary3to0
    {
        type            processor;
        value           nonuniform List<scalar> 10(0 0 0 3.44672e-07 2.18204e-06 1.17674e-05 6.24158e-05 0.000302789 0.00126494 0.0035633);
    }
    procBoundary3to2
    {
        type            processor;
        value           nonuniform List<scalar> 
25
(
0
0
0
0
1.21087e-09
9.71325e-09
1.13796e-08
4.85257e-09
0
0
0
0
0
0
0
0
0
0
0
0
0
0
0
0
0
)
;
    }
}


// ************************************************************************* //
