/*--------------------------------*- C++ -*----------------------------------*\
| =========                 |                                                 |
| \\      /  F ield         | OpenFOAM: The Open Source CFD Toolbox           |
|  \\    /   O peration     | Version:  dev                                   |
|   \\  /    A nd           | Web:      www.OpenFOAM.org                      |
|    \\/     M anipulation  |                                                 |
\*---------------------------------------------------------------------------*/
FoamFile
{
    version     2.0;
    format      ascii;
    class       volScalarField;
    location    "0.15";
    object      naphthyne;
}
// * * * * * * * * * * * * * * * * * * * * * * * * * * * * * * * * * * * * * //

dimensions      [0 0 0 0 0 0 0];

internalField   nonuniform List<scalar> 
250
(
7.51657e-08
7.51602e-08
7.51704e-08
7.51729e-08
7.51606e-08
7.51703e-08
7.52491e-08
7.54881e-08
7.74456e-08
8.98324e-08
2.62763e-09
6.28426e-08
6.28222e-08
6.28455e-08
6.28439e-08
6.28364e-08
6.28551e-08
6.29169e-08
6.33423e-08
6.63338e-08
8.71553e-08
6.025e-09
4.83155e-08
4.82664e-08
4.83178e-08
4.8313e-08
4.83069e-08
4.83267e-08
4.83929e-08
4.89096e-08
5.24888e-08
7.77453e-08
8.57963e-09
3.69379e-08
3.68432e-08
3.69405e-08
3.6931e-08
3.69269e-08
3.69484e-08
3.70183e-08
3.75733e-08
4.14651e-08
6.90676e-08
1.0521e-08
2.8198e-08
2.80272e-08
2.8201e-08
2.8186e-08
2.81848e-08
2.82068e-08
2.82788e-08
2.8824e-08
3.2805e-08
6.13053e-08
1.20556e-08
2.11677e-08
2.1266e-08
2.11773e-08
2.11459e-08
2.11463e-08
2.11798e-08
2.12827e-08
2.19924e-08
2.60332e-08
5.45293e-08
1.33229e-08
1.60759e-08
1.61438e-08
1.60896e-08
1.6047e-08
1.60529e-08
1.60902e-08
1.62057e-08
1.68956e-08
2.08066e-08
4.87433e-08
1.44005e-08
1.22817e-08
1.2327e-08
1.23037e-08
1.22388e-08
1.22544e-08
1.23036e-08
1.24377e-08
1.31121e-08
1.66441e-08
4.38472e-08
1.53115e-08
9.47898e-09
9.51919e-09
9.52348e-09
9.43829e-09
9.41958e-09
9.51986e-09
9.63521e-09
1.01053e-08
1.31986e-08
3.96769e-08
1.60275e-08
7.37165e-09
7.41463e-09
7.35928e-09
7.40563e-09
7.3938e-09
7.3563e-09
7.38371e-09
7.80507e-09
1.09104e-08
3.60625e-08
1.64493e-08
5.94669e-09
5.9432e-09
5.9437e-09
5.94056e-09
5.94089e-09
5.95311e-09
6.33205e-09
9.00266e-09
3.28471e-08
1.63659e-08
4.76476e-09
4.76923e-09
4.75211e-09
4.76029e-09
4.7685e-09
4.78597e-09
5.15067e-09
7.49494e-09
2.99157e-08
1.56225e-08
3.89833e-09
3.90235e-09
3.87387e-09
3.89566e-09
3.90333e-09
3.92738e-09
4.25594e-09
6.45948e-09
2.71936e-08
1.44738e-08
3.24958e-09
3.25243e-09
3.21098e-09
3.24994e-09
3.25495e-09
3.28311e-09
3.58028e-09
5.57584e-09
2.46335e-08
1.3433e-08
2.75342e-09
2.75551e-09
2.76311e-09
2.75724e-09
2.7591e-09
2.78895e-09
3.0583e-09
4.81465e-09
2.22151e-08
1.2843e-08
2.36622e-09
2.36762e-09
2.37167e-09
2.37228e-09
2.37209e-09
2.40189e-09
2.64612e-09
4.25728e-09
1.99364e-08
1.27702e-08
2.05866e-09
2.05945e-09
2.06067e-09
2.06564e-09
2.06455e-09
2.09322e-09
2.31374e-09
3.78325e-09
1.77069e-08
1.30757e-08
1.81092e-09
1.81115e-09
1.80979e-09
1.81776e-09
1.81664e-09
1.84361e-09
2.04075e-09
3.33881e-09
1.54242e-08
1.35267e-08
1.60935e-09
1.60912e-09
1.60498e-09
1.61544e-09
1.61476e-09
1.63982e-09
1.81298e-09
2.95974e-09
1.33144e-08
1.39024e-08
1.44443e-09
1.44382e-09
1.43622e-09
1.44955e-09
1.44941e-09
1.47254e-09
1.64473e-09
2.6362e-09
1.14065e-08
1.40521e-08
1.30931e-09
1.30845e-09
1.31329e-09
1.31357e-09
1.3138e-09
1.33492e-09
1.494e-09
2.36014e-09
9.77314e-09
1.39098e-08
1.19892e-09
1.19786e-09
1.2018e-09
1.20229e-09
1.20286e-09
1.22186e-09
1.36373e-09
2.12529e-09
8.43705e-09
1.347e-08
1.12006e-09
1.11887e-09
1.12222e-09
1.1227e-09
1.12349e-09
1.14042e-09
1.26857e-09
1.9267e-09
7.09907e-09
1.27677e-08
1.05484e-09
1.05367e-09
1.05661e-09
1.05698e-09
1.05798e-09
1.07719e-09
1.19206e-09
1.76102e-09
6.08159e-09
1.18715e-08
)
;

boundaryField
{
    fuel
    {
        type            fixedValue;
        value           uniform 0;
    }
    wall
    {
        type            zeroGradient;
    }
    outlet
    {
        type            zeroGradient;
    }
    frontAndBack
    {
        type            empty;
    }
    procBoundary3to0
    {
        type            processor;
        value           nonuniform List<scalar> 10(1.01025e-09 1.00904e-09 1.01175e-09 1.0118e-09 1.01288e-09 1.03078e-09 1.13432e-09 1.62444e-09 5.22233e-09 1.08515e-08);
    }
    procBoundary3to2
    {
        type            processor;
        value           nonuniform List<scalar> 
25
(
7.51662e-08
6.28463e-08
4.83169e-08
3.69374e-08
2.81961e-08
2.11689e-08
1.6077e-08
1.22784e-08
9.45276e-09
7.42558e-09
5.9457e-09
5.9457e-09
4.76665e-09
3.8977e-09
3.24745e-09
2.75075e-09
2.36338e-09
2.05575e-09
1.80793e-09
1.60633e-09
1.44143e-09
1.30642e-09
1.19623e-09
1.11762e-09
1.05262e-09
)
;
    }
}


// ************************************************************************* //
