/*--------------------------------*- C++ -*----------------------------------*\
| =========                 |                                                 |
| \\      /  F ield         | OpenFOAM: The Open Source CFD Toolbox           |
|  \\    /   O peration     | Version:  dev                                   |
|   \\  /    A nd           | Web:      www.OpenFOAM.org                      |
|    \\/     M anipulation  |                                                 |
\*---------------------------------------------------------------------------*/
FoamFile
{
    version     2.0;
    format      ascii;
    class       volScalarField;
    location    "0.15";
    object      O2;
}
// * * * * * * * * * * * * * * * * * * * * * * * * * * * * * * * * * * * * * //

dimensions      [0 0 0 0 0 0 0];

internalField   nonuniform List<scalar> 
50
(
9.54341e-08
8.85905e-08
8.21928e-08
7.61887e-08
7.05649e-08
6.53068e-08
6.04004e-08
5.57731e-08
5.1461e-08
4.74489e-08
4.37709e-08
4.03599e-08
3.7173e-08
3.42564e-08
3.15693e-08
2.90967e-08
2.68339e-08
2.47446e-08
2.28289e-08
2.11068e-08
1.954e-08
1.81191e-08
1.68221e-08
1.56581e-08
1.46057e-08
1.36451e-08
1.27862e-08
1.20044e-08
1.1289e-08
1.06458e-08
1.00555e-08
9.50979e-09
9.00089e-09
8.52151e-09
8.05836e-09
7.61668e-09
7.18479e-09
6.75803e-09
6.3326e-09
5.90411e-09
5.46889e-09
5.02363e-09
4.56529e-09
4.09095e-09
3.59765e-09
3.08224e-09
2.54179e-09
1.9778e-09
1.41622e-09
9.79148e-10
)
;

boundaryField
{
    wall
    {
        type            zeroGradient;
    }
    fuel
    {
        type            fixedValue;
        value           nonuniform 0();
    }
    outlet
    {
        type            inletOutlet;
        inletValue      uniform 0;
        value           uniform 9.79148e-10;
    }
    procBoundary3to2
    {
        type            processor;
        value           uniform 1.02649e-07;
    }
}


// ************************************************************************* //
