/*--------------------------------*- C++ -*----------------------------------*\
| =========                 |                                                 |
| \\      /  F ield         | OpenFOAM: The Open Source CFD Toolbox           |
|  \\    /   O peration     | Version:  dev                                   |
|   \\  /    A nd           | Web:      www.OpenFOAM.org                      |
|    \\/     M anipulation  |                                                 |
\*---------------------------------------------------------------------------*/
FoamFile
{
    version     2.0;
    format      ascii;
    class       volScalarField;
    location    "0.15";
    object      P2-H;
}
// * * * * * * * * * * * * * * * * * * * * * * * * * * * * * * * * * * * * * //

dimensions      [0 0 0 0 0 0 0];

internalField   nonuniform List<scalar> 
50
(
2.48363e-29
2.20583e-29
1.9523e-29
1.72065e-29
1.51005e-29
1.31954e-29
1.14813e-29
9.92798e-30
8.54212e-30
7.31196e-30
6.23972e-30
5.29764e-30
4.46682e-30
3.7518e-30
3.13462e-30
2.60468e-30
2.15398e-30
1.76891e-30
1.44368e-30
1.17555e-30
9.52851e-31
7.69392e-31
6.18177e-31
4.96365e-31
3.98182e-31
3.18877e-31
2.56677e-31
2.07504e-31
1.68885e-31
1.39535e-31
1.17182e-31
1.00475e-31
8.83389e-32
7.9957e-32
7.4667e-32
7.22641e-32
7.25628e-32
7.57386e-32
8.2355e-32
9.35487e-32
1.11497e-31
1.4041e-31
1.88852e-31
2.75493e-31
4.4416e-31
8.04039e-31
1.62832e-30
3.42072e-30
5.0761e-30
4.25484e-30
)
;

boundaryField
{
    wall
    {
        type            zeroGradient;
    }
    fuel
    {
        type            fixedValue;
        value           nonuniform 0();
    }
    outlet
    {
        type            inletOutlet;
        inletValue      uniform 0;
        value           uniform 4.25484e-30;
    }
    procBoundary3to2
    {
        type            processor;
        value           uniform 2.78367e-29;
    }
}


// ************************************************************************* //
