/*--------------------------------*- C++ -*----------------------------------*\
| =========                 |                                                 |
| \\      /  F ield         | OpenFOAM: The Open Source CFD Toolbox           |
|  \\    /   O peration     | Version:  dev                                   |
|   \\  /    A nd           | Web:      www.OpenFOAM.org                      |
|    \\/     M anipulation  |                                                 |
\*---------------------------------------------------------------------------*/
FoamFile
{
    version     2.0;
    format      ascii;
    class       surfaceScalarField;
    location    "0.18";
    object      phi;
}
// * * * * * * * * * * * * * * * * * * * * * * * * * * * * * * * * * * * * * //

dimensions      [1 0 -1 0 0 0 0];

internalField   nonuniform List<scalar> 
11
(
5.42932e-05
5.60256e-05
5.79165e-05
5.98782e-05
6.18961e-05
6.40721e-05
6.63111e-05
6.86446e-05
7.10873e-05
7.36451e-05
7.63213e-05
)
;

boundaryField
{
    wall
    {
        type            calculated;
        value           nonuniform List<scalar> 
48
(
1.94725e-19
1.9062e-19
1.86344e-19
1.81776e-19
1.76944e-19
1.71878e-19
1.66498e-19
1.60841e-19
1.54829e-19
1.48475e-19
1.41785e-19
1.3476e-19
-1.94725e-19
-1.9062e-19
-1.86344e-19
-1.81776e-19
-1.76944e-19
-1.71878e-19
-1.66498e-19
-1.60841e-19
-1.54829e-19
-1.48475e-19
-1.41785e-19
-1.3476e-19
1.94725e-19
1.9062e-19
1.86344e-19
1.81776e-19
1.76944e-19
1.71878e-19
1.66498e-19
1.60841e-19
1.54829e-19
1.48475e-19
1.41785e-19
1.3476e-19
-1.94725e-19
-1.9062e-19
-1.86344e-19
-1.81776e-19
-1.76944e-19
-1.71878e-19
-1.66498e-19
-1.60841e-19
-1.54829e-19
-1.48475e-19
-1.41785e-19
-1.3476e-19
)
;
    }
    fuel
    {
        type            calculated;
        value           nonuniform 0();
    }
    outlet
    {
        type            calculated;
        value           nonuniform 0();
    }
    procBoundary6to5
    {
        type            processor;
        value           uniform -5.2626e-05;
    }
    procBoundary6to7
    {
        type            processor;
        value           uniform 7.91211e-05;
    }
}


// ************************************************************************* //
