/*--------------------------------*- C++ -*----------------------------------*\
| =========                 |                                                 |
| \\      /  F ield         | OpenFOAM: The Open Source CFD Toolbox           |
|  \\    /   O peration     | Version:  dev                                   |
|   \\  /    A nd           | Web:      www.OpenFOAM.org                      |
|    \\/     M anipulation  |                                                 |
\*---------------------------------------------------------------------------*/
FoamFile
{
    version     2.0;
    format      ascii;
    class       volScalarField;
    location    "0.175";
    object      A2C2HA;
}
// * * * * * * * * * * * * * * * * * * * * * * * * * * * * * * * * * * * * * //

dimensions      [0 0 0 0 0 0 0];

internalField   nonuniform List<scalar> 
250
(
3.47117e-08
3.47243e-08
3.47233e-08
3.47245e-08
3.47186e-08
3.47192e-08
3.47463e-08
3.49779e-08
3.66472e-08
4.94108e-08
1.20969e-09
2.16651e-08
2.16717e-08
2.16701e-08
2.16712e-08
2.16685e-08
2.16748e-08
2.16991e-08
2.19282e-08
2.36625e-08
3.86832e-08
2.46192e-09
1.2822e-08
1.28232e-08
1.28223e-08
1.28217e-08
1.28225e-08
1.28309e-08
1.28523e-08
1.30485e-08
1.45731e-08
2.89323e-08
3.17779e-09
8.29077e-09
8.28986e-09
8.28824e-09
8.28721e-09
8.2932e-09
8.30226e-09
8.32123e-09
8.49082e-09
9.86156e-09
2.36591e-08
3.60803e-09
5.82024e-09
5.81667e-09
5.81549e-09
5.81593e-09
5.83283e-09
5.84057e-09
5.85573e-09
6.00214e-09
7.2726e-09
2.0818e-08
3.9159e-09
4.32851e-09
4.30506e-09
4.32183e-09
4.32605e-09
4.31037e-09
4.31589e-09
4.32802e-09
4.48754e-09
5.69591e-09
1.91624e-08
4.18019e-09
3.34538e-09
3.31866e-09
3.33984e-09
3.35147e-09
3.33293e-09
3.33906e-09
3.34384e-09
3.49585e-09
4.64743e-09
1.7908e-08
4.42712e-09
2.62692e-09
2.63331e-09
2.62944e-09
2.61979e-09
2.62915e-09
2.62602e-09
2.65241e-09
2.80897e-09
3.86485e-09
1.7016e-08
4.64914e-09
2.1231e-09
2.13848e-09
2.13306e-09
2.12682e-09
2.12638e-09
2.12829e-09
2.1477e-09
2.27953e-09
3.30887e-09
1.61249e-08
4.80127e-09
1.75122e-09
1.77372e-09
1.7703e-09
1.76432e-09
1.76004e-09
1.76545e-09
1.78006e-09
1.87645e-09
2.8322e-09
1.52467e-08
4.80718e-09
1.48392e-09
1.48122e-09
1.475e-09
1.46643e-09
1.47642e-09
1.49008e-09
1.60245e-09
2.4408e-09
1.42973e-08
4.64351e-09
1.24734e-09
1.2458e-09
1.24007e-09
1.22896e-09
1.24231e-09
1.25392e-09
1.36005e-09
2.15989e-09
1.32708e-08
4.45997e-09
1.06347e-09
1.06274e-09
1.05673e-09
1.05237e-09
1.06084e-09
1.07118e-09
1.16892e-09
1.90412e-09
1.21806e-08
4.45751e-09
9.18968e-10
9.18554e-10
9.10162e-10
9.20369e-10
9.18168e-10
9.27558e-10
1.01705e-09
1.67756e-09
1.10535e-08
4.71267e-09
8.03995e-10
8.03647e-10
8.0598e-10
8.09882e-10
8.04428e-10
8.13085e-10
8.94998e-10
1.50592e-09
9.92454e-09
5.17237e-09
7.11354e-10
7.10941e-10
7.1151e-10
7.16921e-10
7.12521e-10
7.20629e-10
7.95488e-10
1.35181e-09
8.7051e-09
5.72403e-09
6.35774e-10
6.35272e-10
6.34671e-10
6.40375e-10
6.37354e-10
6.45008e-10
7.13091e-10
1.20633e-09
7.46895e-09
6.24794e-09
5.73366e-10
5.7279e-10
5.71456e-10
5.77074e-10
5.75164e-10
5.82404e-10
6.43781e-10
1.07924e-09
6.31351e-09
6.64187e-09
5.21244e-10
5.20621e-10
5.1866e-10
5.24231e-10
5.23144e-10
5.29985e-10
5.84454e-10
9.68221e-10
5.39132e-09
6.83561e-09
4.77256e-10
4.76616e-10
4.73831e-10
4.79682e-10
4.79185e-10
4.85637e-10
5.39551e-10
8.70924e-10
4.55561e-09
6.79664e-09
4.3979e-10
4.39177e-10
4.39885e-10
4.41813e-10
4.417e-10
4.47723e-10
4.98163e-10
7.85613e-10
3.79319e-09
6.53517e-09
4.07629e-10
4.0707e-10
4.07496e-10
4.09309e-10
4.09481e-10
4.15004e-10
4.60592e-10
7.11076e-10
3.18948e-09
6.09134e-09
3.83187e-10
3.82689e-10
3.82933e-10
3.84594e-10
3.84954e-10
3.89901e-10
4.31663e-10
6.46214e-10
2.61718e-09
5.51979e-09
3.61034e-10
3.60673e-10
3.61644e-10
3.62303e-10
3.62777e-10
3.68767e-10
4.06456e-10
5.90282e-10
2.1889e-09
4.88087e-09
)
;

boundaryField
{
    fuel
    {
        type            fixedValue;
        value           uniform 0;
    }
    wall
    {
        type            zeroGradient;
    }
    outlet
    {
        type            zeroGradient;
    }
    frontAndBack
    {
        type            empty;
    }
    procBoundary3to0
    {
        type            processor;
        value           nonuniform List<scalar> 10(3.4419e-10 3.43918e-10 3.44854e-10 3.45252e-10 3.45798e-10 3.51426e-10 3.85795e-10 5.42387e-10 1.8334e-09 4.22989e-09);
    }
    procBoundary3to2
    {
        type            processor;
        value           nonuniform List<scalar> 
25
(
3.47281e-08
2.16749e-08
1.28263e-08
8.29281e-09
5.82173e-09
4.3311e-09
3.35549e-09
2.62326e-09
2.12832e-09
1.76163e-09
1.46565e-09
1.46565e-09
1.2373e-09
1.0573e-09
9.14609e-10
8.00609e-10
7.08532e-10
6.33297e-10
5.71122e-10
5.19181e-10
4.75359e-10
4.38063e-10
4.06089e-10
3.81787e-10
3.59764e-10
)
;
    }
}


// ************************************************************************* //
