/*--------------------------------*- C++ -*----------------------------------*\
| =========                 |                                                 |
| \\      /  F ield         | OpenFOAM: The Open Source CFD Toolbox           |
|  \\    /   O peration     | Version:  dev                                   |
|   \\  /    A nd           | Web:      www.OpenFOAM.org                      |
|    \\/     M anipulation  |                                                 |
\*---------------------------------------------------------------------------*/
FoamFile
{
    version     2.0;
    format      ascii;
    class       volScalarField;
    location    "0.175";
    object      A2C2HA*;
}
// * * * * * * * * * * * * * * * * * * * * * * * * * * * * * * * * * * * * * //

dimensions      [0 0 0 0 0 0 0];

internalField   nonuniform List<scalar> 
250
(
1.02728e-09
1.02667e-09
1.0258e-09
1.02602e-09
1.02658e-09
1.02615e-09
1.02669e-09
1.03085e-09
1.04364e-09
1.0245e-09
7.98529e-13
6.35685e-10
6.35638e-10
6.3547e-10
6.35594e-10
6.35433e-10
6.3579e-10
6.36197e-10
6.40687e-10
6.56241e-10
6.93394e-10
1.42426e-12
3.11358e-10
3.11399e-10
3.11378e-10
3.1142e-10
3.1129e-10
3.11501e-10
3.11956e-10
3.15487e-10
3.26649e-10
3.52943e-10
1.30387e-12
1.57152e-10
1.57202e-10
1.57242e-10
1.57171e-10
1.57209e-10
1.57204e-10
1.57778e-10
1.60289e-10
1.68512e-10
1.82297e-10
9.3679e-13
8.69389e-11
8.70363e-11
8.7056e-11
8.69075e-11
8.70935e-11
8.69425e-11
8.7646e-11
8.92878e-11
9.61862e-11
1.03654e-10
7.08738e-13
5.31122e-11
5.33507e-11
5.32366e-11
5.30481e-11
5.33853e-11
5.32236e-11
5.39526e-11
5.48462e-11
6.02154e-11
6.36955e-11
6.19844e-13
3.55469e-11
3.53128e-11
3.56646e-11
3.54569e-11
3.52253e-11
3.52421e-11
3.62286e-11
3.6427e-11
4.1767e-11
4.5066e-11
6.44892e-13
2.4465e-11
2.43499e-11
2.45747e-11
2.43767e-11
2.49569e-11
2.43038e-11
2.5141e-11
2.59574e-11
3.11702e-11
3.47706e-11
7.91396e-13
1.84576e-11
1.83945e-11
1.85669e-11
1.83732e-11
1.87557e-11
1.83359e-11
1.91345e-11
1.95208e-11
2.37275e-11
2.8958e-11
1.11033e-12
1.40755e-11
1.40378e-11
1.41881e-11
1.40025e-11
1.4322e-11
1.39695e-11
1.47441e-11
1.489e-11
1.92433e-11
2.48838e-11
1.71443e-12
1.10189e-11
1.1146e-11
1.09798e-11
1.12544e-11
1.09524e-11
1.16694e-11
1.16683e-11
1.58883e-11
2.17852e-11
2.90765e-12
8.89089e-12
8.99987e-12
8.84797e-12
9.07953e-12
8.83145e-12
9.48003e-12
9.42125e-12
1.3259e-11
1.97951e-11
5.27587e-12
7.34902e-12
7.44241e-12
7.29702e-12
7.47806e-12
7.29823e-12
7.8757e-12
7.79958e-12
1.12736e-11
1.80081e-11
9.22038e-12
6.20108e-12
6.28126e-12
6.13085e-12
6.42225e-12
6.15972e-12
6.66895e-12
6.59343e-12
9.73027e-12
1.62728e-11
1.4669e-11
5.32195e-12
5.39261e-12
5.33731e-12
5.5103e-12
5.28954e-12
5.73813e-12
5.67076e-12
8.50266e-12
1.48715e-11
2.11683e-11
4.62813e-12
4.69413e-12
4.63997e-12
4.79274e-12
4.60628e-12
5.0023e-12
4.94551e-12
7.50456e-12
1.36659e-11
2.81676e-11
4.06224e-12
4.13105e-12
4.07754e-12
4.21402e-12
4.05566e-12
4.40656e-12
4.36001e-12
6.67531e-12
1.2611e-11
3.52257e-11
3.64408e-12
3.66616e-12
3.61201e-12
3.73605e-12
3.60087e-12
3.91297e-12
3.87472e-12
5.97043e-12
1.16713e-11
4.20182e-11
3.24584e-12
3.27315e-12
3.21678e-12
3.33247e-12
3.21662e-12
3.49494e-12
3.46208e-12
5.35686e-12
1.08025e-11
4.81762e-11
2.93898e-12
2.93397e-12
2.87248e-12
2.98482e-12
2.8853e-12
3.13345e-12
3.10434e-12
4.88519e-12
1.00153e-11
5.31669e-11
2.63866e-12
2.63529e-12
2.60001e-12
2.67997e-12
2.59441e-12
2.81471e-12
2.80763e-12
4.4431e-12
9.24598e-12
5.64115e-11
2.37005e-12
2.36702e-12
2.3585e-12
2.40741e-12
2.33474e-12
2.52795e-12
2.55236e-12
4.01782e-12
8.5025e-12
5.75428e-11
2.15353e-12
2.15043e-12
2.14354e-12
2.18985e-12
2.12438e-12
2.29992e-12
2.32151e-12
3.62244e-12
7.72347e-12
5.65533e-11
1.94066e-12
1.95448e-12
1.93265e-12
1.97652e-12
1.91758e-12
2.08051e-12
2.09316e-12
3.24736e-12
6.95912e-12
5.37518e-11
)
;

boundaryField
{
    fuel
    {
        type            fixedValue;
        value           uniform 0;
    }
    wall
    {
        type            zeroGradient;
    }
    outlet
    {
        type            zeroGradient;
    }
    frontAndBack
    {
        type            empty;
    }
    procBoundary3to0
    {
        type            processor;
        value           nonuniform List<scalar> 10(1.76266e-12 1.7768e-12 1.75644e-12 1.7972e-12 1.74437e-12 1.89206e-12 1.90176e-12 2.93432e-12 6.2038e-12 4.95461e-11);
    }
    procBoundary3to2
    {
        type            processor;
        value           nonuniform List<scalar> 
25
(
1.02594e-09
6.35464e-10
3.11391e-10
1.57206e-10
8.69859e-11
5.31448e-11
3.55423e-11
2.4451e-11
1.84483e-11
1.40752e-11
1.10429e-11
1.10429e-11
8.90663e-12
7.35922e-12
6.20782e-12
5.32917e-12
4.6411e-12
4.13233e-12
3.6538e-12
3.27218e-12
2.95048e-12
2.63583e-12
2.38756e-12
2.16771e-12
1.95244e-12
)
;
    }
}


// ************************************************************************* //
