/*--------------------------------*- C++ -*----------------------------------*\
| =========                 |                                                 |
| \\      /  F ield         | OpenFOAM: The Open Source CFD Toolbox           |
|  \\    /   O peration     | Version:  dev                                   |
|   \\  /    A nd           | Web:      www.OpenFOAM.org                      |
|    \\/     M anipulation  |                                                 |
\*---------------------------------------------------------------------------*/
FoamFile
{
    version     2.0;
    format      ascii;
    class       volScalarField;
    location    "0.175";
    object      AC3H4;
}
// * * * * * * * * * * * * * * * * * * * * * * * * * * * * * * * * * * * * * //

dimensions      [0 0 0 0 0 0 0];

internalField   nonuniform List<scalar> 
250
(
5.13224e-06
5.13096e-06
5.12522e-06
5.13065e-06
5.13114e-06
5.135e-06
5.13588e-06
5.14899e-06
5.33189e-06
6.89627e-06
4.09854e-06
2.57361e-06
2.5734e-06
2.57236e-06
2.57339e-06
2.57349e-06
2.57432e-06
2.57512e-06
2.58354e-06
2.66069e-06
3.30213e-06
1.0923e-05
1.77269e-06
1.7725e-06
1.77231e-06
1.77252e-06
1.77257e-06
1.77303e-06
1.77388e-06
1.78086e-06
1.83281e-06
2.23479e-06
1.73394e-05
1.53449e-06
1.5342e-06
1.53412e-06
1.53425e-06
1.53439e-06
1.5349e-06
1.53593e-06
1.54315e-06
1.59293e-06
1.94234e-06
2.28648e-05
1.45204e-06
1.4515e-06
1.45155e-06
1.45177e-06
1.4522e-06
1.45276e-06
1.4539e-06
1.46207e-06
1.51626e-06
1.86507e-06
2.72169e-05
1.4068e-06
1.40541e-06
1.40624e-06
1.40662e-06
1.40596e-06
1.40658e-06
1.40776e-06
1.41836e-06
1.47912e-06
1.84256e-06
3.03464e-05
1.36726e-06
1.36576e-06
1.36693e-06
1.36761e-06
1.36642e-06
1.36733e-06
1.36839e-06
1.38122e-06
1.44861e-06
1.82871e-06
3.24382e-05
1.32449e-06
1.32551e-06
1.32505e-06
1.32419e-06
1.32433e-06
1.32498e-06
1.32787e-06
1.34384e-06
1.41535e-06
1.815e-06
3.38702e-05
1.28206e-06
1.28424e-06
1.28371e-06
1.2828e-06
1.28189e-06
1.28333e-06
1.286e-06
1.3027e-06
1.38187e-06
1.79616e-06
3.51596e-05
1.23945e-06
1.24298e-06
1.24265e-06
1.24156e-06
1.23992e-06
1.24215e-06
1.24475e-06
1.25995e-06
1.34295e-06
1.77458e-06
3.67791e-05
1.19994e-06
1.19958e-06
1.19827e-06
1.19561e-06
1.19902e-06
1.20202e-06
1.22201e-06
1.30184e-06
1.74866e-06
3.8515e-05
1.15499e-06
1.15472e-06
1.15325e-06
1.14984e-06
1.15437e-06
1.15749e-06
1.17929e-06
1.26564e-06
1.71578e-06
3.90525e-05
1.11161e-06
1.1114e-06
1.1095e-06
1.10784e-06
1.11139e-06
1.11464e-06
1.13763e-06
1.22608e-06
1.67226e-06
3.65661e-05
1.07024e-06
1.07003e-06
1.06704e-06
1.07015e-06
1.07042e-06
1.07376e-06
1.09762e-06
1.18513e-06
1.61738e-06
3.07864e-05
1.03111e-06
1.03087e-06
1.03146e-06
1.03293e-06
1.03163e-06
1.03504e-06
1.05949e-06
1.14996e-06
1.55478e-06
2.3179e-05
9.94294e-07
9.94001e-07
9.93858e-07
9.96344e-07
9.95091e-07
9.9857e-07
1.02328e-06
1.11469e-06
1.48363e-06
1.56662e-05
9.59817e-07
9.59466e-07
9.58772e-07
9.61762e-07
9.60822e-07
9.64352e-07
9.88925e-07
1.07784e-06
1.41057e-06
9.70007e-06
9.27638e-07
9.27236e-07
9.26131e-07
9.29413e-07
9.28801e-07
9.32359e-07
9.56332e-07
1.04248e-06
1.34178e-06
5.74657e-06
8.97698e-07
8.97256e-07
8.95743e-07
8.99295e-07
8.98979e-07
9.02536e-07
9.2535e-07
1.00875e-06
1.2856e-06
3.46202e-06
8.69922e-07
8.69459e-07
8.6739e-07
8.71358e-07
8.71286e-07
8.74812e-07
8.99738e-07
9.76737e-07
1.23292e-06
2.25786e-06
8.44222e-07
8.43771e-07
8.44129e-07
8.4554e-07
8.45638e-07
8.49072e-07
8.74162e-07
9.46459e-07
1.18174e-06
1.65597e-06
8.20483e-07
8.2007e-07
8.20256e-07
8.21682e-07
8.21923e-07
8.25182e-07
8.49202e-07
9.1798e-07
1.13749e-06
1.36027e-06
8.01174e-07
8.00813e-07
8.00887e-07
8.02264e-07
8.02612e-07
8.05582e-07
8.28678e-07
8.91405e-07
1.09068e-06
1.21135e-06
7.82394e-07
7.82157e-07
7.8286e-07
7.83477e-07
7.83893e-07
7.87905e-07
8.09571e-07
8.66726e-07
1.0511e-06
1.13024e-06
)
;

boundaryField
{
    fuel
    {
        type            fixedValue;
        value           uniform 0;
    }
    wall
    {
        type            zeroGradient;
    }
    outlet
    {
        type            zeroGradient;
    }
    frontAndBack
    {
        type            empty;
    }
    procBoundary3to0
    {
        type            processor;
        value           nonuniform List<scalar> 10(7.66796e-07 7.66654e-07 7.67335e-07 7.67801e-07 7.68272e-07 7.72124e-07 7.9265e-07 8.43842e-07 1.01377e-06 1.07985e-06);
    }
    procBoundary3to2
    {
        type            processor;
        value           nonuniform List<scalar> 
25
(
5.12645e-06
2.57275e-06
1.77263e-06
1.53467e-06
1.45237e-06
1.40735e-06
1.36842e-06
1.3251e-06
1.2836e-06
1.24194e-06
1.19674e-06
1.19674e-06
1.15299e-06
1.11007e-06
1.06885e-06
1.02976e-06
9.92947e-07
9.58455e-07
9.26266e-07
8.96331e-07
8.68582e-07
8.42935e-07
8.19278e-07
8.00032e-07
7.81303e-07
)
;
    }
}


// ************************************************************************* //
