/*--------------------------------*- C++ -*----------------------------------*\
| =========                 |                                                 |
| \\      /  F ield         | OpenFOAM: The Open Source CFD Toolbox           |
|  \\    /   O peration     | Version:  dev                                   |
|   \\  /    A nd           | Web:      www.OpenFOAM.org                      |
|    \\/     M anipulation  |                                                 |
\*---------------------------------------------------------------------------*/
FoamFile
{
    version     2.0;
    format      ascii;
    class       volScalarField;
    location    "0.175";
    object      c-C6H7;
}
// * * * * * * * * * * * * * * * * * * * * * * * * * * * * * * * * * * * * * //

dimensions      [0 0 0 0 0 0 0];

internalField   nonuniform List<scalar> 
250
(
1.07598e-08
1.0756e-08
1.07543e-08
1.07555e-08
1.07545e-08
1.07564e-08
1.07561e-08
1.07794e-08
1.08464e-08
1.12604e-08
8.65896e-10
6.22998e-09
6.22983e-09
6.22849e-09
6.23039e-09
6.227e-09
6.23287e-09
6.22854e-09
6.25496e-09
6.31027e-09
6.87847e-09
2.65542e-09
2.93069e-09
2.9311e-09
2.92996e-09
2.93172e-09
2.92869e-09
2.93299e-09
2.92899e-09
2.95353e-09
2.97697e-09
3.39502e-09
2.65728e-09
1.37859e-09
1.37901e-09
1.37844e-09
1.37909e-09
1.37772e-09
1.37997e-09
1.37766e-09
1.39718e-09
1.40801e-09
1.67592e-09
1.77679e-09
7.03137e-10
7.03889e-10
7.03328e-10
7.03128e-10
7.0327e-10
7.03967e-10
7.03662e-10
7.17333e-10
7.28029e-10
8.95133e-10
1.08807e-09
3.99386e-10
4.01285e-10
3.99738e-10
3.99073e-10
4.0066e-10
4.00941e-10
4.01638e-10
4.09729e-10
4.15951e-10
5.07518e-10
6.66995e-10
2.53738e-10
2.51883e-10
2.5411e-10
2.53212e-10
2.5044e-10
2.51797e-10
2.55236e-10
2.58033e-10
2.69992e-10
3.31366e-10
4.17054e-10
1.69474e-10
1.686e-10
1.69839e-10
1.68949e-10
1.72393e-10
1.68602e-10
1.71484e-10
1.78628e-10
1.94061e-10
2.37791e-10
2.6676e-10
1.27297e-10
1.26839e-10
1.27698e-10
1.26796e-10
1.28808e-10
1.26692e-10
1.29681e-10
1.33558e-10
1.46037e-10
1.88365e-10
1.74769e-10
9.88232e-11
9.85675e-11
9.9289e-11
9.84011e-11
9.99886e-11
9.82933e-11
1.01505e-10
1.03522e-10
1.19652e-10
1.57362e-10
1.17819e-10
8.01552e-11
8.0758e-11
7.99555e-11
8.13066e-11
7.9845e-11
8.30351e-11
8.38992e-11
1.01495e-10
1.37624e-10
8.33753e-11
6.77646e-11
6.8289e-11
6.75424e-11
6.86909e-11
6.74671e-11
7.05228e-11
7.08687e-11
8.81804e-11
1.27319e-10
6.4704e-11
5.90621e-11
5.95228e-11
5.87864e-11
5.96882e-11
5.87965e-11
6.16558e-11
6.17821e-11
7.85869e-11
1.19909e-10
5.91564e-11
5.26876e-11
5.30944e-11
5.23009e-11
5.38528e-11
5.2463e-11
5.51031e-11
5.51538e-11
7.13329e-11
1.13909e-10
6.38727e-11
4.78198e-11
4.8189e-11
4.79075e-11
4.88325e-11
4.76361e-11
5.00664e-11
5.01128e-11
6.56204e-11
1.09642e-10
7.83215e-11
4.39487e-11
4.43049e-11
4.40181e-11
4.48552e-11
4.38182e-11
4.60545e-11
4.61321e-11
6.0957e-11
1.06159e-10
1.02797e-10
4.07491e-11
4.11336e-11
4.08411e-11
4.16057e-11
4.07027e-11
4.27601e-11
4.28846e-11
5.70248e-11
1.03126e-10
1.3681e-10
3.83686e-11
3.84818e-11
3.81775e-11
3.88848e-11
3.80984e-11
3.99881e-11
4.01632e-11
5.36093e-11
1.00292e-10
1.77881e-10
3.60801e-11
3.62237e-11
3.58981e-11
3.65667e-11
3.5885e-11
3.76126e-11
3.78339e-11
5.05657e-11
9.74127e-11
2.21622e-10
3.43361e-11
3.42807e-11
3.3917e-11
3.45712e-11
3.39861e-11
3.55514e-11
3.58196e-11
4.82011e-11
9.44859e-11
2.62952e-10
3.26522e-11
3.25985e-11
3.23919e-11
3.28469e-11
3.23528e-11
3.37497e-11
3.41929e-11
4.59609e-11
9.12251e-11
2.97527e-10
3.11992e-11
3.11409e-11
3.11002e-11
3.13564e-11
3.09539e-11
3.21691e-11
3.28499e-11
4.37876e-11
8.76657e-11
3.22622e-10
3.01134e-11
3.00499e-11
3.0031e-11
3.02504e-11
2.99099e-11
3.09879e-11
3.17123e-11
4.17703e-11
8.35383e-11
3.37229e-10
2.91409e-11
2.91617e-11
2.90777e-11
2.92587e-11
2.89825e-11
2.99375e-11
3.06781e-11
3.98754e-11
7.91502e-11
3.41635e-10
)
;

boundaryField
{
    fuel
    {
        type            fixedValue;
        value           uniform 0;
    }
    wall
    {
        type            zeroGradient;
    }
    outlet
    {
        type            zeroGradient;
    }
    frontAndBack
    {
        type            empty;
    }
    procBoundary3to0
    {
        type            processor;
        value           nonuniform List<scalar> 10(2.84507e-11 2.84721e-11 2.84056e-11 2.8545e-11 2.83314e-11 2.91464e-11 2.99318e-11 3.83484e-11 7.45266e-11 3.36529e-10);
    }
    procBoundary3to2
    {
        type            processor;
        value           nonuniform List<scalar> 
25
(
1.07553e-08
6.22899e-09
2.93112e-09
1.37902e-09
7.03434e-10
3.99553e-10
2.53633e-10
1.69304e-10
1.27167e-10
9.87662e-11
8.03116e-11
8.03116e-11
6.7864e-11
5.91248e-11
5.27265e-11
4.78587e-11
4.40254e-11
4.11649e-11
3.8433e-11
3.62504e-11
3.44139e-11
3.26377e-11
3.13005e-11
3.01966e-11
2.92098e-11
)
;
    }
}


// ************************************************************************* //
