/*--------------------------------*- C++ -*----------------------------------*\
| =========                 |                                                 |
| \\      /  F ield         | OpenFOAM: The Open Source CFD Toolbox           |
|  \\    /   O peration     | Version:  dev                                   |
|   \\  /    A nd           | Web:      www.OpenFOAM.org                      |
|    \\/     M anipulation  |                                                 |
\*---------------------------------------------------------------------------*/
FoamFile
{
    version     2.0;
    format      ascii;
    class       volScalarField;
    location    "0.175";
    object      H;
}
// * * * * * * * * * * * * * * * * * * * * * * * * * * * * * * * * * * * * * //

dimensions      [0 0 0 0 0 0 0];

internalField   nonuniform List<scalar> 
250
(
0.000133703
0.00013365
0.000133644
0.000133645
0.000133654
0.000133712
0.000133669
0.000133477
0.000131853
0.000120093
5.7489e-08
0.000126293
0.00012627
0.000126287
0.000126269
0.000126283
0.000126283
0.000126249
0.000126056
0.000124431
0.000114612
8.01041e-08
9.18079e-05
9.17904e-05
9.18142e-05
9.17884e-05
9.18124e-05
9.17979e-05
9.17576e-05
9.15727e-05
8.99666e-05
8.24347e-05
6.55635e-08
6.5116e-05
6.51089e-05
6.51246e-05
6.50979e-05
6.5143e-05
6.51255e-05
6.50814e-05
6.48882e-05
6.33283e-05
5.78852e-05
5.0637e-08
4.87504e-05
4.87565e-05
4.87573e-05
4.87355e-05
4.88434e-05
4.88256e-05
4.87728e-05
4.85251e-05
4.69658e-05
4.28721e-05
4.19592e-08
3.92786e-05
3.92002e-05
3.92788e-05
3.92725e-05
3.91831e-05
3.91686e-05
3.91178e-05
3.89875e-05
3.74247e-05
3.39363e-05
3.85285e-08
3.38618e-05
3.37671e-05
3.38581e-05
3.38916e-05
3.38048e-05
3.37991e-05
3.3722e-05
3.35443e-05
3.18922e-05
2.76694e-05
3.89731e-08
3.06435e-05
3.06619e-05
3.06539e-05
3.06079e-05
3.06552e-05
3.06118e-05
3.06182e-05
3.04344e-05
2.84938e-05
2.39012e-05
4.92537e-08
2.88381e-05
2.88742e-05
2.88595e-05
2.88391e-05
2.88542e-05
2.88294e-05
2.88107e-05
2.85297e-05
2.65443e-05
2.1028e-05
1.05382e-07
2.77909e-05
2.78368e-05
2.78273e-05
2.78125e-05
2.78196e-05
2.78059e-05
2.77699e-05
2.73863e-05
2.522e-05
1.8968e-05
3.55282e-07
2.71885e-05
2.71822e-05
2.71679e-05
2.71677e-05
2.71654e-05
2.71221e-05
2.67639e-05
2.43409e-05
1.7377e-05
9.77783e-07
2.67572e-05
2.67544e-05
2.67402e-05
2.67358e-05
2.67422e-05
2.6691e-05
2.63101e-05
2.38066e-05
1.61454e-05
2.06556e-06
2.64558e-05
2.64555e-05
2.64392e-05
2.64444e-05
2.64473e-05
2.63909e-05
2.59884e-05
2.33851e-05
1.5205e-05
3.29783e-06
2.62118e-05
2.62127e-05
2.619e-05
2.622e-05
2.62086e-05
2.61484e-05
2.57302e-05
2.30462e-05
1.45107e-05
4.29467e-06
2.59828e-05
2.59843e-05
2.59802e-05
2.60002e-05
2.59842e-05
2.5921e-05
2.54947e-05
2.27992e-05
1.40302e-05
5.02311e-06
2.57428e-05
2.57445e-05
2.57344e-05
2.57618e-05
2.57485e-05
2.56834e-05
2.52565e-05
2.25773e-05
1.37014e-05
5.58827e-06
2.54748e-05
2.54765e-05
2.54609e-05
2.5495e-05
2.54849e-05
2.54186e-05
2.49981e-05
2.23567e-05
1.35245e-05
6.04458e-06
2.5166e-05
2.5168e-05
2.51464e-05
2.51882e-05
2.51812e-05
2.51144e-05
2.47062e-05
2.21404e-05
1.34849e-05
6.39442e-06
2.48059e-05
2.48084e-05
2.47788e-05
2.4831e-05
2.48269e-05
2.47602e-05
2.43679e-05
2.19146e-05
1.35434e-05
6.63947e-06
2.43843e-05
2.43879e-05
2.43453e-05
2.44132e-05
2.44118e-05
2.43458e-05
2.40223e-05
2.16665e-05
1.36711e-05
6.80536e-06
2.389e-05
2.38959e-05
2.38946e-05
2.39241e-05
2.3925e-05
2.38595e-05
2.35929e-05
2.13817e-05
1.385e-05
6.9365e-06
2.33101e-05
2.33194e-05
2.33077e-05
2.33499e-05
2.33535e-05
2.32876e-05
2.30681e-05
2.10458e-05
1.40337e-05
7.08009e-06
2.27109e-05
2.27239e-05
2.27044e-05
2.27558e-05
2.27623e-05
2.26926e-05
2.25253e-05
2.0645e-05
1.42335e-05
7.272e-06
2.19674e-05
2.19871e-05
2.19892e-05
2.20224e-05
2.20315e-05
2.20112e-05
2.18872e-05
2.01618e-05
1.43813e-05
7.52828e-06
)
;

boundaryField
{
    fuel
    {
        type            fixedValue;
        value           uniform 0;
    }
    wall
    {
        type            zeroGradient;
    }
    outlet
    {
        type            zeroGradient;
    }
    frontAndBack
    {
        type            empty;
    }
    procBoundary3to0
    {
        type            processor;
        value           nonuniform List<scalar> 10(2.11812e-05 2.12062e-05 2.12042e-05 2.12427e-05 2.1255e-05 2.1238e-05 2.11722e-05 1.95767e-05 1.44744e-05 7.8498e-06);
    }
    procBoundary3to2
    {
        type            processor;
        value           nonuniform List<scalar> 
25
(
0.00013362
0.000126261
9.17807e-05
6.50901e-05
4.87293e-05
3.92676e-05
3.38868e-05
3.06057e-05
2.88357e-05
2.78027e-05
2.71541e-05
2.71541e-05
2.67375e-05
2.64427e-05
2.62013e-05
2.59729e-05
2.57324e-05
2.5463e-05
2.51525e-05
2.47901e-05
2.43656e-05
2.38683e-05
2.3285e-05
2.26817e-05
2.19323e-05
)
;
    }
}


// ************************************************************************* //
