/*--------------------------------*- C++ -*----------------------------------*\
| =========                 |                                                 |
| \\      /  F ield         | OpenFOAM: The Open Source CFD Toolbox           |
|  \\    /   O peration     | Version:  dev                                   |
|   \\  /    A nd           | Web:      www.OpenFOAM.org                      |
|    \\/     M anipulation  |                                                 |
\*---------------------------------------------------------------------------*/
FoamFile
{
    version     2.0;
    format      ascii;
    class       volScalarField;
    location    "0.175";
    object      naphthyne;
}
// * * * * * * * * * * * * * * * * * * * * * * * * * * * * * * * * * * * * * //

dimensions      [0 0 0 0 0 0 0];

internalField   nonuniform List<scalar> 
50
(
3.01859e-20
2.76853e-20
2.51459e-20
2.26681e-20
2.0206e-20
1.78786e-20
1.56702e-20
1.36058e-20
1.16696e-20
9.90784e-21
8.32778e-21
6.9572e-21
5.76213e-21
4.72013e-21
3.84877e-21
3.12012e-21
2.51933e-21
2.02953e-21
1.62951e-21
1.31186e-21
1.06769e-21
8.77935e-22
7.30601e-22
6.17289e-22
5.32842e-22
4.68988e-22
4.20977e-22
3.848e-22
3.56784e-22
3.35026e-22
3.18108e-22
3.04058e-22
2.91817e-22
2.80609e-22
2.69718e-22
2.59057e-22
2.48002e-22
2.36737e-22
2.24939e-22
2.12513e-22
1.99374e-22
1.8543e-22
1.70558e-22
1.54597e-22
1.37322e-22
1.18437e-22
9.75683e-23
7.43153e-23
4.85143e-23
2.21454e-23
)
;

boundaryField
{
    wall
    {
        type            zeroGradient;
    }
    fuel
    {
        type            fixedValue;
        value           nonuniform 0();
    }
    outlet
    {
        type            inletOutlet;
        inletValue      uniform 0;
        value           uniform 2.21454e-23;
    }
    procBoundary3to2
    {
        type            processor;
        value           uniform 3.27026e-20;
    }
}


// ************************************************************************* //
