/*--------------------------------*- C++ -*----------------------------------*\
| =========                 |                                                 |
| \\      /  F ield         | OpenFOAM: The Open Source CFD Toolbox           |
|  \\    /   O peration     | Version:  dev                                   |
|   \\  /    A nd           | Web:      www.OpenFOAM.org                      |
|    \\/     M anipulation  |                                                 |
\*---------------------------------------------------------------------------*/
FoamFile
{
    version     2.0;
    format      ascii;
    class       volScalarField;
    location    "0.09";
    object      A1C2H-;
}
// * * * * * * * * * * * * * * * * * * * * * * * * * * * * * * * * * * * * * //

dimensions      [0 0 0 0 0 0 0];

internalField   nonuniform List<scalar> 
25
(
1.95339e-11
6.16915e-11
8.58927e-11
8.6599e-11
7.06299e-11
4.95151e-11
3.13536e-11
1.87665e-11
1.08733e-11
6.19567e-12
3.51408e-12
1.99796e-12
1.14885e-12
6.77968e-13
4.16185e-13
2.70746e-13
1.90248e-13
1.46253e-13
1.22951e-13
1.11441e-13
1.06597e-13
1.05385e-13
1.05946e-13
1.07122e-13
1.08192e-13
)
;

boundaryField
{
    wall
    {
        type            zeroGradient;
    }
    fuel
    {
        type            fixedValue;
        value           uniform 0;
    }
    outlet
    {
        type            inletOutlet;
        inletValue      nonuniform 0();
        value           nonuniform 0();
    }
    procBoundary0to1
    {
        type            processor;
        value           uniform 1.08722e-13;
    }
}


// ************************************************************************* //
