/*--------------------------------*- C++ -*----------------------------------*\
| =========                 |                                                 |
| \\      /  F ield         | OpenFOAM: The Open Source CFD Toolbox           |
|  \\    /   O peration     | Version:  dev                                   |
|   \\  /    A nd           | Web:      www.OpenFOAM.org                      |
|    \\/     M anipulation  |                                                 |
\*---------------------------------------------------------------------------*/
FoamFile
{
    version     2.0;
    format      ascii;
    class       volScalarField;
    location    "0.09";
    object      A1C2H22;
}
// * * * * * * * * * * * * * * * * * * * * * * * * * * * * * * * * * * * * * //

dimensions      [0 0 0 0 0 0 0];

internalField   nonuniform List<scalar> 
25
(
5.26975e-09
1.52394e-09
4.06304e-10
1.06725e-10
2.73772e-11
7.07199e-12
1.79527e-12
4.54302e-13
1.17867e-13
3.12188e-14
9.30762e-15
3.44585e-15
1.77113e-15
1.18551e-15
9.02996e-16
7.19791e-16
5.80333e-16
4.67649e-16
3.75204e-16
2.99467e-16
2.37866e-16
1.88216e-16
1.48567e-16
1.1715e-16
9.23398e-17
)
;

boundaryField
{
    wall
    {
        type            zeroGradient;
    }
    fuel
    {
        type            fixedValue;
        value           uniform 0;
    }
    outlet
    {
        type            inletOutlet;
        inletValue      nonuniform 0();
        value           nonuniform 0();
    }
    procBoundary0to1
    {
        type            processor;
        value           uniform 7.31663e-17;
    }
}


// ************************************************************************* //
