/*--------------------------------*- C++ -*----------------------------------*\
| =========                 |                                                 |
| \\      /  F ield         | OpenFOAM: The Open Source CFD Toolbox           |
|  \\    /   O peration     | Version:  dev                                   |
|   \\  /    A nd           | Web:      www.OpenFOAM.org                      |
|    \\/     M anipulation  |                                                 |
\*---------------------------------------------------------------------------*/
FoamFile
{
    version     2.0;
    format      ascii;
    class       volScalarField;
    location    "0.09";
    object      A3C2H;
}
// * * * * * * * * * * * * * * * * * * * * * * * * * * * * * * * * * * * * * //

dimensions      [0 0 0 0 0 0 0];

internalField   nonuniform List<scalar> 
25
(
1.20174e-16
9.25531e-17
7.0686e-17
5.55971e-17
4.38063e-17
3.44287e-17
2.71198e-17
2.16136e-17
1.75515e-17
1.46122e-17
1.25249e-17
1.1079e-17
1.01386e-17
9.63436e-18
9.53033e-18
9.81979e-18
1.05067e-17
1.15932e-17
1.30703e-17
1.49125e-17
1.70766e-17
1.95034e-17
2.21203e-17
2.48512e-17
2.76197e-17
)
;

boundaryField
{
    wall
    {
        type            zeroGradient;
    }
    fuel
    {
        type            fixedValue;
        value           uniform 0;
    }
    outlet
    {
        type            inletOutlet;
        inletValue      nonuniform 0();
        value           nonuniform 0();
    }
    procBoundary0to1
    {
        type            processor;
        value           uniform 3.03541e-17;
    }
}


// ************************************************************************* //
