/*--------------------------------*- C++ -*----------------------------------*\
| =========                 |                                                 |
| \\      /  F ield         | OpenFOAM: The Open Source CFD Toolbox           |
|  \\    /   O peration     | Version:  dev                                   |
|   \\  /    A nd           | Web:      www.OpenFOAM.org                      |
|    \\/     M anipulation  |                                                 |
\*---------------------------------------------------------------------------*/
FoamFile
{
    version     2.0;
    format      ascii;
    class       volScalarField;
    location    "0.09";
    object      C5H5O;
}
// * * * * * * * * * * * * * * * * * * * * * * * * * * * * * * * * * * * * * //

dimensions      [0 0 0 0 0 0 0];

internalField   nonuniform List<scalar> 
25
(
6.75078e-12
1.96406e-12
5.50401e-13
1.53048e-13
4.16936e-14
1.16343e-14
3.29856e-15
9.85025e-16
3.2356e-16
1.15556e-16
4.59392e-17
1.9444e-17
8.66703e-18
3.99803e-18
1.89041e-18
9.13318e-19
4.51248e-19
2.28635e-19
1.19158e-19
6.40118e-20
3.54624e-20
2.02385e-20
1.18771e-20
7.16245e-21
4.45516e-21
)
;

boundaryField
{
    wall
    {
        type            zeroGradient;
    }
    fuel
    {
        type            fixedValue;
        value           uniform 0;
    }
    outlet
    {
        type            inletOutlet;
        inletValue      nonuniform 0();
        value           nonuniform 0();
    }
    procBoundary0to1
    {
        type            processor;
        value           uniform 2.82493e-21;
    }
}


// ************************************************************************* //
