/*--------------------------------*- C++ -*----------------------------------*\
| =========                 |                                                 |
| \\      /  F ield         | OpenFOAM: The Open Source CFD Toolbox           |
|  \\    /   O peration     | Version:  dev                                   |
|   \\  /    A nd           | Web:      www.OpenFOAM.org                      |
|    \\/     M anipulation  |                                                 |
\*---------------------------------------------------------------------------*/
FoamFile
{
    version     2.0;
    format      ascii;
    class       volScalarField;
    location    "0.09";
    object      CH2CO;
}
// * * * * * * * * * * * * * * * * * * * * * * * * * * * * * * * * * * * * * //

dimensions      [0 0 0 0 0 0 0];

internalField   nonuniform List<scalar> 
25
(
6.56021e-06
1.45168e-05
1.81224e-05
1.88367e-05
1.77307e-05
1.56544e-05
1.32342e-05
1.08987e-05
8.84854e-06
7.15485e-06
5.80845e-06
4.75608e-06
3.93856e-06
3.31083e-06
2.8266e-06
2.45049e-06
2.15477e-06
1.91825e-06
1.72507e-06
1.5636e-06
1.42548e-06
1.3048e-06
1.19754e-06
1.10088e-06
1.01289e-06
)
;

boundaryField
{
    wall
    {
        type            zeroGradient;
    }
    fuel
    {
        type            fixedValue;
        value           uniform 0;
    }
    outlet
    {
        type            inletOutlet;
        inletValue      nonuniform 0();
        value           nonuniform 0();
    }
    procBoundary0to1
    {
        type            processor;
        value           uniform 9.32184e-07;
    }
}


// ************************************************************************* //
