/*--------------------------------*- C++ -*----------------------------------*\
| =========                 |                                                 |
| \\      /  F ield         | OpenFOAM: The Open Source CFD Toolbox           |
|  \\    /   O peration     | Version:  dev                                   |
|   \\  /    A nd           | Web:      www.OpenFOAM.org                      |
|    \\/     M anipulation  |                                                 |
\*---------------------------------------------------------------------------*/
FoamFile
{
    version     2.0;
    format      ascii;
    class       volScalarField;
    location    "0.09";
    object      H2C4O;
}
// * * * * * * * * * * * * * * * * * * * * * * * * * * * * * * * * * * * * * //

dimensions      [0 0 0 0 0 0 0];

internalField   nonuniform List<scalar> 
25
(
4.02998e-06
2.27159e-06
9.74138e-07
3.77215e-07
1.37272e-07
4.95993e-08
1.77314e-08
6.4493e-09
2.47118e-09
9.86822e-10
4.25301e-10
1.92756e-10
9.19696e-11
4.54889e-11
2.29693e-11
1.16999e-11
5.96609e-12
3.03452e-12
1.53889e-12
7.79819e-13
3.96587e-13
2.03712e-13
1.06581e-13
5.73726e-14
3.21067e-14
)
;

boundaryField
{
    wall
    {
        type            zeroGradient;
    }
    fuel
    {
        type            fixedValue;
        value           uniform 0;
    }
    outlet
    {
        type            inletOutlet;
        inletValue      nonuniform 0();
        value           nonuniform 0();
    }
    procBoundary0to1
    {
        type            processor;
        value           uniform 1.87826e-14;
    }
}


// ************************************************************************* //
