/*--------------------------------*- C++ -*----------------------------------*\
| =========                 |                                                 |
| \\      /  F ield         | OpenFOAM: The Open Source CFD Toolbox           |
|  \\    /   O peration     | Version:  dev                                   |
|   \\  /    A nd           | Web:      www.OpenFOAM.org                      |
|    \\/     M anipulation  |                                                 |
\*---------------------------------------------------------------------------*/
FoamFile
{
    version     2.0;
    format      ascii;
    class       volScalarField;
    location    "0.09";
    object      n-C6H5;
}
// * * * * * * * * * * * * * * * * * * * * * * * * * * * * * * * * * * * * * //

dimensions      [0 0 0 0 0 0 0];

internalField   nonuniform List<scalar> 
25
(
4.28998e-12
1.26179e-11
1.56871e-11
1.49464e-11
1.21079e-11
8.69167e-12
5.72113e-12
3.57457e-12
2.16524e-12
1.29183e-12
7.69132e-13
4.60514e-13
2.79302e-13
1.73666e-13
1.11699e-13
7.51555e-14
5.34431e-14
4.03989e-14
3.24089e-14
2.73319e-14
2.38904e-14
2.13243e-14
1.91936e-14
1.72578e-14
1.54024e-14
)
;

boundaryField
{
    wall
    {
        type            zeroGradient;
    }
    fuel
    {
        type            fixedValue;
        value           uniform 0;
    }
    outlet
    {
        type            inletOutlet;
        inletValue      nonuniform 0();
        value           nonuniform 0();
    }
    procBoundary0to1
    {
        type            processor;
        value           uniform 1.35879e-14;
    }
}


// ************************************************************************* //
