/*--------------------------------*- C++ -*----------------------------------*\
| =========                 |                                                 |
| \\      /  F ield         | OpenFOAM: The Open Source CFD Toolbox           |
|  \\    /   O peration     | Version:  dev                                   |
|   \\  /    A nd           | Web:      www.OpenFOAM.org                      |
|    \\/     M anipulation  |                                                 |
\*---------------------------------------------------------------------------*/
FoamFile
{
    version     2.0;
    format      ascii;
    class       volScalarField;
    location    "0.03";
    object      A1C2H*;
}
// * * * * * * * * * * * * * * * * * * * * * * * * * * * * * * * * * * * * * //

dimensions      [0 0 0 0 0 0 0];

internalField   nonuniform List<scalar> 
100
(
9.10789e-12
2.89681e-11
4.30961e-11
4.66343e-11
4.09167e-11
3.07357e-11
2.08505e-11
1.31523e-11
7.97377e-12
4.73299e-12
2.78256e-12
1.63669e-12
9.6985e-13
5.83987e-13
3.623e-13
2.34337e-13
1.60321e-13
1.17456e-13
9.26637e-14
7.83838e-14
7.01934e-14
6.54632e-14
6.26064e-14
6.06582e-14
5.9038e-14
5.74088e-14
5.55935e-14
5.3523e-14
5.11882e-14
4.86232e-14
4.58825e-14
4.30271e-14
4.01164e-14
3.72031e-14
3.43312e-14
3.15357e-14
2.88433e-14
2.62739e-14
2.38418e-14
2.15497e-14
1.93861e-14
1.73647e-14
1.55124e-14
1.3802e-14
1.22294e-14
1.07876e-14
9.46984e-15
8.26777e-15
7.17722e-15
6.19087e-15
5.30338e-15
4.50312e-15
3.79733e-15
3.16307e-15
2.61036e-15
2.13307e-15
1.73268e-15
1.39081e-15
1.10284e-15
8.70387e-16
6.80986e-16
5.28467e-16
4.07086e-16
3.11665e-16
2.35974e-16
1.78253e-16
1.34097e-16
1.00495e-16
7.50734e-17
5.5575e-17
4.1222e-17
3.04785e-17
2.24517e-17
1.6465e-17
1.20101e-17
8.71344e-18
6.24388e-18
4.40995e-18
3.09191e-18
2.19007e-18
1.54707e-18
1.09208e-18
7.72191e-19
5.48804e-19
3.92133e-19
2.79424e-19
2.06455e-19
1.55801e-19
1.20625e-19
9.59853e-20
7.85576e-20
6.58694e-20
5.61281e-20
4.80049e-20
4.10129e-20
3.40932e-20
2.74028e-20
1.99843e-20
1.27366e-20
7.15129e-21
)
;

boundaryField
{
    front
    {
        type            wedge;
    }
    back
    {
        type            wedge;
    }
    wall
    {
        type            zeroGradient;
    }
    fuel
    {
        type            fixedValue;
        value           uniform 0;
    }
    outlet
    {
        type            inletOutlet;
        inletValue      uniform 0;
        value           uniform 7.15129e-21;
    }
    axis
    {
        type            empty;
    }
}


// ************************************************************************* //
