/*--------------------------------*- C++ -*----------------------------------*\
| =========                 |                                                 |
| \\      /  F ield         | OpenFOAM: The Open Source CFD Toolbox           |
|  \\    /   O peration     | Version:  dev                                   |
|   \\  /    A nd           | Web:      www.OpenFOAM.org                      |
|    \\/     M anipulation  |                                                 |
\*---------------------------------------------------------------------------*/
FoamFile
{
    version     2.0;
    format      ascii;
    class       volScalarField;
    location    "0.03";
    object      A4;
}
// * * * * * * * * * * * * * * * * * * * * * * * * * * * * * * * * * * * * * //

dimensions      [0 0 0 0 0 0 0];

internalField   nonuniform List<scalar> 
100
(
6.04383e-13
4.62675e-13
3.50761e-13
2.80115e-13
2.30847e-13
1.94069e-13
1.65805e-13
1.44098e-13
1.2753e-13
1.15071e-13
1.05792e-13
9.89215e-14
9.37883e-14
8.98998e-14
8.69553e-14
8.47427e-14
8.31603e-14
8.21709e-14
8.17717e-14
8.19712e-14
8.27709e-14
8.41568e-14
8.60958e-14
8.85375e-14
9.14191e-14
9.46699e-14
9.8218e-14
1.01995e-13
1.05937e-13
1.09988e-13
1.14104e-13
1.18245e-13
1.22383e-13
1.26493e-13
1.30557e-13
1.34559e-13
1.38487e-13
1.4233e-13
1.46079e-13
1.49724e-13
1.53282e-13
1.56736e-13
1.60025e-13
1.63183e-13
1.66201e-13
1.69073e-13
1.71796e-13
1.74366e-13
1.76774e-13
1.79017e-13
1.8109e-13
1.83006e-13
1.84723e-13
1.86279e-13
1.8764e-13
1.888e-13
1.89736e-13
1.90471e-13
1.90996e-13
1.91292e-13
1.91365e-13
1.91211e-13
1.90828e-13
1.9021e-13
1.89339e-13
1.8824e-13
1.86895e-13
1.85302e-13
1.83458e-13
1.8132e-13
1.78966e-13
1.76346e-13
1.73446e-13
1.70253e-13
1.66752e-13
1.62951e-13
1.58786e-13
1.54276e-13
1.49519e-13
1.44754e-13
1.39759e-13
1.3453e-13
1.29063e-13
1.23375e-13
1.17429e-13
1.11006e-13
1.04789e-13
9.83644e-14
9.17487e-14
8.49541e-14
7.80145e-14
7.09568e-14
6.37752e-14
5.63441e-14
4.89439e-14
4.09709e-14
3.29667e-14
2.40032e-14
1.52638e-14
8.55623e-15
)
;

boundaryField
{
    front
    {
        type            wedge;
    }
    back
    {
        type            wedge;
    }
    wall
    {
        type            zeroGradient;
    }
    fuel
    {
        type            fixedValue;
        value           uniform 0;
    }
    outlet
    {
        type            inletOutlet;
        inletValue      uniform 0;
        value           uniform 8.55623e-15;
    }
    axis
    {
        type            empty;
    }
}


// ************************************************************************* //
