/*--------------------------------*- C++ -*----------------------------------*\
| =========                 |                                                 |
| \\      /  F ield         | OpenFOAM: The Open Source CFD Toolbox           |
|  \\    /   O peration     | Version:  dev                                   |
|   \\  /    A nd           | Web:      www.OpenFOAM.org                      |
|    \\/     M anipulation  |                                                 |
\*---------------------------------------------------------------------------*/
FoamFile
{
    version     2.0;
    format      ascii;
    class       volScalarField;
    location    "0.0215";
    object      moment.4.populationBalance;
}
// * * * * * * * * * * * * * * * * * * * * * * * * * * * * * * * * * * * * * //

dimensions      [0 9 0 0 0 0 0];

internalField   nonuniform List<scalar> 
251
(
7.45078e+14
7.24838e+14
7.05131e+14
6.85944e+14
6.67262e+14
6.49073e+14
6.31364e+14
6.14122e+14
5.97336e+14
5.80993e+14
5.65081e+14
5.4959e+14
5.34509e+14
5.19827e+14
5.05534e+14
4.91619e+14
4.78073e+14
4.64886e+14
4.52049e+14
4.39553e+14
4.27388e+14
4.15547e+14
4.04021e+14
3.92802e+14
3.81881e+14
3.71251e+14
3.60905e+14
3.50835e+14
3.41034e+14
3.31494e+14
3.2221e+14
3.13174e+14
3.04381e+14
2.95822e+14
2.87494e+14
2.79389e+14
2.71502e+14
2.63827e+14
2.56359e+14
2.49091e+14
2.4202e+14
2.3514e+14
2.28445e+14
2.21932e+14
2.15594e+14
2.09429e+14
2.03431e+14
1.97595e+14
1.91918e+14
1.86396e+14
1.81024e+14
1.75798e+14
1.70715e+14
1.65771e+14
1.60962e+14
1.56285e+14
1.51737e+14
1.47313e+14
1.43011e+14
1.38827e+14
1.34758e+14
1.30802e+14
1.26955e+14
1.23215e+14
1.19578e+14
1.16042e+14
1.12605e+14
1.09263e+14
1.06014e+14
1.02856e+14
9.97854e+13
9.68006e+13
9.3899e+13
9.10781e+13
8.83352e+13
8.56679e+13
8.30735e+13
8.0549e+13
7.80915e+13
7.56977e+13
7.33639e+13
7.10863e+13
6.88606e+13
6.6682e+13
6.45454e+13
6.24453e+13
6.03758e+13
5.83307e+13
5.63035e+13
5.4288e+13
5.22777e+13
5.02668e+13
4.82498e+13
4.62223e+13
4.41808e+13
4.21232e+13
4.00489e+13
3.79589e+13
3.5856e+13
3.37448e+13
3.16317e+13
2.95245e+13
2.74327e+13
2.53665e+13
2.33372e+13
2.13563e+13
1.94354e+13
1.75856e+13
1.58171e+13
1.41392e+13
1.25596e+13
1.10843e+13
9.71765e+12
8.46211e+12
7.31827e+12
6.28498e+12
5.35949e+12
4.53765e+12
3.81411e+12
3.18259e+12
2.63615e+12
2.1674e+12
1.76876e+12
1.43267e+12
1.15174e+12
9.18933e+11
7.27658e+11
5.71844e+11
4.45996e+11
3.45211e+11
2.65177e+11
2.02156e+11
1.52946e+11
1.14839e+11
8.55756e+10
6.32878e+10
4.64522e+10
3.38387e+10
2.44654e+10
1.7556e+10
1.25039e+10
8.83925e+09
6.20225e+09
4.31971e+09
2.98635e+09
2.04936e+09
1.39604e+09
9.44041e+08
6.33734e+08
4.22335e+08
2.79417e+08
1.83529e+08
1.19681e+08
7.7487e+07
4.98107e+07
3.17922e+07
2.01481e+07
1.26787e+07
7.92235e+06
4.91571e+06
3.02887e+06
1.85333e+06
1.12618e+06
679621
407320
242453
143336
84164.4
49086.4
28435.7
16362.5
9352.52
5310.23
2995.12
1678.2
934.144
516.576
283.803
154.908
84.0068
45.2638
24.2323
12.8901
6.81308
3.57826
1.86745
0.96847
0.499108
0.255613
0.130096
0.0658029
0.033078
0.0165255
0.00820542
0.00404939
0.00198623
0.000968345
0.000469248
0.000226024
0.000108217
5.15036e-05
2.43662e-05
1.14592e-05
5.35729e-06
2.48983e-06
1.15035e-06
5.28355e-07
2.41234e-07
1.09476e-07
4.93668e-08
2.21036e-08
9.80883e-09
4.29525e-09
1.83513e-09
7.41762e-10
2.58319e-10
4.76615e-11
0
0
0
0
0
0
0
0
0
0
0
0
0
0
0
0
0
0
0
0
0
0
0
0
0
0
0
0
0
0
0
0
0
0
)
;

boundaryField
{
    wall
    {
        type            zeroGradient;
    }
    fuel
    {
        type            fixedValue;
        value           uniform 7.65865e+14;
    }
    outlet
    {
        type            inletOutlet;
        inletValue      nonuniform 0();
        value           nonuniform 0();
    }
    procBoundary0to1
    {
        type            processor;
        value           uniform 0;
    }
}


// ************************************************************************* //
