/*--------------------------------*- C++ -*----------------------------------*\
| =========                 |                                                 |
| \\      /  F ield         | OpenFOAM: The Open Source CFD Toolbox           |
|  \\    /   O peration     | Version:  dev                                   |
|   \\  /    A nd           | Web:      www.OpenFOAM.org                      |
|    \\/     M anipulation  |                                                 |
\*---------------------------------------------------------------------------*/
FoamFile
{
    version     2.0;
    format      ascii;
    class       volScalarField;
    location    "0.0215";
    object      moment.3.populationBalance;
}
// * * * * * * * * * * * * * * * * * * * * * * * * * * * * * * * * * * * * * //

dimensions      [0 6 0 0 0 0 0];

internalField   nonuniform List<scalar> 
251
(
8.66522e+12
8.43768e+12
8.21622e+12
8.00067e+12
7.79088e+12
7.58669e+12
7.38795e+12
7.19451e+12
7.00623e+12
6.82298e+12
6.64461e+12
6.47099e+12
6.302e+12
6.13751e+12
5.9774e+12
5.82155e+12
5.66984e+12
5.52217e+12
5.37842e+12
5.2385e+12
5.10228e+12
4.96968e+12
4.8406e+12
4.71494e+12
4.59261e+12
4.47352e+12
4.35758e+12
4.2447e+12
4.13481e+12
4.02782e+12
3.92365e+12
3.82223e+12
3.72349e+12
3.62734e+12
3.53373e+12
3.44257e+12
3.35381e+12
3.26739e+12
3.18323e+12
3.10128e+12
3.02147e+12
2.94375e+12
2.86807e+12
2.79437e+12
2.72259e+12
2.65268e+12
2.5846e+12
2.51829e+12
2.45371e+12
2.3908e+12
2.32954e+12
2.26986e+12
2.21173e+12
2.15511e+12
2.09995e+12
2.04622e+12
1.99388e+12
1.9429e+12
1.89322e+12
1.84483e+12
1.79769e+12
1.75176e+12
1.70701e+12
1.66341e+12
1.62092e+12
1.57953e+12
1.5392e+12
1.49989e+12
1.46159e+12
1.42427e+12
1.38789e+12
1.35244e+12
1.31787e+12
1.28417e+12
1.25131e+12
1.21925e+12
1.18796e+12
1.1574e+12
1.12754e+12
1.09832e+12
1.0697e+12
1.04162e+12
1.01402e+12
9.86824e+11
9.59953e+11
9.33319e+11
9.06829e+11
8.80384e+11
8.5388e+11
8.27214e+11
8.00281e+11
7.72987e+11
7.45244e+11
7.16979e+11
6.88137e+11
6.58688e+11
6.28626e+11
5.97974e+11
5.66785e+11
5.35146e+11
5.03171e+11
4.71004e+11
4.38812e+11
4.06783e+11
3.75117e+11
3.44024e+11
3.13711e+11
2.8438e+11
2.5622e+11
2.29399e+11
2.04064e+11
1.8033e+11
1.58286e+11
1.37984e+11
1.1945e+11
1.02675e+11
8.7625e+10
7.42408e+10
6.24421e+10
5.21322e+10
4.32022e+10
3.55351e+10
2.90097e+10
2.35045e+10
1.89003e+10
1.50829e+10
1.19453e+10
9.38851e+09
7.32288e+09
5.66827e+09
4.35415e+09
3.31925e+09
2.5111e+09
1.88529e+09
1.40471e+09
1.03871e+09
7.6227e+08
5.55182e+08
4.01312e+08
2.8791e+08
2.05007e+08
1.44885e+08
1.01633e+08
7.07642e+07
4.89063e+07
3.35508e+07
2.28473e+07
1.54446e+07
1.03642e+07
6.90437e+06
4.56619e+06
2.99803e+06
1.95427e+06
1.26476e+06
812680
518480
328440
206588
129030
80025.1
49285.8
30143.2
18308.1
11043.2
6615.35
3935.8
2325.66
1364.91
795.648
460.686
264.954
151.366
85.899
48.4245
27.1187
15.0873
8.33877
4.57883
2.49793
1.35391
0.729109
0.390123
0.207409
0.109567
0.0575135
0.0299992
0.0155492
0.00800898
0.00409946
0.00208529
0.00105416
0.000529612
0.000264442
0.00013123
6.47261e-05
3.17304e-05
1.54608e-05
7.48786e-06
3.60466e-06
1.72489e-06
8.20456e-07
3.87934e-07
1.82338e-07
8.51965e-08
3.95729e-08
1.8273e-08
8.38798e-09
3.82756e-09
1.73601e-09
7.82382e-10
3.50104e-10
1.55274e-10
6.79545e-11
2.90163e-11
1.17215e-11
4.07954e-12
7.52235e-13
0
0
0
0
0
0
0
0
0
0
0
0
0
0
0
0
0
0
0
0
0
0
0
0
0
0
0
0
0
0
0
0
0
0
)
;

boundaryField
{
    wall
    {
        type            zeroGradient;
    }
    fuel
    {
        type            fixedValue;
        value           uniform 8.899e+12;
    }
    outlet
    {
        type            inletOutlet;
        inletValue      nonuniform 0();
        value           nonuniform 0();
    }
    procBoundary0to1
    {
        type            processor;
        value           uniform 0;
    }
}


// ************************************************************************* //
