/*--------------------------------*- C++ -*----------------------------------*\
| =========                 |                                                 |
| \\      /  F ield         | OpenFOAM: The Open Source CFD Toolbox           |
|  \\    /   O peration     | Version:  dev                                   |
|   \\  /    A nd           | Web:      www.OpenFOAM.org                      |
|    \\/     M anipulation  |                                                 |
\*---------------------------------------------------------------------------*/
FoamFile
{
    version     2.0;
    format      ascii;
    class       volScalarField;
    location    "0.0215";
    object      moment.0.populationBalance;
}
// * * * * * * * * * * * * * * * * * * * * * * * * * * * * * * * * * * * * * //

dimensions      [0 -3 0 0 0 0 0];

internalField   nonuniform List<scalar> 
251
(
6.08107e+09
6.081e+09
6.08093e+09
6.08084e+09
6.08073e+09
6.08061e+09
6.08046e+09
6.08028e+09
6.08007e+09
6.07983e+09
6.07954e+09
6.0792e+09
6.07879e+09
6.07832e+09
6.07777e+09
6.07712e+09
6.07636e+09
6.07546e+09
6.07442e+09
6.07321e+09
6.0718e+09
6.07016e+09
6.06826e+09
6.06605e+09
6.0635e+09
6.06057e+09
6.05718e+09
6.0533e+09
6.04885e+09
6.04377e+09
6.03798e+09
6.0314e+09
6.02394e+09
6.01552e+09
6.00603e+09
5.99539e+09
5.98348e+09
5.97022e+09
5.9555e+09
5.93923e+09
5.92131e+09
5.90166e+09
5.88021e+09
5.85689e+09
5.83164e+09
5.80443e+09
5.77523e+09
5.74403e+09
5.71084e+09
5.67568e+09
5.63859e+09
5.59961e+09
5.55882e+09
5.51628e+09
5.4721e+09
5.42635e+09
5.37914e+09
5.33058e+09
5.28078e+09
5.22985e+09
5.1779e+09
5.12503e+09
5.07136e+09
5.01699e+09
4.96201e+09
4.90652e+09
4.85061e+09
4.79436e+09
4.73785e+09
4.68114e+09
4.62429e+09
4.56736e+09
4.51038e+09
4.45338e+09
4.39638e+09
4.33938e+09
4.28236e+09
4.22526e+09
4.16803e+09
4.11055e+09
4.05269e+09
3.99426e+09
3.93504e+09
3.87476e+09
3.8131e+09
3.74967e+09
3.68407e+09
3.61585e+09
3.54451e+09
3.46956e+09
3.3905e+09
3.30686e+09
3.2182e+09
3.12416e+09
3.02448e+09
2.91899e+09
2.80768e+09
2.69069e+09
2.56833e+09
2.44105e+09
2.3095e+09
2.17447e+09
2.03689e+09
1.89779e+09
1.7583e+09
1.61959e+09
1.48284e+09
1.34919e+09
1.21975e+09
1.09549e+09
9.773e+08
8.65901e+08
7.61862e+08
6.65589e+08
5.77316e+08
4.97121e+08
4.24931e+08
3.6054e+08
3.03628e+08
2.53783e+08
2.10521e+08
1.73311e+08
1.41593e+08
1.14797e+08
9.23601e+07
7.37393e+07
5.84211e+07
4.59297e+07
3.58319e+07
2.77395e+07
2.13099e+07
1.62451e+07
1.22893e+07
9.2256e+06
6.87284e+06
5.08108e+06
3.72789e+06
2.71434e+06
1.96141e+06
1.40664e+06
1.0012e+06
707274
495903
345110
238387
163448
111241
75152.6
50400.3
33553.8
22176
14550.2
9477.92
6129.49
3935.66
2509.02
1588.17
998.175
622.942
386.039
237.559
145.17
88.0978
53.0939
31.7781
18.8899
11.1521
6.53926
3.80848
2.20313
1.26592
0.722536
0.409651
0.230718
0.129084
0.0717461
0.0396161
0.0217322
0.0118442
0.00641336
0.00345032
0.00184432
0.000979554
0.000516946
0.00027108
0.000141252
7.31395e-05
3.76336e-05
1.92432e-05
9.77841e-06
4.93808e-06
2.47832e-06
1.23616e-06
6.12806e-07
3.01933e-07
1.47859e-07
7.19684e-08
3.48182e-08
1.67436e-08
8.00348e-09
3.80283e-09
1.79614e-09
8.43316e-10
3.93608e-10
1.82628e-10
8.42377e-11
3.86259e-11
1.76062e-11
7.97663e-12
3.59092e-12
1.60511e-12
7.11087e-13
3.10853e-13
1.32582e-13
5.34967e-14
1.85972e-14
3.42505e-15
0
0
0
0
0
0
0
0
0
0
0
0
0
0
0
0
0
0
0
0
0
0
0
0
0
0
0
0
0
0
0
0
0
0
)
;

boundaryField
{
    wall
    {
        type            zeroGradient;
    }
    fuel
    {
        type            fixedValue;
        value           uniform 6.08112e+09;
    }
    outlet
    {
        type            inletOutlet;
        inletValue      nonuniform 0();
        value           nonuniform 0();
    }
    procBoundary0to1
    {
        type            processor;
        value           uniform 0;
    }
}


// ************************************************************************* //
