/*--------------------------------*- C++ -*----------------------------------*\
| =========                 |                                                 |
| \\      /  F ield         | OpenFOAM: The Open Source CFD Toolbox           |
|  \\    /   O peration     | Version:  dev                                   |
|   \\  /    A nd           | Web:      www.OpenFOAM.org                      |
|    \\/     M anipulation  |                                                 |
\*---------------------------------------------------------------------------*/
FoamFile
{
    version     2.0;
    format      ascii;
    class       volScalarField;
    location    "0.11";
    object      A1-;
}
// * * * * * * * * * * * * * * * * * * * * * * * * * * * * * * * * * * * * * //

dimensions      [0 0 0 0 0 0 0];

internalField   nonuniform List<scalar> 
250
(
1.42193e-07
1.20576e-07
1.13059e-07
1.05752e-07
1.03261e-07
1.01889e-07
1.02095e-07
1.01221e-07
1.01698e-07
1.01469e-07
1.09894e-07
9.46526e-08
8.99061e-08
8.4081e-08
8.20735e-08
8.08984e-08
8.11309e-08
8.03115e-08
8.07441e-08
8.05137e-08
7.9531e-08
8.21315e-08
7.90342e-08
8.32308e-08
7.96832e-08
8.52502e-08
8.43667e-08
9.19853e-08
1.12025e-07
1.65258e-07
8.26371e-08
7.20176e-08
6.91097e-08
6.46103e-08
6.30374e-08
6.20773e-08
6.23268e-08
6.15872e-08
6.19769e-08
6.17472e-08
6.09113e-08
6.31927e-08
6.04905e-08
6.41166e-08
6.10257e-08
6.57201e-08
6.47724e-08
7.06394e-08
8.44318e-08
1.17633e-07
6.02921e-08
5.30122e-08
5.12724e-08
4.79314e-08
4.67205e-08
4.59911e-08
4.62429e-08
4.55818e-08
4.59548e-08
4.57044e-08
4.50255e-08
4.69528e-08
4.46826e-08
4.76879e-08
4.51028e-08
4.88818e-08
4.80153e-08
5.23769e-08
6.15632e-08
8.13198e-08
4.24997e-08
3.74976e-08
3.65845e-08
3.40382e-08
3.3298e-08
3.27032e-08
3.27991e-08
3.24433e-08
3.25963e-08
3.25356e-08
3.20084e-08
3.3364e-08
3.17377e-08
3.39393e-08
3.20515e-08
3.49626e-08
3.40744e-08
3.73726e-08
4.32944e-08
5.45605e-08
2.87376e-08
2.54338e-08
2.49423e-08
2.31722e-08
2.26627e-08
2.22505e-08
2.23296e-08
2.20525e-08
2.2191e-08
2.21184e-08
2.17284e-08
2.27483e-08
2.15244e-08
2.31643e-08
2.17471e-08
2.38836e-08
2.31834e-08
2.54928e-08
2.91746e-08
3.4919e-08
1.84211e-08
1.63155e-08
1.60679e-08
1.48985e-08
1.4568e-08
1.42907e-08
1.43594e-08
1.4158e-08
1.42639e-08
1.42021e-08
1.3931e-08
1.46518e-08
1.37862e-08
1.49339e-08
1.39346e-08
1.54104e-08
1.48893e-08
1.64374e-08
1.8627e-08
2.14644e-08
1.10389e-08
9.78353e-09
9.67141e-09
8.95862e-09
8.76231e-09
8.59031e-09
8.64225e-09
8.50996e-09
8.57938e-09
8.53695e-09
8.36514e-09
8.82916e-09
8.27143e-09
9.00387e-09
8.36175e-09
9.29328e-09
8.94011e-09
9.90226e-09
1.11183e-08
1.24184e-08
6.2605e-09
5.61183e-09
5.56951e-09
5.19584e-09
5.09462e-09
5.00366e-09
5.03443e-09
4.96166e-09
4.99932e-09
4.97566e-09
4.88352e-09
5.13562e-09
4.83278e-09
5.22851e-09
4.88003e-09
5.38129e-09
5.17978e-09
5.69798e-09
6.28797e-09
6.82472e-09
4.02857e-09
3.78864e-09
3.77242e-09
3.62681e-09
3.58123e-09
3.54669e-09
3.55719e-09
3.52785e-09
3.54379e-09
3.53298e-09
3.49639e-09
3.5961e-09
3.47756e-09
3.63473e-09
3.49762e-09
3.7024e-09
3.6186e-09
3.83951e-09
4.04797e-09
4.22704e-09
4.24608e-09
4.13507e-09
4.10826e-09
4.02164e-09
3.97957e-09
3.95842e-09
3.96284e-09
3.94165e-09
3.95498e-09
3.94372e-09
3.91795e-09
3.98796e-09
3.90579e-09
4.01495e-09
3.92133e-09
4.06909e-09
4.00758e-09
4.1785e-09
4.25766e-09
4.35195e-09
4.85718e-09
4.56344e-09
4.51056e-09
4.3232e-09
4.25366e-09
4.20417e-09
4.22196e-09
4.17669e-09
4.2025e-09
4.18041e-09
4.12673e-09
4.28235e-09
4.09618e-09
4.33352e-09
4.12219e-09
4.42682e-09
4.28154e-09
4.63222e-09
4.81042e-09
5.06778e-09
3.35042e-09
3.06079e-09
3.00591e-09
2.84032e-09
2.78142e-09
2.73698e-09
2.75435e-09
2.71432e-09
2.73685e-09
2.71667e-09
2.67008e-09
2.81028e-09
2.64187e-09
2.85503e-09
2.66153e-09
2.93654e-09
2.79119e-09
3.12555e-09
3.26909e-09
3.58245e-09
)
;

boundaryField
{
    fuel
    {
        type            fixedValue;
        value           nonuniform 0();
    }
    wall
    {
        type            zeroGradient;
    }
    outlet
    {
        type            zeroGradient;
    }
    frontAndBack
    {
        type            empty;
    }
    procBoundary1to0
    {
        type            processor;
        value           nonuniform List<scalar> 
21
(
1.79441e-07
1.49134e-07
1.37595e-07
1.28654e-07
1.25651e-07
1.24116e-07
1.24284e-07
1.23399e-07
1.23907e-07
1.23694e-07
1.00369e-07
1.00369e-07
1.03192e-07
9.9806e-08
1.04427e-07
1.00552e-07
1.06842e-07
1.06189e-07
1.15821e-07
1.43979e-07
2.25419e-07
)
;
    }
}


// ************************************************************************* //
