/*--------------------------------*- C++ -*----------------------------------*\
| =========                 |                                                 |
| \\      /  F ield         | OpenFOAM: The Open Source CFD Toolbox           |
|  \\    /   O peration     | Version:  dev                                   |
|   \\  /    A nd           | Web:      www.OpenFOAM.org                      |
|    \\/     M anipulation  |                                                 |
\*---------------------------------------------------------------------------*/
FoamFile
{
    version     2.0;
    format      ascii;
    class       volScalarField;
    location    "0.11";
    object      A2-1;
}
// * * * * * * * * * * * * * * * * * * * * * * * * * * * * * * * * * * * * * //

dimensions      [0 0 0 0 0 0 0];

internalField   nonuniform List<scalar> 
250
(
2.22106e-10
1.53882e-10
1.32183e-10
1.23137e-10
1.20405e-10
1.19264e-10
1.19345e-10
1.18929e-10
1.19227e-10
1.19236e-10
1.76453e-10
1.30502e-10
1.16021e-10
1.08198e-10
1.05729e-10
1.04529e-10
1.04704e-10
1.04085e-10
1.04459e-10
1.04372e-10
1.03494e-10
1.05529e-10
1.02972e-10
1.06332e-10
1.03515e-10
1.08133e-10
1.08513e-10
1.18276e-10
1.56628e-10
3.1466e-10
1.36382e-10
1.05876e-10
9.65855e-11
9.0028e-11
8.78816e-11
8.67278e-11
8.69888e-11
8.62451e-11
8.66677e-11
8.64996e-11
8.55679e-11
8.79074e-11
8.50418e-11
8.88087e-11
8.5604e-11
9.05604e-11
9.0242e-11
9.84639e-11
1.26056e-10
2.28885e-10
1.01895e-10
8.19256e-11
7.61611e-11
7.09194e-11
6.91206e-11
6.81284e-11
6.84487e-11
6.76441e-11
6.81209e-11
6.78568e-11
6.69747e-11
6.93422e-11
6.64883e-11
7.02095e-11
6.70046e-11
7.17217e-11
7.10452e-11
7.76565e-11
9.6656e-11
1.59941e-10
7.31155e-11
6.00807e-11
5.677e-11
5.25661e-11
5.13708e-11
5.04912e-11
5.06231e-11
5.01478e-11
5.03621e-11
5.03176e-11
4.95564e-11
5.14229e-11
4.91372e-11
5.21973e-11
4.95666e-11
5.36434e-11
5.26269e-11
5.7918e-11
7.04298e-11
1.07357e-10
4.99858e-11
4.17073e-11
3.98241e-11
3.67712e-11
3.59102e-11
3.52599e-11
3.53813e-11
3.4976e-11
3.51875e-11
3.5102e-11
3.44976e-11
3.60217e-11
3.41625e-11
3.66307e-11
3.44904e-11
3.77233e-11
3.67926e-11
4.0667e-11
4.85269e-11
6.80807e-11
3.21475e-11
2.70384e-11
2.60184e-11
2.39347e-11
2.33579e-11
2.28998e-11
2.30127e-11
2.2699e-11
2.287e-11
2.27858e-11
2.23442e-11
2.34849e-11
2.20962e-11
2.3922e-11
2.23263e-11
2.46821e-11
2.39217e-11
2.66014e-11
3.12923e-11
4.11517e-11
1.90329e-11
1.6029e-11
1.55135e-11
1.41991e-11
1.38465e-11
1.35493e-11
1.36401e-11
1.34223e-11
1.35398e-11
1.34769e-11
1.31837e-11
1.39579e-11
1.30162e-11
1.42417e-11
1.31628e-11
1.47215e-11
1.41684e-11
1.58832e-11
1.85123e-11
2.31192e-11
1.00113e-11
8.39346e-12
8.15999e-12
7.42073e-12
7.23187e-12
7.06045e-12
7.12166e-12
6.99058e-12
7.05916e-12
7.02094e-12
6.85018e-12
7.31046e-12
6.75063e-12
7.47195e-12
6.8327e-12
7.73726e-12
7.3906e-12
8.36541e-12
9.70871e-12
1.16822e-11
4.48226e-12
3.73185e-12
3.6398e-12
3.28984e-12
3.20574e-12
3.12278e-12
3.15567e-12
3.09109e-12
3.12382e-12
3.10518e-12
3.02271e-12
3.24896e-12
2.97355e-12
3.32522e-12
3.01175e-12
3.44708e-12
3.27009e-12
3.73447e-12
4.32621e-12
5.08529e-12
1.61742e-12
1.3289e-12
1.29524e-12
1.16144e-12
1.13103e-12
1.09874e-12
1.11239e-12
1.08729e-12
1.09974e-12
1.09241e-12
1.06074e-12
1.14914e-12
1.04137e-12
1.1778e-12
1.05545e-12
1.22273e-12
1.15125e-12
1.33121e-12
1.54481e-12
1.80876e-12
3.98157e-13
3.21911e-13
3.12465e-13
2.78457e-13
2.71063e-13
2.62806e-13
2.66386e-13
2.60073e-13
2.63202e-13
2.6125e-13
2.53361e-13
2.75774e-13
2.48434e-13
2.82819e-13
2.51856e-13
2.93875e-13
2.75328e-13
3.21876e-13
3.74052e-13
4.43544e-13
7.84461e-14
6.40963e-14
6.19628e-14
5.57225e-14
5.42995e-14
5.27773e-14
5.34311e-14
5.22662e-14
5.28564e-14
5.24624e-14
5.10085e-14
5.51748e-14
5.00955e-14
5.6462e-14
5.07258e-14
5.85441e-14
5.50188e-14
6.40041e-14
7.30632e-14
8.70777e-14
)
;

boundaryField
{
    fuel
    {
        type            fixedValue;
        value           nonuniform 0();
    }
    wall
    {
        type            zeroGradient;
    }
    outlet
    {
        type            zeroGradient;
    }
    frontAndBack
    {
        type            empty;
    }
    procBoundary1to0
    {
        type            processor;
        value           nonuniform List<scalar> 
21
(
2.73879e-10
1.74371e-10
1.432e-10
1.32876e-10
1.29939e-10
1.28939e-10
1.28925e-10
1.28772e-10
1.28967e-10
1.29084e-10
1.18522e-10
1.18522e-10
1.19959e-10
1.18054e-10
1.20518e-10
1.18502e-10
1.22157e-10
1.23522e-10
1.34753e-10
1.85841e-10
4.15714e-10
)
;
    }
}


// ************************************************************************* //
