/*--------------------------------*- C++ -*----------------------------------*\
| =========                 |                                                 |
| \\      /  F ield         | OpenFOAM: The Open Source CFD Toolbox           |
|  \\    /   O peration     | Version:  dev                                   |
|   \\  /    A nd           | Web:      www.OpenFOAM.org                      |
|    \\/     M anipulation  |                                                 |
\*---------------------------------------------------------------------------*/
FoamFile
{
    version     2.0;
    format      ascii;
    class       volScalarField;
    location    "0.11";
    object      A2-2;
}
// * * * * * * * * * * * * * * * * * * * * * * * * * * * * * * * * * * * * * //

dimensions      [0 0 0 0 0 0 0];

internalField   nonuniform List<scalar> 
250
(
2.56752e-10
1.76298e-10
1.52746e-10
1.42284e-10
1.39147e-10
1.37702e-10
1.37865e-10
1.37229e-10
1.37634e-10
1.37595e-10
1.97841e-10
1.45147e-10
1.29996e-10
1.21216e-10
1.18475e-10
1.17041e-10
1.173e-10
1.16487e-10
1.16953e-10
1.1682e-10
1.15718e-10
1.1837e-10
1.1508e-10
1.19416e-10
1.15761e-10
1.21582e-10
1.21642e-10
1.32653e-10
1.77388e-10
3.63742e-10
1.48426e-10
1.145e-10
1.0514e-10
9.80183e-11
9.57184e-11
9.44091e-11
9.47443e-11
9.38518e-11
9.43465e-11
9.41377e-11
9.30439e-11
9.58472e-11
9.24329e-11
9.69243e-11
9.30875e-11
9.89149e-11
9.82973e-11
1.07253e-10
1.38344e-10
2.56209e-10
1.07798e-10
8.63208e-11
8.07466e-11
7.52342e-11
7.33688e-11
7.22909e-11
7.26669e-11
7.17599e-11
7.22905e-11
7.19926e-11
7.10056e-11
7.36835e-11
7.0463e-11
7.46627e-11
7.10335e-11
7.6307e-11
7.53983e-11
8.23649e-11
1.03039e-10
1.73521e-10
7.52682e-11
6.17415e-11
5.87086e-11
5.44036e-11
5.3212e-11
5.22837e-11
5.24425e-11
5.1925e-11
5.21546e-11
5.21065e-11
5.12846e-11
5.33177e-11
5.08316e-11
5.41571e-11
5.12882e-11
5.56819e-11
5.44844e-11
5.99143e-11
7.30602e-11
1.12932e-10
5.00128e-11
4.17422e-11
4.01208e-11
3.70758e-11
3.62382e-11
3.55719e-11
3.57105e-11
3.5282e-11
3.55024e-11
3.54138e-11
3.47794e-11
3.63912e-11
3.44266e-11
3.7032e-11
3.47649e-11
3.81522e-11
3.71063e-11
4.09863e-11
4.89529e-11
6.92884e-11
3.10782e-11
2.61821e-11
2.53738e-11
2.33513e-11
2.2805e-11
2.23484e-11
2.24708e-11
2.21486e-11
2.23217e-11
2.2237e-11
2.17861e-11
2.29591e-11
2.15318e-11
2.34067e-11
2.17624e-11
2.41659e-11
2.33412e-11
2.59607e-11
3.05291e-11
4.02941e-11
1.75279e-11
1.47933e-11
1.44312e-11
1.32013e-11
1.28799e-11
1.2594e-11
1.26878e-11
1.2472e-11
1.25867e-11
1.25256e-11
1.22371e-11
1.30048e-11
1.20715e-11
1.32854e-11
1.2213e-11
1.37484e-11
1.31716e-11
1.47938e-11
1.72273e-11
2.14767e-11
8.54004e-12
7.17413e-12
7.03939e-12
6.38871e-12
6.22756e-12
6.07224e-12
6.13114e-12
6.00901e-12
6.07196e-12
6.03699e-12
5.87903e-12
6.30839e-12
5.78648e-12
6.45902e-12
5.86086e-12
6.70059e-12
6.36054e-12
7.23111e-12
8.38461e-12
1.00136e-11
3.36885e-12
2.81014e-12
2.77302e-12
2.49689e-12
2.43338e-12
2.36578e-12
2.39408e-12
2.34005e-12
2.36696e-12
2.35166e-12
2.28328e-12
2.47271e-12
2.24233e-12
2.53678e-12
2.2734e-12
2.63652e-12
2.48061e-12
2.85261e-12
3.30239e-12
3.82497e-12
9.89499e-13
8.16424e-13
8.08784e-13
7.21706e-13
7.03333e-13
6.81509e-13
6.91224e-13
6.73872e-13
6.82262e-13
6.77371e-13
6.55723e-13
7.16761e-13
6.42433e-13
7.36713e-13
6.51974e-13
7.66912e-13
7.1537e-13
8.32865e-13
9.65874e-13
1.10147e-12
1.89394e-13
1.55397e-13
1.54419e-13
1.37331e-13
1.34091e-13
1.29739e-13
1.31731e-13
1.28352e-13
1.2995e-13
1.29002e-13
1.24815e-13
1.36759e-13
1.22202e-13
1.40553e-13
1.24051e-13
1.46155e-13
1.3615e-13
1.58658e-13
1.84004e-13
2.08208e-13
4.25563e-14
3.57954e-14
3.5402e-14
3.19926e-14
3.12708e-14
3.03919e-14
3.07927e-14
3.00939e-14
3.04297e-14
3.02209e-14
2.93479e-14
3.18398e-14
2.88025e-14
3.26249e-14
2.91841e-14
3.38172e-14
3.16504e-14
3.65139e-14
4.12074e-14
4.6517e-14
)
;

boundaryField
{
    fuel
    {
        type            fixedValue;
        value           nonuniform 0();
    }
    wall
    {
        type            zeroGradient;
    }
    outlet
    {
        type            zeroGradient;
    }
    frontAndBack
    {
        type            empty;
    }
    procBoundary1to0
    {
        type            processor;
        value           nonuniform List<scalar> 
21
(
3.26236e-10
2.05854e-10
1.70751e-10
1.58519e-10
1.55052e-10
1.53707e-10
1.53759e-10
1.53397e-10
1.537e-10
1.53782e-10
1.36613e-10
1.36613e-10
1.38762e-10
1.36006e-10
1.3961e-10
1.3663e-10
1.41727e-10
1.42837e-10
1.55936e-10
2.1754e-10
4.9644e-10
)
;
    }
}


// ************************************************************************* //
