/*--------------------------------*- C++ -*----------------------------------*\
| =========                 |                                                 |
| \\      /  F ield         | OpenFOAM: The Open Source CFD Toolbox           |
|  \\    /   O peration     | Version:  dev                                   |
|   \\  /    A nd           | Web:      www.OpenFOAM.org                      |
|    \\/     M anipulation  |                                                 |
\*---------------------------------------------------------------------------*/
FoamFile
{
    version     2.0;
    format      ascii;
    class       volScalarField;
    location    "0.11";
    object      A2R5-;
}
// * * * * * * * * * * * * * * * * * * * * * * * * * * * * * * * * * * * * * //

dimensions      [0 0 0 0 0 0 0];

internalField   nonuniform List<scalar> 
50
(
1.27478e-13
1.11031e-13
9.66823e-14
8.4182e-14
7.33044e-14
6.38455e-14
5.5623e-14
4.84753e-14
4.22605e-14
3.6855e-14
3.21517e-14
2.80578e-14
2.44933e-14
2.1389e-14
1.86847e-14
1.63285e-14
1.42753e-14
1.24857e-14
1.09256e-14
9.56528e-15
8.37887e-15
7.34384e-15
6.44058e-15
5.65204e-15
4.96339e-15
4.3617e-15
3.83575e-15
3.37579e-15
2.97331e-15
2.62094e-15
2.31225e-15
2.04166e-15
1.8043e-15
1.59595e-15
1.41294e-15
1.25205e-15
1.1105e-15
9.85869e-16
8.76045e-16
7.79183e-16
6.93665e-16
6.18057e-16
5.51077e-16
4.92936e-16
4.41247e-16
3.94638e-16
3.53341e-16
3.16681e-16
2.84043e-16
2.5484e-16
)
;

boundaryField
{
    wall
    {
        type            zeroGradient;
    }
    fuel
    {
        type            fixedValue;
        value           nonuniform 0();
    }
    outlet
    {
        type            inletOutlet;
        inletValue      nonuniform 0();
        value           nonuniform 0();
    }
    procBoundary1to0
    {
        type            processor;
        value           uniform 1.46562e-13;
    }
    procBoundary1to2
    {
        type            processor;
        value           uniform 2.28805e-16;
    }
}


// ************************************************************************* //
