/*--------------------------------*- C++ -*----------------------------------*\
| =========                 |                                                 |
| \\      /  F ield         | OpenFOAM: The Open Source CFD Toolbox           |
|  \\    /   O peration     | Version:  dev                                   |
|   \\  /    A nd           | Web:      www.OpenFOAM.org                      |
|    \\/     M anipulation  |                                                 |
\*---------------------------------------------------------------------------*/
FoamFile
{
    version     2.0;
    format      ascii;
    class       volScalarField;
    location    "0.11";
    object      A2R5;
}
// * * * * * * * * * * * * * * * * * * * * * * * * * * * * * * * * * * * * * //

dimensions      [0 0 0 0 0 0 0];

internalField   nonuniform List<scalar> 
250
(
1.0685e-07
8.2142e-08
6.6311e-08
6.05016e-08
5.88295e-08
5.84427e-08
5.83669e-08
5.84062e-08
5.84402e-08
5.84945e-08
1.00189e-07
7.91197e-08
6.57081e-08
6.07017e-08
5.92206e-08
5.88663e-08
5.87944e-08
5.88289e-08
5.88607e-08
5.89083e-08
5.88662e-08
5.87653e-08
5.8794e-08
5.87091e-08
5.88317e-08
5.91587e-08
6.07219e-08
6.6545e-08
8.27639e-08
1.24937e-07
9.43543e-08
7.64547e-08
6.5148e-08
6.08532e-08
5.95486e-08
5.92256e-08
5.91585e-08
5.91881e-08
5.92178e-08
5.9259e-08
5.92187e-08
5.91285e-08
5.91498e-08
5.90764e-08
5.91851e-08
5.94773e-08
6.08476e-08
6.58858e-08
7.95383e-08
1.1475e-07
8.92441e-08
7.40958e-08
6.46103e-08
6.09418e-08
5.98013e-08
5.95084e-08
5.94468e-08
5.9472e-08
5.94995e-08
5.95353e-08
5.94961e-08
5.94177e-08
5.94304e-08
5.93706e-08
5.94632e-08
5.97265e-08
6.09136e-08
6.52309e-08
7.65961e-08
1.05663e-07
8.47707e-08
7.19839e-08
6.40811e-08
6.09688e-08
5.9977e-08
5.97149e-08
5.96619e-08
5.96795e-08
5.9708e-08
5.97359e-08
5.96978e-08
5.96346e-08
5.96352e-08
5.95921e-08
5.96651e-08
5.99027e-08
6.09188e-08
6.45799e-08
7.39317e-08
9.76606e-08
8.086e-08
7.01227e-08
6.35622e-08
6.09361e-08
6.0082e-08
5.98488e-08
5.98022e-08
5.98165e-08
5.98428e-08
5.98669e-08
5.983e-08
5.97774e-08
5.97704e-08
5.97397e-08
5.97971e-08
6.00107e-08
6.08696e-08
6.39394e-08
7.15407e-08
9.04924e-08
7.74481e-08
6.84717e-08
6.30557e-08
6.08556e-08
6.01267e-08
5.99221e-08
5.98817e-08
5.98933e-08
5.99177e-08
5.99385e-08
5.9903e-08
5.98596e-08
5.98465e-08
5.98259e-08
5.98696e-08
6.00599e-08
6.07769e-08
6.33196e-08
6.94198e-08
8.44214e-08
7.44821e-08
6.70135e-08
6.25678e-08
6.07407e-08
6.0124e-08
5.99468e-08
5.99126e-08
5.99222e-08
5.99449e-08
5.9963e-08
5.99292e-08
5.98931e-08
5.98757e-08
5.98627e-08
5.9895e-08
6.00623e-08
6.06536e-08
6.27324e-08
6.7564e-08
7.92707e-08
7.19212e-08
6.57367e-08
6.21078e-08
6.06047e-08
6.00878e-08
5.99364e-08
5.99079e-08
5.99163e-08
5.99372e-08
5.99532e-08
5.99214e-08
5.98909e-08
5.98711e-08
5.98629e-08
5.98863e-08
6.00309e-08
6.05131e-08
6.21899e-08
6.59676e-08
7.49746e-08
6.97401e-08
6.46372e-08
6.16879e-08
6.04614e-08
6.00319e-08
5.99043e-08
5.98811e-08
5.98888e-08
5.99079e-08
5.99225e-08
5.98928e-08
5.98661e-08
5.98456e-08
5.98397e-08
5.98567e-08
5.99794e-08
6.03694e-08
6.17051e-08
6.4626e-08
7.14601e-08
6.79351e-08
6.3721e-08
6.13228e-08
6.03254e-08
5.99704e-08
5.98638e-08
5.98451e-08
5.98526e-08
5.98699e-08
5.98836e-08
5.98562e-08
5.98318e-08
5.98119e-08
5.98064e-08
5.98192e-08
5.99215e-08
6.02365e-08
6.12925e-08
6.35399e-08
6.86784e-08
6.65366e-08
6.3009e-08
6.10315e-08
6.0212e-08
5.99161e-08
5.98266e-08
5.98115e-08
5.98192e-08
5.98349e-08
5.9848e-08
5.98227e-08
5.97995e-08
5.97808e-08
5.97746e-08
5.97848e-08
5.987e-08
6.01281e-08
6.09701e-08
6.27214e-08
6.66198e-08
6.56487e-08
6.25569e-08
6.08441e-08
6.01382e-08
5.98804e-08
5.98022e-08
5.97895e-08
5.97973e-08
5.9812e-08
5.98249e-08
5.98009e-08
5.97782e-08
5.97607e-08
5.97535e-08
5.97624e-08
5.98362e-08
6.00588e-08
6.07667e-08
6.22154e-08
6.5364e-08
)
;

boundaryField
{
    fuel
    {
        type            fixedValue;
        value           nonuniform 0();
    }
    wall
    {
        type            zeroGradient;
    }
    outlet
    {
        type            zeroGradient;
    }
    frontAndBack
    {
        type            empty;
    }
    procBoundary1to0
    {
        type            processor;
        value           nonuniform List<scalar> 
21
(
1.14432e-07
8.55853e-08
6.6991e-08
6.02799e-08
5.84014e-08
5.79802e-08
5.79015e-08
5.79448e-08
5.79815e-08
5.80426e-08
5.84503e-08
5.84503e-08
5.83415e-08
5.83743e-08
5.82831e-08
5.84148e-08
5.87859e-08
6.05488e-08
6.72203e-08
8.62781e-08
1.36217e-07
)
;
    }
}


// ************************************************************************* //
