/*--------------------------------*- C++ -*----------------------------------*\
| =========                 |                                                 |
| \\      /  F ield         | OpenFOAM: The Open Source CFD Toolbox           |
|  \\    /   O peration     | Version:  dev                                   |
|   \\  /    A nd           | Web:      www.OpenFOAM.org                      |
|    \\/     M anipulation  |                                                 |
\*---------------------------------------------------------------------------*/
FoamFile
{
    version     2.0;
    format      ascii;
    class       volScalarField;
    location    "0.11";
    object      A3C2H;
}
// * * * * * * * * * * * * * * * * * * * * * * * * * * * * * * * * * * * * * //

dimensions      [0 0 0 0 0 0 0];

internalField   nonuniform List<scalar> 
250
(
3.76023e-11
2.38404e-11
1.61581e-11
1.3623e-11
1.29714e-11
1.27911e-11
1.27788e-11
1.27458e-11
1.27757e-11
1.27753e-11
3.14268e-11
2.05406e-11
1.45574e-11
1.24854e-11
1.19359e-11
1.17734e-11
1.17677e-11
1.17289e-11
1.17595e-11
1.17548e-11
1.16945e-11
1.18141e-11
1.16533e-11
1.18569e-11
1.17013e-11
1.20841e-11
1.25094e-11
1.48935e-11
2.3648e-11
5.56533e-11
2.6048e-11
1.75275e-11
1.29298e-11
1.12572e-11
1.07996e-11
1.06555e-11
1.06569e-11
1.06131e-11
1.06449e-11
1.06355e-11
1.05755e-11
1.07053e-11
1.05357e-11
1.07493e-11
1.05806e-11
1.09469e-11
1.12699e-11
1.3215e-11
1.99161e-11
4.3203e-11
2.13991e-11
1.48013e-11
1.13109e-11
9.97926e-12
9.60314e-12
9.47984e-12
9.48731e-12
9.43939e-12
9.47427e-12
9.45858e-12
9.40114e-12
9.53523e-12
9.3635e-12
9.57778e-12
9.40397e-12
9.74383e-12
9.98401e-12
1.15433e-11
1.65903e-11
3.32952e-11
1.74423e-11
1.23657e-11
9.7583e-12
8.69918e-12
8.41148e-12
8.30287e-12
8.30081e-12
8.27264e-12
8.29047e-12
8.28898e-12
8.23686e-12
8.34639e-12
8.20246e-12
8.3864e-12
8.23704e-12
8.53779e-12
8.69789e-12
9.94071e-12
1.3685e-11
2.55521e-11
1.41667e-11
1.03028e-11
8.35371e-12
7.53513e-12
7.30952e-12
7.22269e-12
7.22278e-12
7.19717e-12
7.21517e-12
7.2106e-12
7.16661e-12
7.2614e-12
7.13701e-12
7.29397e-12
7.16469e-12
7.4135e-12
7.5303e-12
8.4899e-12
1.12291e-11
1.94683e-11
1.1568e-11
8.6405e-12
7.17961e-12
6.55749e-12
6.38379e-12
6.31646e-12
6.31785e-12
6.2975e-12
6.31267e-12
6.30813e-12
6.27413e-12
6.3473e-12
6.25043e-12
6.37065e-12
6.27094e-12
6.46033e-12
6.54967e-12
7.27585e-12
9.25617e-12
1.50146e-11
9.62305e-12
7.40153e-12
6.29424e-12
5.8279e-12
5.69512e-12
5.64498e-12
5.64591e-12
5.63196e-12
5.64326e-12
5.64003e-12
5.61617e-12
5.6657e-12
5.59855e-12
5.67996e-12
5.61257e-12
5.74431e-12
5.81792e-12
6.35867e-12
7.77835e-12
1.1817e-11
8.2634e-12
6.56012e-12
5.70581e-12
5.35759e-12
5.25509e-12
5.21869e-12
5.21828e-12
5.21008e-12
5.21801e-12
5.21596e-12
5.20062e-12
5.22977e-12
5.18826e-12
5.23678e-12
5.19726e-12
5.28222e-12
5.3461e-12
5.74702e-12
6.76165e-12
9.61777e-12
7.37049e-12
6.03896e-12
5.3666e-12
5.1037e-12
5.02261e-12
4.99604e-12
4.99437e-12
4.99013e-12
4.99588e-12
4.99431e-12
4.98488e-12
5.00008e-12
4.97638e-12
5.0024e-12
4.98207e-12
5.03546e-12
5.0911e-12
5.39191e-12
6.11987e-12
8.15542e-12
6.80603e-12
5.73745e-12
5.19774e-12
4.99435e-12
4.92824e-12
4.90812e-12
4.9057e-12
4.90361e-12
4.90825e-12
4.9065e-12
4.90058e-12
4.90809e-12
4.89454e-12
4.90791e-12
4.89837e-12
4.93351e-12
4.98104e-12
5.21205e-12
5.74105e-12
7.20178e-12
6.45489e-12
5.56676e-12
5.12209e-12
4.95863e-12
4.90293e-12
4.88672e-12
4.88409e-12
4.88284e-12
4.88708e-12
4.88483e-12
4.88071e-12
4.88493e-12
4.87607e-12
4.88362e-12
4.87899e-12
4.9048e-12
4.94502e-12
5.12851e-12
5.525e-12
6.59272e-12
6.25322e-12
5.47253e-12
5.08634e-12
4.94651e-12
4.89731e-12
4.88327e-12
4.88065e-12
4.8797e-12
4.88382e-12
4.88113e-12
4.87792e-12
4.88078e-12
4.87403e-12
4.87892e-12
4.87653e-12
4.89744e-12
4.93305e-12
5.08743e-12
5.40801e-12
6.24501e-12
)
;

boundaryField
{
    fuel
    {
        type            fixedValue;
        value           nonuniform 0();
    }
    wall
    {
        type            zeroGradient;
    }
    outlet
    {
        type            zeroGradient;
    }
    frontAndBack
    {
        type            empty;
    }
    procBoundary1to0
    {
        type            processor;
        value           nonuniform List<scalar> 
21
(
4.46572e-11
2.74496e-11
1.77157e-11
1.46491e-11
1.38858e-11
1.36879e-11
1.36697e-11
1.3643e-11
1.36725e-11
1.36765e-11
1.27163e-11
1.27163e-11
1.28218e-11
1.26742e-11
1.28615e-11
1.27242e-11
1.31173e-11
1.36592e-11
1.65391e-11
2.77796e-11
7.10386e-11
)
;
    }
}


// ************************************************************************* //
