/*--------------------------------*- C++ -*----------------------------------*\
| =========                 |                                                 |
| \\      /  F ield         | OpenFOAM: The Open Source CFD Toolbox           |
|  \\    /   O peration     | Version:  dev                                   |
|   \\  /    A nd           | Web:      www.OpenFOAM.org                      |
|    \\/     M anipulation  |                                                 |
\*---------------------------------------------------------------------------*/
FoamFile
{
    version     2.0;
    format      ascii;
    class       volScalarField;
    location    "0.11";
    object      C6H5OH;
}
// * * * * * * * * * * * * * * * * * * * * * * * * * * * * * * * * * * * * * //

dimensions      [0 0 0 0 0 0 0];

internalField   nonuniform List<scalar> 
250
(
4.21555e-08
3.34116e-08
2.9494e-08
2.85697e-08
2.83155e-08
2.83164e-08
2.82701e-08
2.83708e-08
2.83426e-08
2.83967e-08
4.22484e-08
3.526e-08
3.18956e-08
3.11325e-08
3.09109e-08
3.09227e-08
3.0868e-08
3.0976e-08
3.09438e-08
3.10001e-08
3.10746e-08
3.07613e-08
3.10892e-08
3.06445e-08
3.10348e-08
3.06112e-08
3.11262e-08
3.20699e-08
3.7111e-08
6.00164e-08
4.30005e-08
3.73866e-08
3.45051e-08
3.38383e-08
3.36261e-08
3.36329e-08
3.35748e-08
3.36755e-08
3.36449e-08
3.36989e-08
3.37626e-08
3.34767e-08
3.37733e-08
3.33771e-08
3.3728e-08
3.33689e-08
3.38255e-08
3.46828e-08
3.8912e-08
5.81643e-08
4.38988e-08
3.93051e-08
3.68466e-08
3.62006e-08
3.59773e-08
3.59599e-08
3.59071e-08
3.59852e-08
3.59613e-08
3.60088e-08
3.60453e-08
3.58367e-08
3.60439e-08
3.5771e-08
3.6017e-08
3.58141e-08
3.61748e-08
3.70419e-08
4.05967e-08
5.65057e-08
4.43743e-08
4.05231e-08
3.84254e-08
3.77797e-08
3.75223e-08
3.74832e-08
3.74566e-08
3.74812e-08
3.74903e-08
3.75051e-08
3.75093e-08
3.74208e-08
3.74926e-08
3.73911e-08
3.7486e-08
3.74684e-08
3.77389e-08
3.86335e-08
4.16277e-08
5.44852e-08
4.41318e-08
4.08444e-08
3.90705e-08
3.84213e-08
3.81659e-08
3.81047e-08
3.80877e-08
3.80911e-08
3.81067e-08
3.81143e-08
3.80953e-08
3.80795e-08
3.80677e-08
3.80763e-08
3.8075e-08
3.81887e-08
3.83697e-08
3.92652e-08
4.17567e-08
5.17979e-08
4.33042e-08
4.05099e-08
3.90204e-08
3.84155e-08
3.81814e-08
3.81146e-08
3.81031e-08
3.80967e-08
3.81148e-08
3.81176e-08
3.80905e-08
3.81068e-08
3.80597e-08
3.81131e-08
3.80725e-08
3.82291e-08
3.83605e-08
3.91731e-08
4.11861e-08
4.88235e-08
4.22643e-08
3.99239e-08
3.86814e-08
3.81577e-08
3.79561e-08
3.78949e-08
3.78855e-08
3.78785e-08
3.78953e-08
3.7896e-08
3.78717e-08
3.78892e-08
3.78436e-08
3.78931e-08
3.78561e-08
3.79922e-08
3.81046e-08
3.87789e-08
4.03495e-08
4.60005e-08
4.13261e-08
3.93864e-08
3.83544e-08
3.79212e-08
3.77532e-08
3.77016e-08
3.76927e-08
3.76885e-08
3.77028e-08
3.77026e-08
3.76846e-08
3.7692e-08
3.76612e-08
3.76901e-08
3.76712e-08
3.77668e-08
3.78724e-08
3.84005e-08
3.95934e-08
4.36735e-08
4.06086e-08
3.90002e-08
3.81443e-08
3.77913e-08
3.76524e-08
3.76099e-08
3.76013e-08
3.75995e-08
3.76118e-08
3.76108e-08
3.75978e-08
3.75972e-08
3.75783e-08
3.75908e-08
3.7586e-08
3.7649e-08
3.77471e-08
3.81524e-08
3.90473e-08
4.19306e-08
4.00857e-08
3.87379e-08
3.80263e-08
3.77372e-08
3.7622e-08
3.75864e-08
3.75788e-08
3.75779e-08
3.75891e-08
3.75872e-08
3.75769e-08
3.75733e-08
3.756e-08
3.75648e-08
3.7566e-08
3.761e-08
3.76972e-08
3.80108e-08
3.8684e-08
4.06932e-08
3.97033e-08
3.85502e-08
3.79503e-08
3.77096e-08
3.76128e-08
3.75825e-08
3.75759e-08
3.75753e-08
3.75859e-08
3.75831e-08
3.75743e-08
3.75703e-08
3.7559e-08
3.75611e-08
3.75638e-08
3.75975e-08
3.76734e-08
3.79225e-08
3.84404e-08
3.98527e-08
3.94594e-08
3.84285e-08
3.79002e-08
3.76905e-08
3.76058e-08
3.75788e-08
3.7573e-08
3.75725e-08
3.75827e-08
3.75794e-08
3.75715e-08
3.75675e-08
3.75573e-08
3.7558e-08
3.75612e-08
3.75892e-08
3.76573e-08
3.78672e-08
3.82937e-08
3.9366e-08
)
;

boundaryField
{
    fuel
    {
        type            fixedValue;
        value           nonuniform 0();
    }
    wall
    {
        type            zeroGradient;
    }
    outlet
    {
        type            zeroGradient;
    }
    frontAndBack
    {
        type            empty;
    }
    procBoundary1to0
    {
        type            processor;
        value           nonuniform List<scalar> 
21
(
4.30608e-08
3.20898e-08
2.75256e-08
2.64041e-08
2.61032e-08
2.60859e-08
2.60483e-08
2.61359e-08
2.61141e-08
2.61642e-08
2.84666e-08
2.84666e-08
2.81717e-08
2.84777e-08
2.80545e-08
2.84234e-08
2.80237e-08
2.85641e-08
2.96853e-08
3.56527e-08
6.25127e-08
)
;
    }
}


// ************************************************************************* //
