/*--------------------------------*- C++ -*----------------------------------*\
| =========                 |                                                 |
| \\      /  F ield         | OpenFOAM: The Open Source CFD Toolbox           |
|  \\    /   O peration     | Version:  dev                                   |
|   \\  /    A nd           | Web:      www.OpenFOAM.org                      |
|    \\/     M anipulation  |                                                 |
\*---------------------------------------------------------------------------*/
FoamFile
{
    version     2.0;
    format      ascii;
    class       volScalarField;
    location    "0.11";
    object      CH2OH;
}
// * * * * * * * * * * * * * * * * * * * * * * * * * * * * * * * * * * * * * //

dimensions      [0 0 0 0 0 0 0];

internalField   nonuniform List<scalar> 
50
(
1.88268e-11
1.49347e-11
1.18848e-11
9.49239e-12
7.61383e-12
6.13693e-12
4.97403e-12
4.05663e-12
3.33129e-12
2.75635e-12
2.29939e-12
1.93517e-12
1.64401e-12
1.41058e-12
1.22288e-12
1.0715e-12
9.49051e-13
8.49688e-13
7.688e-13
7.02726e-13
6.48553e-13
6.03962e-13
5.67098e-13
5.36479e-13
5.10918e-13
4.89461e-13
4.71342e-13
4.55945e-13
4.42774e-13
4.31426e-13
4.21579e-13
4.1297e-13
4.05385e-13
3.98652e-13
3.9263e-13
3.87205e-13
3.82283e-13
3.77788e-13
3.73658e-13
3.69843e-13
3.663e-13
3.62994e-13
3.59894e-13
3.57046e-13
3.54353e-13
3.51764e-13
3.49319e-13
3.47011e-13
3.44833e-13
3.42789e-13
)
;

boundaryField
{
    wall
    {
        type            zeroGradient;
    }
    fuel
    {
        type            fixedValue;
        value           nonuniform 0();
    }
    outlet
    {
        type            inletOutlet;
        inletValue      nonuniform 0();
        value           nonuniform 0();
    }
    procBoundary1to0
    {
        type            processor;
        value           uniform 2.38275e-11;
    }
    procBoundary1to2
    {
        type            processor;
        value           uniform 3.40838e-13;
    }
}


// ************************************************************************* //
