/*--------------------------------*- C++ -*----------------------------------*\
| =========                 |                                                 |
| \\      /  F ield         | OpenFOAM: The Open Source CFD Toolbox           |
|  \\    /   O peration     | Version:  dev                                   |
|   \\  /    A nd           | Web:      www.OpenFOAM.org                      |
|    \\/     M anipulation  |                                                 |
\*---------------------------------------------------------------------------*/
FoamFile
{
    version     2.0;
    format      ascii;
    class       volScalarField;
    location    "0.11";
    object      CH3OH;
}
// * * * * * * * * * * * * * * * * * * * * * * * * * * * * * * * * * * * * * //

dimensions      [0 0 0 0 0 0 0];

internalField   nonuniform List<scalar> 
50
(
9.02659e-12
7.23292e-12
5.8105e-12
4.681e-12
3.783e-12
3.06805e-12
2.49792e-12
2.04237e-12
1.67755e-12
1.38466e-12
1.14888e-12
9.58559e-13
8.04521e-13
6.79519e-13
5.77825e-13
4.94899e-13
4.27125e-13
3.71619e-13
3.26069e-13
2.8862e-13
2.57774e-13
2.32325e-13
2.11294e-13
1.93888e-13
1.79461e-13
1.67491e-13
1.57549e-13
1.49286e-13
1.42416e-13
1.36707e-13
1.31967e-13
1.28037e-13
1.24788e-13
1.22112e-13
1.19922e-13
1.18144e-13
1.16717e-13
1.1559e-13
1.14722e-13
1.14078e-13
1.13629e-13
1.1335e-13
1.13221e-13
1.13227e-13
1.1335e-13
1.13582e-13
1.13913e-13
1.14336e-13
1.14847e-13
1.1545e-13
)
;

boundaryField
{
    wall
    {
        type            zeroGradient;
    }
    fuel
    {
        type            fixedValue;
        value           nonuniform 0();
    }
    outlet
    {
        type            inletOutlet;
        inletValue      nonuniform 0();
        value           nonuniform 0();
    }
    procBoundary1to0
    {
        type            processor;
        value           uniform 1.13021e-11;
    }
    procBoundary1to2
    {
        type            processor;
        value           uniform 1.16105e-13;
    }
}


// ************************************************************************* //
