/*--------------------------------*- C++ -*----------------------------------*\
| =========                 |                                                 |
| \\      /  F ield         | OpenFOAM: The Open Source CFD Toolbox           |
|  \\    /   O peration     | Version:  dev                                   |
|   \\  /    A nd           | Web:      www.OpenFOAM.org                      |
|    \\/     M anipulation  |                                                 |
\*---------------------------------------------------------------------------*/
FoamFile
{
    version     2.0;
    format      ascii;
    class       volScalarField;
    location    "0.11";
    object      dQ;
}
// * * * * * * * * * * * * * * * * * * * * * * * * * * * * * * * * * * * * * //

dimensions      [1 2 -3 0 0 0 0];

internalField   nonuniform List<scalar> 
250
(
0.00320118
0.00357671
0.00343653
0.00351533
0.00344401
0.00336897
0.00341535
0.00332836
0.00339428
0.00332904
0.00302934
0.00334056
0.00311797
0.00318201
0.00310311
0.00302573
0.00307451
0.00298351
0.00305422
0.00298363
0.00300622
0.00302106
0.00300582
0.00303159
0.00304051
0.00304236
0.00315324
0.00312213
0.00311856
0.00289256
0.0027903
0.00302409
0.00278009
0.00282759
0.00275586
0.0026862
0.00273121
0.00264915
0.00271411
0.00264899
0.00266907
0.00268242
0.00266892
0.00269167
0.00270127
0.00270377
0.00280356
0.00278577
0.00282424
0.0026849
0.00257423
0.00273896
0.00252471
0.00255869
0.00250293
0.00244526
0.00248392
0.00241679
0.0024709
0.00241643
0.00243193
0.00244248
0.00243179
0.00244978
0.0024609
0.00246323
0.00254143
0.00252996
0.00258075
0.0025025
0.00245051
0.00257139
0.00240911
0.00242748
0.00238543
0.00234857
0.00236994
0.00232799
0.00235966
0.00232752
0.00233864
0.00234647
0.0023384
0.00235214
0.00235279
0.00235468
0.00241525
0.00241308
0.00245754
0.00241169
0.0024437
0.00254989
0.00243049
0.00244527
0.00241313
0.00238309
0.00239984
0.0023665
0.0023911
0.00236576
0.00237454
0.00238087
0.00237426
0.00238572
0.0023862
0.00238781
0.00243621
0.00243371
0.00246818
0.00242381
0.0025313
0.00264301
0.00253612
0.00255185
0.00252124
0.00249058
0.00250771
0.00247305
0.00249879
0.00247209
0.00248152
0.00248801
0.00248134
0.00249269
0.00249357
0.00249527
0.00254327
0.00253986
0.00257287
0.00253152
0.00264873
0.00277177
0.00263519
0.00265479
0.00261716
0.00257812
0.00260159
0.0025546
0.00259124
0.00255364
0.00256712
0.00257553
0.00256728
0.00258027
0.00258275
0.00258492
0.00264456
0.00264133
0.00268883
0.00265898
0.00266024
0.00278653
0.00257685
0.00260186
0.00255037
0.00249755
0.00253257
0.00246428
0.0025205
0.0024638
0.00248415
0.00249574
0.00248497
0.00250033
0.0025058
0.00250867
0.00258859
0.0025877
0.00266652
0.00266752
0.00234566
0.00245442
0.0021802
0.00220748
0.00214739
0.00208702
0.00213032
0.00204799
0.00211843
0.00204829
0.00207333
0.0020867
0.00207482
0.0020904
0.00209863
0.00210174
0.00219282
0.00219506
0.0022995
0.00233981
0.00165664
0.00172324
0.00147298
0.00149311
0.00144274
0.00139152
0.00143038
0.00135815
0.0014216
0.00135904
0.00138121
0.00139262
0.00138295
0.00139482
0.00140313
0.00140566
0.0014819
0.00148613
0.00158192
0.00163926
0.00079823
0.000817731
0.000677184
0.000684919
0.000658874
0.000631312
0.000652999
0.000613565
0.000648865
0.000614326
0.000626421
0.00063265
0.000627669
0.000633435
0.000638466
0.000639855
0.000679979
0.000683867
0.000738683
0.000781162
0.0002448
0.000242695
0.000204104
0.000204147
0.00019782
0.000189433
0.000196009
0.000184472
0.000194836
0.000184754
0.000188233
0.00019014
0.000188735
0.000190302
0.000191892
0.000192329
0.000203588
0.000205051
0.000221405
0.000235806
)
;

boundaryField
{
    fuel
    {
        type            calculated;
        value           nonuniform 0();
    }
    wall
    {
        type            calculated;
        value           uniform 0;
    }
    outlet
    {
        type            calculated;
        value           uniform 0;
    }
    frontAndBack
    {
        type            empty;
    }
    procBoundary1to0
    {
        type            processor;
        value           uniform 0;
    }
}


// ************************************************************************* //
