/*--------------------------------*- C++ -*----------------------------------*\
| =========                 |                                                 |
| \\      /  F ield         | OpenFOAM: The Open Source CFD Toolbox           |
|  \\    /   O peration     | Version:  dev                                   |
|   \\  /    A nd           | Web:      www.OpenFOAM.org                      |
|    \\/     M anipulation  |                                                 |
\*---------------------------------------------------------------------------*/
FoamFile
{
    version     2.0;
    format      ascii;
    class       volScalarField;
    location    "0.11";
    object      HO2;
}
// * * * * * * * * * * * * * * * * * * * * * * * * * * * * * * * * * * * * * //

dimensions      [0 0 0 0 0 0 0];

internalField   nonuniform List<scalar> 
250
(
1.20256e-10
8.05566e-12
1.22487e-12
8.86754e-13
8.54449e-13
8.33883e-13
8.38653e-13
8.20296e-13
8.29102e-13
8.23078e-13
7.79257e-11
5.6084e-12
7.87047e-13
5.34847e-13
5.13153e-13
5.00847e-13
5.0405e-13
4.92841e-13
4.98199e-13
4.94473e-13
4.82212e-13
5.17497e-13
4.76777e-13
5.34241e-13
4.85002e-13
5.61361e-13
5.4908e-13
1.02849e-12
9.096e-12
8.67643e-11
5.07499e-11
3.9196e-12
5.15245e-13
3.29518e-13
3.15152e-13
3.08214e-13
3.10262e-13
3.03632e-13
3.06854e-13
3.04535e-13
2.97546e-13
3.17942e-13
2.94472e-13
3.27447e-13
2.99131e-13
3.42936e-13
3.43004e-13
7.88482e-13
8.43657e-12
7.91665e-11
3.33345e-11
2.76594e-12
3.53682e-13
2.16916e-13
2.07136e-13
2.0341e-13
2.04696e-13
2.00652e-13
2.02775e-13
2.01122e-13
1.97187e-13
2.08965e-13
1.95491e-13
2.1436e-13
1.98134e-13
2.23278e-13
2.30015e-13
6.39154e-13
7.71259e-12
7.10892e-11
2.22029e-11
1.97746e-12
2.59772e-13
1.57303e-13
1.5086e-13
1.48562e-13
1.48785e-13
1.46998e-13
1.47761e-13
1.47228e-13
1.44924e-13
1.51236e-13
1.43967e-13
1.54534e-13
1.4557e-13
1.60832e-13
1.69903e-13
5.4302e-13
6.96438e-12
6.32124e-11
1.5099e-11
1.45055e-12
2.05526e-13
1.27483e-13
1.22439e-13
1.21048e-13
1.2107e-13
1.19852e-13
1.20469e-13
1.19936e-13
1.1846e-13
1.22561e-13
1.17889e-13
1.24765e-13
1.1899e-13
1.29288e-13
1.39482e-13
4.77579e-13
6.24384e-12
5.58057e-11
1.05553e-11
1.09719e-12
1.7462e-13
1.13387e-13
1.09099e-13
1.08121e-13
1.08068e-13
1.07107e-13
1.07648e-13
1.0709e-13
1.0604e-13
1.09057e-13
1.05678e-13
1.10702e-13
1.06543e-13
1.14359e-13
1.24625e-13
4.31453e-13
5.5964e-12
4.96523e-11
7.63252e-12
8.64564e-13
1.59874e-13
1.0997e-13
1.0599e-13
1.05236e-13
1.0511e-13
1.04272e-13
1.0478e-13
1.04151e-13
1.03374e-13
1.05781e-13
1.03164e-13
1.07107e-13
1.03918e-13
1.10335e-13
1.20345e-13
4.01196e-13
5.05278e-12
4.48585e-11
5.7802e-12
7.31456e-13
1.63968e-13
1.20513e-13
1.16313e-13
1.15777e-13
1.15472e-13
1.14741e-13
1.15251e-13
1.1443e-13
1.13998e-13
1.15756e-13
1.14029e-13
1.16801e-13
1.1473e-13
1.19803e-13
1.29936e-13
3.93068e-13
4.65466e-12
4.17363e-11
4.80819e-12
7.29895e-13
2.08826e-13
1.63766e-13
1.58025e-13
1.57797e-13
1.56989e-13
1.56388e-13
1.57016e-13
1.55576e-13
1.55851e-13
1.56493e-13
1.56461e-13
1.57127e-13
1.57221e-13
1.60118e-13
1.71816e-13
4.33375e-13
4.50823e-12
4.12162e-11
4.76672e-12
9.40914e-13
3.36465e-13
2.72112e-13
2.61438e-13
2.61094e-13
2.59369e-13
2.58437e-13
2.59718e-13
2.56468e-13
2.57695e-13
2.57876e-13
2.59244e-13
2.58213e-13
2.60572e-13
2.62194e-13
2.76679e-13
5.58667e-13
4.64343e-12
4.36759e-11
5.4258e-12
1.34637e-12
5.43025e-13
4.37501e-13
4.17842e-13
4.16035e-13
4.1343e-13
4.10994e-13
4.13841e-13
4.0726e-13
4.08913e-13
4.11735e-13
4.11237e-13
4.12518e-13
4.13973e-13
4.19274e-13
4.34517e-13
7.37608e-13
4.63937e-12
4.48491e-11
6.32146e-12
1.75446e-12
7.3778e-13
5.88672e-13
5.60177e-13
5.56352e-13
5.53256e-13
5.48891e-13
5.53505e-13
5.43527e-13
5.45035e-13
5.52139e-13
5.47705e-13
5.53803e-13
5.51995e-13
5.63763e-13
5.77545e-13
8.93787e-13
4.49042e-12
4.41227e-11
)
;

boundaryField
{
    fuel
    {
        type            fixedValue;
        value           nonuniform 0();
    }
    wall
    {
        type            zeroGradient;
    }
    outlet
    {
        type            zeroGradient;
    }
    frontAndBack
    {
        type            empty;
    }
    procBoundary1to0
    {
        type            processor;
        value           nonuniform List<scalar> 
21
(
1.88722e-10
1.16847e-11
1.89794e-12
1.44935e-12
1.40419e-12
1.37185e-12
1.37858e-12
1.35013e-12
1.36389e-12
1.35462e-12
8.0257e-13
8.0257e-13
8.61036e-13
7.9353e-13
8.89209e-13
8.0778e-13
9.34865e-13
9.03452e-13
1.40141e-12
9.40074e-12
8.94838e-11
)
;
    }
}


// ************************************************************************* //
