/*--------------------------------*- C++ -*----------------------------------*\
| =========                 |                                                 |
| \\      /  F ield         | OpenFOAM: The Open Source CFD Toolbox           |
|  \\    /   O peration     | Version:  dev                                   |
|   \\  /    A nd           | Web:      www.OpenFOAM.org                      |
|    \\/     M anipulation  |                                                 |
\*---------------------------------------------------------------------------*/
FoamFile
{
    version     2.0;
    format      ascii;
    class       volScalarField;
    location    "0.11";
    object      P2-H;
}
// * * * * * * * * * * * * * * * * * * * * * * * * * * * * * * * * * * * * * //

dimensions      [0 0 0 0 0 0 0];

internalField   nonuniform List<scalar> 
250
(
1.69155e-16
1.07949e-16
8.65399e-17
7.88909e-17
7.66446e-17
7.58841e-17
7.58701e-17
7.57185e-17
7.58804e-17
7.59285e-17
1.37787e-16
9.48531e-17
7.9227e-17
7.29052e-17
7.09931e-17
7.02741e-17
7.02933e-17
7.00808e-17
7.02546e-17
7.02705e-17
6.98749e-17
7.06151e-17
6.9601e-17
7.09073e-17
6.98402e-17
7.19432e-17
7.30462e-17
8.09323e-17
1.15249e-16
3.01284e-16
1.12607e-16
8.26352e-17
7.14119e-17
6.62688e-17
6.46632e-17
6.40065e-17
6.40602e-17
6.38017e-17
6.39841e-17
6.39701e-17
6.35622e-17
6.44128e-17
6.3297e-17
6.47457e-17
6.35418e-17
6.57017e-17
6.6372e-17
7.27642e-17
9.80297e-17
2.22884e-16
9.25415e-17
7.16539e-17
6.36864e-17
5.95732e-17
5.82302e-17
5.76577e-17
5.77481e-17
5.74462e-17
5.76514e-17
5.75936e-17
5.71937e-17
5.81061e-17
5.69448e-17
5.84498e-17
5.71805e-17
5.92899e-17
5.96412e-17
6.47507e-17
8.29392e-17
1.65115e-16
7.67048e-17
6.20394e-17
5.65117e-17
5.31632e-17
5.21506e-17
5.16308e-17
5.16502e-17
5.1456e-17
5.1564e-17
5.15849e-17
5.12062e-17
5.20038e-17
5.09762e-17
5.23526e-17
5.11939e-17
5.31857e-17
5.32084e-17
5.73629e-17
7.02281e-17
1.23586e-16
6.43634e-17
5.40429e-17
5.01945e-17
4.75393e-17
4.67244e-17
4.6289e-17
4.63122e-17
4.61209e-17
4.62407e-17
4.62324e-17
4.58812e-17
4.66418e-17
4.56716e-17
4.69733e-17
4.58681e-17
4.77111e-17
4.75721e-17
5.08967e-17
5.98738e-17
9.34297e-17
5.49139e-17
4.75815e-17
4.49136e-17
4.28122e-17
4.2154e-17
4.1789e-17
4.18228e-17
4.16364e-17
4.17583e-17
4.17321e-17
4.14111e-17
4.2123e-17
4.12223e-17
4.24305e-17
4.13972e-17
4.30815e-17
4.28272e-17
4.55184e-17
5.17199e-17
7.27909e-17
4.8104e-17
4.28687e-17
4.10218e-17
3.93869e-17
3.8856e-17
3.85622e-17
3.85996e-17
3.84278e-17
3.85402e-17
3.85081e-17
3.82278e-17
3.88584e-17
3.80655e-17
3.91322e-17
3.82158e-17
3.96984e-17
3.93839e-17
4.15638e-17
4.57826e-17
5.88721e-17
4.54611e-17
4.19412e-17
4.06207e-17
3.95495e-17
3.91459e-17
3.89776e-17
3.89806e-17
3.88768e-17
3.89546e-17
3.89353e-17
3.87583e-17
3.91267e-17
3.86643e-17
3.93198e-17
3.87658e-17
3.97598e-17
3.95464e-17
4.11115e-17
4.37242e-17
5.17989e-17
6.00265e-17
5.89243e-17
5.75941e-17
5.79034e-17
5.76594e-17
5.79117e-17
5.77016e-17
5.78977e-17
5.78548e-17
5.78972e-17
5.81076e-17
5.7392e-17
5.8282e-17
5.7298e-17
5.82288e-17
5.74349e-17
5.79614e-17
5.80939e-17
5.84426e-17
6.36311e-17
1.86655e-16
1.90898e-16
1.86616e-16
1.91237e-16
1.90529e-16
1.92316e-16
1.91138e-16
1.92325e-16
1.92039e-16
1.92096e-16
1.93587e-16
1.89197e-16
1.94743e-16
1.88239e-16
1.94263e-16
1.88094e-16
1.91072e-16
1.88737e-16
1.82645e-16
1.89631e-16
1.22268e-15
1.22975e-15
1.19627e-15
1.2121e-15
1.20045e-15
1.20767e-15
1.20189e-15
1.20483e-15
1.20589e-15
1.20332e-15
1.20776e-15
1.19556e-15
1.21208e-15
1.19374e-15
1.21108e-15
1.20103e-15
1.20357e-15
1.22323e-15
1.18896e-15
1.24862e-15
1.27278e-14
1.2604e-14
1.21973e-14
1.22478e-14
1.20726e-14
1.21127e-14
1.20684e-14
1.20622e-14
1.20951e-14
1.20471e-14
1.20522e-14
1.20537e-14
1.207e-14
1.20704e-14
1.20725e-14
1.2213e-14
1.2089e-14
1.25983e-14
1.2281e-14
1.31646e-14
)
;

boundaryField
{
    fuel
    {
        type            fixedValue;
        value           nonuniform 0();
    }
    wall
    {
        type            zeroGradient;
    }
    outlet
    {
        type            zeroGradient;
    }
    frontAndBack
    {
        type            empty;
    }
    procBoundary1to0
    {
        type            processor;
        value           nonuniform List<scalar> 
21
(
2.08713e-16
1.2157e-16
9.27752e-17
8.36353e-17
8.10439e-17
8.02616e-17
8.02145e-17
8.01415e-17
8.02835e-17
8.03698e-17
7.55705e-17
7.55705e-17
7.61362e-17
7.52995e-17
7.63526e-17
7.55166e-17
7.74249e-17
7.90678e-17
8.86334e-17
1.34156e-16
4.03521e-16
)
;
    }
}


// ************************************************************************* //
