/*--------------------------------*- C++ -*----------------------------------*\
| =========                 |                                                 |
| \\      /  F ield         | OpenFOAM: The Open Source CFD Toolbox           |
|  \\    /   O peration     | Version:  dev                                   |
|   \\  /    A nd           | Web:      www.OpenFOAM.org                      |
|    \\/     M anipulation  |                                                 |
\*---------------------------------------------------------------------------*/
FoamFile
{
    version     2.0;
    format      ascii;
    class       volScalarField;
    location    "0.11";
    object      T;
}
// * * * * * * * * * * * * * * * * * * * * * * * * * * * * * * * * * * * * * //

dimensions      [0 0 0 1 0 0 0];

internalField   nonuniform List<scalar> 
250
(
1748.89
1757.32
1765
1760.2
1758.11
1756.31
1756.8
1755.17
1755.94
1755.37
1714.56
1717.85
1723.61
1717.8
1715.42
1713.46
1714.08
1712.26
1713.13
1712.48
1710.55
1716.14
1709.66
1718.38
1710.97
1721.71
1718.19
1725.99
1732.67
1721.52
1673.66
1672.51
1676.58
1669.9
1667.26
1665.16
1665.95
1663.91
1664.93
1664.15
1662.06
1668.18
1661.07
1670.49
1662.42
1673.85
1670.12
1678.94
1687.48
1679.67
1625.56
1620.66
1623.28
1615.88
1613.01
1610.86
1611.8
1609.5
1610.75
1609.77
1607.54
1614.18
1606.44
1616.53
1607.81
1619.86
1615.99
1625.63
1635.73
1631.22
1569.52
1561.19
1562.95
1554.38
1551.95
1549.46
1550.05
1548.33
1549.05
1548.63
1546.27
1552.62
1545.05
1555.06
1546.44
1558.99
1554.36
1565.29
1576.64
1575.26
1504.7
1493.92
1494.76
1485.76
1483.25
1480.77
1481.46
1479.59
1480.49
1479.9
1477.44
1484.14
1476.12
1486.57
1477.49
1490.41
1485.62
1497.08
1509.27
1509.44
1430.05
1417.49
1417.66
1408.41
1405.93
1403.41
1404.24
1402.26
1403.25
1402.59
1400.07
1407
1398.66
1409.39
1399.99
1413.08
1408.1
1419.92
1432.54
1434.77
1344.25
1330.61
1330.36
1321.08
1318.71
1316.18
1317.14
1315.12
1316.12
1315.45
1312.92
1319.94
1311.45
1322.24
1312.71
1325.71
1320.59
1332.5
1345.1
1348.99
1245.59
1231.6
1231.15
1222.12
1219.96
1217.47
1218.51
1216.52
1217.49
1216.85
1214.38
1221.29
1212.88
1223.46
1214.06
1226.63
1221.47
1233.11
1245.21
1250.34
1131.66
1118.16
1117.71
1109.26
1107.41
1105.05
1106.1
1104.23
1105.12
1104.55
1102.23
1108.76
1100.77
1110.72
1101.81
1113.51
1108.53
1119.41
1130.48
1136.24
998.84
986.807
986.497
979.087
977.646
975.531
976.526
974.892
975.64
975.178
973.132
978.899
971.799
980.577
972.671
982.866
978.38
987.831
997.314
1002.92
841.118
831.784
831.713
825.99
825.052
823.379
824.196
822.952
823.495
823.177
821.601
826.049
820.535
827.313
821.175
828.947
825.456
832.557
839.737
844.217
645.445
640.715
640.864
637.95
637.61
636.735
637.175
636.566
636.811
636.682
635.899
638.107
635.348
638.724
635.659
639.455
637.769
641.086
644.768
646.867
)
;

boundaryField
{
    fuel
    {
        type            fixedValue;
        value           nonuniform 0();
    }
    wall
    {
        type            fixedValue;
        value           uniform 511;
    }
    outlet
    {
        type            inletOutlet;
        inletValue      uniform 353;
        value           nonuniform List<scalar> 
25
(
1748.91
1714.57
1673.65
1625.54
1569.49
1504.66
1430
1344.2
1245.53
1131.61
998.797
841.085
645.428
1721.47
1679.69
1631.29
1575.38
1509.61
1434.9
1349.13
1250.49
1136.39
1003.06
844.319
646.917
)
;
    }
    frontAndBack
    {
        type            empty;
    }
    procBoundary1to0
    {
        type            processor;
        value           nonuniform List<scalar> 
21
(
1777.21
1791.49
1801.34
1797.65
1795.88
1794.25
1794.63
1793.18
1793.86
1793.36
1753.59
1753.59
1758.68
1752.8
1760.82
1754.05
1764.06
1760.74
1767.45
1772.01
1757.51
)
;
    }
}


// ************************************************************************* //
