/*--------------------------------*- C++ -*----------------------------------*\
| =========                 |                                                 |
| \\      /  F ield         | OpenFOAM: The Open Source CFD Toolbox           |
|  \\    /   O peration     | Version:  dev                                   |
|   \\  /    A nd           | Web:      www.OpenFOAM.org                      |
|    \\/     M anipulation  |                                                 |
\*---------------------------------------------------------------------------*/
FoamFile
{
    version     2.0;
    format      ascii;
    class       volScalarField;
    location    "0.075";
    object      A1C2H-;
}
// * * * * * * * * * * * * * * * * * * * * * * * * * * * * * * * * * * * * * //

dimensions      [0 0 0 0 0 0 0];

internalField   nonuniform List<scalar> 
25
(
1.11722e-18
9.05258e-19
7.28626e-19
5.76246e-19
4.51446e-19
3.45495e-19
2.5752e-19
1.85523e-19
1.279e-19
8.35026e-20
5.26441e-20
3.14306e-20
1.77401e-20
9.45431e-21
4.75897e-21
2.2673e-21
1.02642e-21
4.43611e-22
1.83723e-22
7.29666e-23
2.77418e-23
1.01444e-23
3.66862e-24
1.37363e-24
4.89206e-25
)
;

boundaryField
{
    wall
    {
        type            zeroGradient;
    }
    fuel
    {
        type            fixedValue;
        value           nonuniform 0();
    }
    outlet
    {
        type            inletOutlet;
        inletValue      uniform 0;
        value           uniform 4.89206e-25;
    }
    procBoundary3to2
    {
        type            processor;
        value           uniform 1.38746e-18;
    }
}


// ************************************************************************* //
