/*--------------------------------*- C++ -*----------------------------------*\
| =========                 |                                                 |
| \\      /  F ield         | OpenFOAM: The Open Source CFD Toolbox           |
|  \\    /   O peration     | Version:  dev                                   |
|   \\  /    A nd           | Web:      www.OpenFOAM.org                      |
|    \\/     M anipulation  |                                                 |
\*---------------------------------------------------------------------------*/
FoamFile
{
    version     2.0;
    format      ascii;
    class       volScalarField;
    location    "0.075";
    object      A2;
}
// * * * * * * * * * * * * * * * * * * * * * * * * * * * * * * * * * * * * * //

dimensions      [0 0 0 0 0 0 0];

internalField   nonuniform List<scalar> 
25
(
3.10022e-11
3.04177e-11
2.97654e-11
2.90453e-11
2.82368e-11
2.74e-11
2.64981e-11
2.55363e-11
2.44961e-11
2.34221e-11
2.22906e-11
2.11043e-11
1.98652e-11
1.85725e-11
1.72226e-11
1.57959e-11
1.43128e-11
1.27879e-11
1.11907e-11
9.67407e-12
8.02126e-12
6.35392e-12
4.51197e-12
2.73196e-12
1.27818e-12
)
;

boundaryField
{
    wall
    {
        type            zeroGradient;
    }
    fuel
    {
        type            fixedValue;
        value           nonuniform 0();
    }
    outlet
    {
        type            inletOutlet;
        inletValue      uniform 0;
        value           uniform 1.27818e-12;
    }
    procBoundary3to2
    {
        type            processor;
        value           uniform 3.15181e-11;
    }
}


// ************************************************************************* //
