/*--------------------------------*- C++ -*----------------------------------*\
| =========                 |                                                 |
| \\      /  F ield         | OpenFOAM: The Open Source CFD Toolbox           |
|  \\    /   O peration     | Version:  dev                                   |
|   \\  /    A nd           | Web:      www.OpenFOAM.org                      |
|    \\/     M anipulation  |                                                 |
\*---------------------------------------------------------------------------*/
FoamFile
{
    version     2.0;
    format      ascii;
    class       volScalarField;
    location    "0.075";
    object      i-C6H7;
}
// * * * * * * * * * * * * * * * * * * * * * * * * * * * * * * * * * * * * * //

dimensions      [0 0 0 0 0 0 0];

internalField   nonuniform List<scalar> 
25
(
3.4241e-20
2.87877e-20
2.3838e-20
1.93062e-20
1.54532e-20
1.21064e-20
9.27731e-21
6.91782e-21
4.98215e-21
3.43196e-21
2.29663e-21
1.46371e-21
8.83319e-22
5.01382e-22
2.65995e-22
1.3132e-22
6.03553e-23
2.60782e-23
1.084e-23
4.47578e-24
1.88695e-24
8.40387e-25
4.33265e-25
2.67846e-25
1.31607e-25
)
;

boundaryField
{
    wall
    {
        type            zeroGradient;
    }
    fuel
    {
        type            fixedValue;
        value           nonuniform 0();
    }
    outlet
    {
        type            inletOutlet;
        inletValue      uniform 0;
        value           uniform 1.31607e-25;
    }
    procBoundary3to2
    {
        type            processor;
        value           uniform 4.04079e-20;
    }
}


// ************************************************************************* //
