/*--------------------------------*- C++ -*----------------------------------*\
| =========                 |                                                 |
| \\      /  F ield         | OpenFOAM: The Open Source CFD Toolbox           |
|  \\    /   O peration     | Version:  dev                                   |
|   \\  /    A nd           | Web:      www.OpenFOAM.org                      |
|    \\/     M anipulation  |                                                 |
\*---------------------------------------------------------------------------*/
FoamFile
{
    version     2.0;
    format      ascii;
    class       volScalarField;
    location    "0.075";
    object      O;
}
// * * * * * * * * * * * * * * * * * * * * * * * * * * * * * * * * * * * * * //

dimensions      [0 0 0 0 0 0 0];

internalField   nonuniform List<scalar> 
25
(
1.59982e-08
1.28597e-08
1.02233e-08
7.97122e-09
6.17518e-09
4.70484e-09
3.5292e-09
2.59611e-09
1.86135e-09
1.29171e-09
8.82462e-10
5.83135e-10
3.71266e-10
2.26572e-10
1.31817e-10
7.27949e-11
3.81425e-11
1.91538e-11
9.49852e-12
4.90021e-12
2.76884e-12
1.74019e-12
1.17247e-12
7.66194e-13
3.76453e-13
)
;

boundaryField
{
    wall
    {
        type            zeroGradient;
    }
    fuel
    {
        type            fixedValue;
        value           nonuniform 0();
    }
    outlet
    {
        type            inletOutlet;
        inletValue      uniform 0;
        value           uniform 3.76453e-13;
    }
    procBoundary3to2
    {
        type            processor;
        value           uniform 1.98144e-08;
    }
}


// ************************************************************************* //
