/*--------------------------------*- C++ -*----------------------------------*\
| =========                 |                                                 |
| \\      /  F ield         | OpenFOAM: The Open Source CFD Toolbox           |
|  \\    /   O peration     | Version:  dev                                   |
|   \\  /    A nd           | Web:      www.OpenFOAM.org                      |
|    \\/     M anipulation  |                                                 |
\*---------------------------------------------------------------------------*/
FoamFile
{
    version     2.0;
    format      ascii;
    class       volScalarField;
    location    "0.1";
    object      CH2O;
}
// * * * * * * * * * * * * * * * * * * * * * * * * * * * * * * * * * * * * * //

dimensions      [0 0 0 0 0 0 0];

internalField   nonuniform List<scalar> 
12
(
1.21074e-08
1.07803e-08
9.64217e-09
8.6407e-09
7.78227e-09
7.04895e-09
6.43667e-09
5.91254e-09
5.46705e-09
5.10262e-09
4.80066e-09
4.55303e-09
)
;

boundaryField
{
    front
    {
        type            wedge;
    }
    back
    {
        type            wedge;
    }
    wall
    {
        type            zeroGradient;
    }
    fuel
    {
        type            fixedValue;
        value           nonuniform 0();
    }
    outlet
    {
        type            inletOutlet;
        inletValue      nonuniform 0();
        value           nonuniform 0();
    }
    axis
    {
        type            empty;
    }
    procBoundary4to3
    {
        type            processor;
        value           uniform 1.36278e-08;
    }
    procBoundary4to5
    {
        type            processor;
        value           uniform 4.35266e-09;
    }
}


// ************************************************************************* //
