/*--------------------------------*- C++ -*----------------------------------*\
| =========                 |                                                 |
| \\      /  F ield         | OpenFOAM: The Open Source CFD Toolbox           |
|  \\    /   O peration     | Version:  dev                                   |
|   \\  /    A nd           | Web:      www.OpenFOAM.org                      |
|    \\/     M anipulation  |                                                 |
\*---------------------------------------------------------------------------*/
FoamFile
{
    version     2.0;
    format      ascii;
    class       volVectorField;
    location    "0.05";
    object      U;
}
// * * * * * * * * * * * * * * * * * * * * * * * * * * * * * * * * * * * * * //

dimensions      [0 1 -1 0 0 0 0];

internalField   nonuniform List<vector> 
13
(
(-5.26568e-05 8.62582e-12 0.0417048)
(-5.33179e-05 8.58163e-12 0.0427817)
(-5.389e-05 8.51887e-12 0.0438136)
(-5.43937e-05 9.44828e-12 0.0448094)
(-5.48421e-05 1.03555e-11 0.0457942)
(-5.52443e-05 1.11921e-11 0.0467881)
(-5.56061e-05 1.20444e-11 0.0477904)
(-5.59318e-05 1.28858e-11 0.0488141)
(-5.62245e-05 1.36902e-11 0.0498534)
(-5.64867e-05 1.4561e-11 0.0509205)
(-5.67205e-05 1.51399e-11 0.0519949)
(-5.69273e-05 1.51625e-11 0.0530973)
(-5.71084e-05 1.43711e-11 0.0541939)
)
;

boundaryField
{
    front
    {
        type            wedge;
    }
    back
    {
        type            wedge;
    }
    wall
    {
        type            zeroGradient;
    }
    fuel
    {
        type            fixedValue;
        value           nonuniform 0();
    }
    outlet
    {
        type            pressureInletOutletVelocity;
        value           nonuniform 0();
    }
    axis
    {
        type            empty;
    }
    procBoundary1to0
    {
        type            processor;
        value           uniform (-5.18756e-05 8.55757e-12 0.0405325);
    }
    procBoundary1to2
    {
        type            processor;
        value           uniform (-5.72645e-05 1.3204e-11 0.0552982);
    }
}


// ************************************************************************* //
