/*--------------------------------*- C++ -*----------------------------------*\
| =========                 |                                                 |
| \\      /  F ield         | OpenFOAM: The Open Source CFD Toolbox           |
|  \\    /   O peration     | Version:  dev                                   |
|   \\  /    A nd           | Web:      www.OpenFOAM.org                      |
|    \\/     M anipulation  |                                                 |
\*---------------------------------------------------------------------------*/
FoamFile
{
    version     2.0;
    format      ascii;
    class       volScalarField;
    location    "0.08";
    object      A1-;
}
// * * * * * * * * * * * * * * * * * * * * * * * * * * * * * * * * * * * * * //

dimensions      [0 0 0 0 0 0 0];

internalField   nonuniform List<scalar> 
25
(
4.40429e-06
1.53751e-06
4.69883e-07
1.37177e-07
3.84367e-08
1.07766e-08
2.95871e-09
8.07883e-10
2.24303e-10
6.15766e-11
1.72695e-11
4.80728e-12
1.3501e-12
3.83756e-13
1.11184e-13
3.34069e-14
1.08302e-14
4.06978e-15
1.91098e-15
1.12643e-15
7.74826e-16
5.75757e-16
4.42081e-16
3.44059e-16
2.69405e-16
)
;

boundaryField
{
    wall
    {
        type            zeroGradient;
    }
    fuel
    {
        type            fixedValue;
        value           uniform 0;
    }
    outlet
    {
        type            inletOutlet;
        inletValue      nonuniform 0();
        value           nonuniform 0();
    }
    procBoundary0to1
    {
        type            processor;
        value           uniform 2.12515e-16;
    }
}


// ************************************************************************* //
