/*--------------------------------*- C++ -*----------------------------------*\
| =========                 |                                                 |
| \\      /  F ield         | OpenFOAM: The Open Source CFD Toolbox           |
|  \\    /   O peration     | Version:  dev                                   |
|   \\  /    A nd           | Web:      www.OpenFOAM.org                      |
|    \\/     M anipulation  |                                                 |
\*---------------------------------------------------------------------------*/
FoamFile
{
    version     2.0;
    format      ascii;
    class       volScalarField;
    location    "0.08";
    object      A3C2H;
}
// * * * * * * * * * * * * * * * * * * * * * * * * * * * * * * * * * * * * * //

dimensions      [0 0 0 0 0 0 0];

internalField   nonuniform List<scalar> 
25
(
6.26431e-13
1.60491e-13
4.18526e-14
1.10799e-14
2.92514e-15
8.0171e-16
2.29854e-16
7.33021e-17
2.78127e-17
1.24991e-17
6.64522e-18
3.94249e-18
2.55002e-18
1.75677e-18
1.2659e-18
9.39846e-19
7.10359e-19
5.41784e-19
4.14452e-19
3.16764e-19
2.4133e-19
1.83071e-19
1.38251e-19
1.03982e-19
7.79457e-20
)
;

boundaryField
{
    wall
    {
        type            zeroGradient;
    }
    fuel
    {
        type            fixedValue;
        value           uniform 0;
    }
    outlet
    {
        type            inletOutlet;
        inletValue      nonuniform 0();
        value           nonuniform 0();
    }
    procBoundary0to1
    {
        type            processor;
        value           uniform 5.8593e-20;
    }
}


// ************************************************************************* //
