/*--------------------------------*- C++ -*----------------------------------*\
| =========                 |                                                 |
| \\      /  F ield         | OpenFOAM: The Open Source CFD Toolbox           |
|  \\    /   O peration     | Version:  dev                                   |
|   \\  /    A nd           | Web:      www.OpenFOAM.org                      |
|    \\/     M anipulation  |                                                 |
\*---------------------------------------------------------------------------*/
FoamFile
{
    version     2.0;
    format      ascii;
    class       volScalarField;
    location    "0.08";
    object      C4H6;
}
// * * * * * * * * * * * * * * * * * * * * * * * * * * * * * * * * * * * * * //

dimensions      [0 0 0 0 0 0 0];

internalField   nonuniform List<scalar> 
25
(
6.23155e-09
2.39092e-09
8.3779e-10
2.91744e-10
1.03816e-10
4.1054e-11
1.57119e-11
6.37485e-12
2.77771e-12
1.24875e-12
5.83893e-13
2.74438e-13
1.30313e-13
6.2421e-14
3.02104e-14
1.4826e-14
7.41273e-15
3.79431e-15
1.9966e-15
1.08294e-15
6.05876e-16
3.49295e-16
2.07128e-16
1.26243e-16
7.93794e-17
)
;

boundaryField
{
    wall
    {
        type            zeroGradient;
    }
    fuel
    {
        type            fixedValue;
        value           uniform 0;
    }
    outlet
    {
        type            inletOutlet;
        inletValue      nonuniform 0();
        value           nonuniform 0();
    }
    procBoundary0to1
    {
        type            processor;
        value           uniform 5.08722e-17;
    }
}


// ************************************************************************* //
