/*--------------------------------*- C++ -*----------------------------------*\
| =========                 |                                                 |
| \\      /  F ield         | OpenFOAM: The Open Source CFD Toolbox           |
|  \\    /   O peration     | Version:  dev                                   |
|   \\  /    A nd           | Web:      www.OpenFOAM.org                      |
|    \\/     M anipulation  |                                                 |
\*---------------------------------------------------------------------------*/
FoamFile
{
    version     2.0;
    format      ascii;
    class       volScalarField;
    location    "0.115";
    object      A1C2H*;
}
// * * * * * * * * * * * * * * * * * * * * * * * * * * * * * * * * * * * * * //

dimensions      [0 0 0 0 0 0 0];

internalField   nonuniform List<scalar> 
250
(
1.19632e-09
6.53518e-07
6.57913e-07
6.52551e-07
6.52202e-07
6.51875e-07
6.51942e-07
6.52143e-07
6.52151e-07
7.3958e-10
6.99624e-07
5.69217e-07
5.55793e-07
5.54355e-07
5.53785e-07
5.53887e-07
5.53775e-07
5.53775e-07
3.87914e-10
5.21593e-07
3.74778e-07
3.60935e-07
3.59253e-07
3.5866e-07
3.58734e-07
3.58645e-07
3.586e-07
2.36391e-10
3.53282e-07
2.31931e-07
2.20385e-07
2.18764e-07
2.183e-07
2.18321e-07
2.18285e-07
2.18216e-07
1.59886e-10
2.34875e-07
1.45156e-07
1.36168e-07
1.34846e-07
1.34585e-07
1.34564e-07
1.34565e-07
1.34503e-07
1.14203e-10
1.58311e-07
9.47729e-08
8.79117e-08
8.59109e-08
8.53968e-08
8.53638e-08
8.5305e-08
8.54014e-08
9.07502e-11
1.10855e-07
6.51765e-08
5.99295e-08
5.80774e-08
5.76782e-08
5.76314e-08
5.75864e-08
5.77012e-08
8.81764e-11
8.17475e-08
4.71804e-08
4.31851e-08
4.13178e-08
4.09889e-08
4.09222e-08
4.09009e-08
4.10033e-08
1.11165e-10
6.09703e-08
3.58225e-08
3.21308e-08
3.06344e-08
3.03458e-08
3.02897e-08
3.02442e-08
3.04025e-08
2.16924e-10
4.5859e-08
2.73652e-08
2.43884e-08
2.37554e-08
2.35052e-08
2.34332e-08
2.33844e-08
2.35485e-08
4.51119e-10
3.68345e-08
2.21938e-08
1.97849e-08
1.90847e-08
1.87346e-08
1.86463e-08
1.877e-08
1.87828e-08
1.85706e-08
8.94546e-10
3.02046e-08
1.84793e-08
1.6166e-08
1.54645e-08
1.51238e-08
1.51925e-08
1.51446e-08
1.51714e-08
1.50223e-08
1.57166e-09
2.52218e-08
1.55534e-08
1.34982e-08
1.28602e-08
1.25237e-08
1.26438e-08
1.25265e-08
1.25722e-08
1.24608e-08
2.49564e-09
2.14536e-08
1.33751e-08
1.14904e-08
1.09222e-08
1.05895e-08
1.07487e-08
1.0574e-08
1.06384e-08
1.05488e-08
3.6866e-09
1.8632e-08
1.16975e-08
9.93145e-09
9.43241e-09
9.10517e-09
9.2693e-09
9.07298e-09
9.15368e-09
9.07669e-09
5.15599e-09
1.62174e-08
1.03598e-08
8.68751e-09
8.25261e-09
7.93382e-09
8.08688e-09
7.88633e-09
7.98108e-09
7.91197e-09
6.87486e-09
1.45478e-08
9.26004e-09
7.67111e-09
7.29394e-09
6.98706e-09
7.12498e-09
6.92412e-09
7.03229e-09
6.96877e-09
8.75411e-09
1.32265e-08
8.32954e-09
6.82414e-09
6.49809e-09
6.20647e-09
6.32999e-09
6.12502e-09
6.24911e-09
6.19021e-09
1.06789e-08
1.21563e-08
7.52129e-09
6.10649e-09
5.82587e-09
5.55244e-09
5.66357e-09
5.5302e-09
5.59226e-09
5.5375e-09
1.2544e-08
1.12725e-08
6.89025e-09
5.48933e-09
5.25015e-09
4.99726e-09
5.0966e-09
4.96688e-09
5.03374e-09
4.98339e-09
1.42627e-08
1.05289e-08
6.31044e-09
4.94965e-09
4.7515e-09
4.52087e-09
4.60878e-09
4.48126e-09
4.55369e-09
4.50804e-09
1.57543e-08
9.79778e-09
5.76044e-09
4.53306e-09
4.31497e-09
4.10779e-09
4.18461e-09
4.1057e-09
4.13676e-09
4.09608e-09
1.69396e-08
9.10334e-09
5.26609e-09
4.1714e-09
3.97429e-09
3.78744e-09
3.85522e-09
3.78318e-09
3.81331e-09
3.77649e-09
1.77443e-08
8.50383e-09
4.86738e-09
3.83873e-09
3.66505e-09
3.48926e-09
3.5524e-09
3.48342e-09
3.51372e-09
3.47902e-09
1.81083e-08
7.95296e-09
4.47654e-09
3.56121e-09
3.40456e-09
3.24675e-09
3.30225e-09
3.24016e-09
3.26843e-09
3.23731e-09
1.80052e-08
7.41418e-09
4.14869e-09
3.31372e-09
3.17634e-09
3.03517e-09
3.08386e-09
3.02817e-09
3.05437e-09
3.02646e-09
)
;

boundaryField
{
    fuel
    {
        type            fixedValue;
        value           uniform 0;
    }
    wall
    {
        type            zeroGradient;
    }
    outlet
    {
        type            zeroGradient;
    }
    frontAndBack
    {
        type            empty;
    }
    procBoundary2to0
    {
        type            processor;
        value           nonuniform List<scalar> 
12
(
3.25604e-09
1.7432e-08
6.85546e-09
3.84905e-09
3.09766e-09
2.97502e-09
2.84887e-09
2.89171e-09
2.84165e-09
2.86596e-09
3.04318e-09
2.84079e-09
)
;
    }
    procBoundary2to3
    {
        type            processor;
        value           nonuniform List<scalar> 
25
(
6.51824e-07
5.53866e-07
3.58756e-07
2.18366e-07
1.3462e-07
8.54054e-08
5.76661e-08
4.09451e-08
3.02341e-08
2.32989e-08
2.32989e-08
1.87501e-08
1.51298e-08
1.25273e-08
1.05933e-08
9.10999e-09
7.93956e-09
6.99317e-09
6.21223e-09
5.55714e-09
5.00024e-09
4.52147e-09
4.10523e-09
3.78104e-09
3.50003e-09
)
;
    }
}


// ************************************************************************* //
