/*--------------------------------*- C++ -*----------------------------------*\
| =========                 |                                                 |
| \\      /  F ield         | OpenFOAM: The Open Source CFD Toolbox           |
|  \\    /   O peration     | Version:  dev                                   |
|   \\  /    A nd           | Web:      www.OpenFOAM.org                      |
|    \\/     M anipulation  |                                                 |
\*---------------------------------------------------------------------------*/
FoamFile
{
    version     2.0;
    format      ascii;
    class       volScalarField;
    location    "0.115";
    object      A1C2H3*;
}
// * * * * * * * * * * * * * * * * * * * * * * * * * * * * * * * * * * * * * //

dimensions      [0 0 0 0 0 0 0];

internalField   nonuniform List<scalar> 
250
(
8.54799e-11
1.35572e-08
6.41754e-09
6.1262e-09
6.08122e-09
6.09244e-09
6.07909e-09
6.05382e-09
6.05538e-09
7.12349e-11
5.5155e-09
2.48775e-09
2.35949e-09
2.34454e-09
2.34474e-09
2.34269e-09
2.33764e-09
2.33809e-09
4.92497e-11
2.73314e-09
1.06194e-09
9.94598e-10
9.87362e-10
9.86186e-10
9.85981e-10
9.84861e-10
9.84873e-10
4.34689e-11
1.47274e-09
5.00047e-10
4.61038e-10
4.56534e-10
4.55626e-10
4.55626e-10
4.55387e-10
4.55263e-10
4.43489e-11
8.59335e-10
2.6203e-10
2.37522e-10
2.34649e-10
2.34239e-10
2.34203e-10
2.34191e-10
2.34056e-10
3.98701e-11
5.34516e-10
1.5541e-10
1.38664e-10
1.35024e-10
1.3421e-10
1.34156e-10
1.34071e-10
1.342e-10
4.05069e-11
3.51642e-10
1.02462e-10
9.02962e-11
8.71819e-11
8.65978e-11
8.65226e-11
8.64695e-11
8.66158e-11
5.14489e-11
2.44529e-10
7.31912e-11
6.40722e-11
6.10628e-11
6.0597e-11
6.04932e-11
6.04759e-11
6.06026e-11
6.9316e-11
1.71233e-10
5.55986e-11
4.76685e-11
4.52556e-11
4.48504e-11
4.47629e-11
4.4709e-11
4.49184e-11
9.78401e-11
1.21265e-10
4.28199e-11
3.64871e-11
3.53355e-11
3.4984e-11
3.48728e-11
3.48142e-11
3.50331e-11
1.27532e-10
9.27751e-11
3.50891e-11
2.99186e-11
2.86827e-11
2.81861e-11
2.80501e-11
2.82385e-11
2.8243e-11
2.79531e-11
1.30094e-10
7.26903e-11
2.95628e-11
2.47814e-11
2.35523e-11
2.30644e-11
2.31504e-11
2.30965e-11
2.31216e-11
2.29181e-11
1.01215e-10
5.82029e-11
2.52185e-11
2.0998e-11
1.9865e-11
1.93781e-11
1.95375e-11
1.93853e-11
1.94377e-11
1.92858e-11
6.81592e-11
4.77121e-11
2.19885e-11
1.81477e-11
1.71185e-11
1.6632e-11
1.68488e-11
1.66136e-11
1.66935e-11
1.65712e-11
4.67851e-11
4.02052e-11
1.95059e-11
1.59311e-11
1.50046e-11
1.45215e-11
1.47471e-11
1.44792e-11
1.45834e-11
1.44784e-11
3.64868e-11
3.4117e-11
1.75316e-11
1.41609e-11
1.333e-11
1.28552e-11
1.30664e-11
1.27907e-11
1.29162e-11
1.28219e-11
3.25178e-11
3.01171e-11
1.59161e-11
1.27154e-11
1.19713e-11
1.15106e-11
1.1701e-11
1.14231e-11
1.15693e-11
1.14827e-11
3.16451e-11
2.71325e-11
1.45575e-11
1.15146e-11
1.0848e-11
1.04072e-11
1.05773e-11
1.02922e-11
1.04625e-11
1.03825e-11
3.23368e-11
2.48718e-11
1.3387e-11
1.05036e-11
9.90657e-12
9.49103e-12
9.64326e-12
9.46026e-12
9.54218e-12
9.46846e-12
3.39399e-11
2.31413e-11
1.24866e-11
9.64368e-12
9.11035e-12
8.72469e-12
8.85934e-12
8.6825e-12
8.7707e-12
8.70394e-12
3.61458e-11
2.18037e-11
1.16727e-11
8.90454e-12
8.43373e-12
8.08184e-12
8.19872e-12
8.02664e-12
8.12187e-12
8.06291e-12
3.87321e-11
2.0602e-11
1.09156e-11
8.35246e-12
7.85827e-12
7.54336e-12
7.64219e-12
7.53937e-12
7.57673e-12
7.52639e-12
4.14673e-11
1.95542e-11
1.02551e-11
7.89467e-12
7.4313e-12
7.14995e-12
7.23306e-12
7.14419e-12
7.17737e-12
7.13448e-12
4.40864e-11
1.87216e-11
9.74832e-12
7.49992e-12
7.06967e-12
6.81228e-12
6.88399e-12
6.80547e-12
6.83515e-12
6.79835e-12
4.63069e-11
1.80027e-11
9.28042e-12
7.20382e-12
6.79717e-12
6.57314e-12
6.62922e-12
6.5664e-12
6.58937e-12
6.56086e-12
4.78829e-11
1.73311e-11
8.92452e-12
6.97977e-12
6.59709e-12
6.40657e-12
6.44695e-12
6.40051e-12
6.41577e-12
6.3959e-12
)
;

boundaryField
{
    fuel
    {
        type            fixedValue;
        value           uniform 0;
    }
    wall
    {
        type            zeroGradient;
    }
    outlet
    {
        type            zeroGradient;
    }
    frontAndBack
    {
        type            empty;
    }
    procBoundary2to0
    {
        type            processor;
        value           nonuniform List<scalar> 
12
(
6.58327e-12
4.85894e-11
1.66572e-11
8.6409e-12
6.83189e-12
6.46681e-12
6.30966e-12
6.33434e-12
6.3047e-12
6.31147e-12
6.41438e-12
6.3005e-12
)
;
    }
    procBoundary2to3
    {
        type            processor;
        value           nonuniform List<scalar> 
25
(
6.083e-09
2.34342e-09
9.86181e-10
4.55748e-10
2.34313e-10
1.34229e-10
8.65837e-11
6.05375e-11
4.46944e-11
3.46921e-11
3.46921e-11
2.82035e-11
2.30682e-11
1.93789e-11
1.66338e-11
1.45255e-11
1.28614e-11
1.15181e-11
1.0415e-11
9.49787e-12
8.72954e-12
8.08355e-12
7.54059e-12
7.14182e-12
6.82446e-12
)
;
    }
}


// ************************************************************************* //
