/*--------------------------------*- C++ -*----------------------------------*\
| =========                 |                                                 |
| \\      /  F ield         | OpenFOAM: The Open Source CFD Toolbox           |
|  \\    /   O peration     | Version:  dev                                   |
|   \\  /    A nd           | Web:      www.OpenFOAM.org                      |
|    \\/     M anipulation  |                                                 |
\*---------------------------------------------------------------------------*/
FoamFile
{
    version     2.0;
    format      ascii;
    class       volScalarField;
    location    "0.115";
    object      A2C2HB;
}
// * * * * * * * * * * * * * * * * * * * * * * * * * * * * * * * * * * * * * //

dimensions      [0 0 0 0 0 0 0];

internalField   nonuniform List<scalar> 
50
(
2.27737e-20
2.08529e-20
1.91186e-20
1.75515e-20
1.61346e-20
1.48529e-20
1.37067e-20
1.26578e-20
1.1707e-20
1.08452e-20
1.00635e-20
9.36213e-21
8.71831e-21
8.13822e-21
7.60703e-21
7.12497e-21
6.6847e-21
6.282e-21
5.91106e-21
5.57247e-21
5.25744e-21
4.96708e-21
4.70243e-21
4.45773e-21
4.231e-21
4.02025e-21
3.8218e-21
3.639e-21
3.46807e-21
3.30788e-21
3.15741e-21
3.01576e-21
2.88216e-21
2.7552e-21
2.63568e-21
2.5218e-21
2.41427e-21
2.31093e-21
2.2138e-21
2.12053e-21
2.03142e-21
1.94665e-21
1.86606e-21
1.7895e-21
1.71683e-21
1.64895e-21
1.58472e-21
1.52402e-21
1.46669e-21
1.41272e-21
)
;

boundaryField
{
    wall
    {
        type            zeroGradient;
    }
    fuel
    {
        type            fixedValue;
        value           nonuniform 0();
    }
    outlet
    {
        type            inletOutlet;
        inletValue      nonuniform 0();
        value           nonuniform 0();
    }
    procBoundary2to1
    {
        type            processor;
        value           uniform 2.48908e-20;
    }
    procBoundary2to3
    {
        type            processor;
        value           uniform 1.362e-21;
    }
}


// ************************************************************************* //
