/*--------------------------------*- C++ -*----------------------------------*\
| =========                 |                                                 |
| \\      /  F ield         | OpenFOAM: The Open Source CFD Toolbox           |
|  \\    /   O peration     | Version:  dev                                   |
|   \\  /    A nd           | Web:      www.OpenFOAM.org                      |
|    \\/     M anipulation  |                                                 |
\*---------------------------------------------------------------------------*/
FoamFile
{
    version     2.0;
    format      ascii;
    class       volScalarField;
    location    "0.115";
    object      A2C2HB;
}
// * * * * * * * * * * * * * * * * * * * * * * * * * * * * * * * * * * * * * //

dimensions      [0 0 0 0 0 0 0];

internalField   nonuniform List<scalar> 
250
(
1.51226e-09
9.46534e-08
6.05183e-08
5.81486e-08
5.79148e-08
5.78673e-08
5.78734e-08
5.78175e-08
5.783e-08
3.11783e-09
1.02759e-07
4.6109e-08
4.31239e-08
4.28346e-08
4.2771e-08
4.27799e-08
4.27437e-08
4.27548e-08
3.78613e-09
8.76283e-08
3.06731e-08
2.79377e-08
2.76587e-08
2.75964e-08
2.76009e-08
2.75807e-08
2.75856e-08
3.7922e-09
7.15101e-08
2.12757e-08
1.88887e-08
1.86236e-08
1.85693e-08
1.85681e-08
1.85573e-08
1.85582e-08
3.46543e-09
5.7343e-08
1.55361e-08
1.34754e-08
1.32298e-08
1.31876e-08
1.3182e-08
1.31764e-08
1.31767e-08
3.03367e-09
4.53018e-08
1.17797e-08
1.00195e-08
9.71579e-09
9.65295e-09
9.64536e-09
9.6367e-09
9.64916e-09
2.63074e-09
3.55728e-08
9.16571e-09
7.67928e-09
7.37411e-09
7.31854e-09
7.30902e-09
7.30221e-09
7.31724e-09
2.32043e-09
2.80166e-08
7.27219e-09
6.03442e-09
5.71405e-09
5.6642e-09
5.65193e-09
5.64836e-09
5.66253e-09
2.13371e-09
2.14318e-08
5.87158e-09
4.77205e-09
4.48707e-09
4.44163e-09
4.43005e-09
4.42434e-09
4.4456e-09
2.10142e-09
1.59477e-08
4.67216e-09
3.76256e-09
3.59351e-09
3.55361e-09
3.53945e-09
3.53398e-09
3.5565e-09
2.16711e-09
1.24104e-08
3.85769e-09
3.09935e-09
2.9242e-09
2.87011e-09
2.85325e-09
2.8743e-09
2.8743e-09
2.84244e-09
2.3015e-09
9.72393e-09
3.22531e-09
2.53515e-09
2.36336e-09
2.31126e-09
2.31921e-09
2.31456e-09
2.31578e-09
2.29278e-09
2.49468e-09
7.70577e-09
2.69851e-09
2.09551e-09
1.93764e-09
1.88701e-09
1.90367e-09
1.88839e-09
1.89195e-09
1.87479e-09
2.74199e-09
6.21614e-09
2.29326e-09
1.7538e-09
1.61136e-09
1.56216e-09
1.58555e-09
1.56119e-09
1.56735e-09
1.55388e-09
3.03685e-09
5.14538e-09
1.97782e-09
1.48558e-09
1.35871e-09
1.31113e-09
1.33536e-09
1.30783e-09
1.31638e-09
1.30523e-09
3.37439e-09
4.28233e-09
1.72831e-09
1.27323e-09
1.16102e-09
1.11535e-09
1.13751e-09
1.10984e-09
1.1205e-09
1.11086e-09
3.76087e-09
3.72572e-09
1.52805e-09
1.10358e-09
1.00471e-09
9.61281e-10
9.80588e-10
9.53452e-10
9.66176e-10
9.57635e-10
4.21052e-09
3.32163e-09
1.36431e-09
9.669e-10
8.79818e-10
8.38968e-10
8.55581e-10
8.28179e-10
8.43499e-10
8.35837e-10
4.74185e-09
3.02633e-09
1.22758e-09
8.5578e-10
7.79018e-10
7.41013e-10
7.55376e-10
7.38904e-10
7.45137e-10
7.38225e-10
5.36764e-09
2.81004e-09
1.12526e-09
7.64469e-10
6.96847e-10
6.61886e-10
6.74239e-10
6.58457e-10
6.65529e-10
6.59359e-10
6.08738e-09
2.65137e-09
1.0353e-09
6.88235e-10
6.29196e-10
5.97429e-10
6.07932e-10
5.92532e-10
6.00541e-10
5.95125e-10
6.88371e-09
2.51731e-09
9.535e-10
6.32161e-10
5.7292e-10
5.44468e-10
5.53229e-10
5.44218e-10
5.47017e-10
5.4238e-10
7.72277e-09
2.40692e-09
8.82951e-10
5.86039e-10
5.3138e-10
5.05841e-10
5.13163e-10
5.05223e-10
5.07907e-10
5.03908e-10
8.55578e-09
2.32222e-09
8.28629e-10
5.46246e-10
4.96081e-10
4.72494e-10
4.7883e-10
4.71642e-10
4.74221e-10
4.70713e-10
9.3234e-09
2.2501e-09
7.78131e-10
5.15822e-10
4.68899e-10
4.48163e-10
4.53118e-10
4.47232e-10
4.49342e-10
4.4654e-10
9.9642e-09
2.18173e-09
7.38867e-10
4.9208e-10
4.48169e-10
4.30375e-10
4.33903e-10
4.2946e-10
4.30939e-10
4.28912e-10
)
;

boundaryField
{
    fuel
    {
        type            fixedValue;
        value           uniform 0;
    }
    wall
    {
        type            zeroGradient;
    }
    outlet
    {
        type            zeroGradient;
    }
    frontAndBack
    {
        type            empty;
    }
    procBoundary2to0
    {
        type            processor;
        value           nonuniform List<scalar> 
12
(
4.48545e-10
1.04182e-08
2.10984e-09
7.06809e-10
4.75693e-10
4.33876e-10
4.19215e-10
4.21198e-10
4.18392e-10
4.19053e-10
4.30542e-10
4.1791e-10
)
;
    }
    procBoundary2to3
    {
        type            processor;
        value           nonuniform List<scalar> 
25
(
5.78651e-08
4.27759e-08
2.76005e-08
1.85701e-08
1.31858e-08
9.64922e-09
7.31306e-09
5.65498e-09
4.42314e-09
3.52085e-09
3.52085e-09
2.86961e-09
2.30973e-09
1.88537e-09
1.56075e-09
1.31007e-09
1.11465e-09
9.60852e-10
8.3869e-10
7.40765e-10
6.61557e-10
5.96904e-10
5.4361e-10
5.04517e-10
4.73078e-10
)
;
    }
}


// ************************************************************************* //
