/*--------------------------------*- C++ -*----------------------------------*\
| =========                 |                                                 |
| \\      /  F ield         | OpenFOAM: The Open Source CFD Toolbox           |
|  \\    /   O peration     | Version:  dev                                   |
|   \\  /    A nd           | Web:      www.OpenFOAM.org                      |
|    \\/     M anipulation  |                                                 |
\*---------------------------------------------------------------------------*/
FoamFile
{
    version     2.0;
    format      ascii;
    class       volScalarField;
    location    "0.115";
    object      A2R5-;
}
// * * * * * * * * * * * * * * * * * * * * * * * * * * * * * * * * * * * * * //

dimensions      [0 0 0 0 0 0 0];

internalField   nonuniform List<scalar> 
250
(
7.74465e-10
3.10742e-08
2.55248e-08
2.44046e-08
2.42421e-08
2.42188e-08
2.42024e-08
2.42409e-08
2.42244e-08
1.83231e-09
4.40259e-08
3.41195e-08
3.21809e-08
3.18924e-08
3.18552e-08
3.18281e-08
3.1863e-08
3.18659e-08
2.19989e-09
4.50982e-08
3.42771e-08
3.19878e-08
3.16439e-08
3.15962e-08
3.15608e-08
3.15974e-08
3.1603e-08
1.89151e-09
4.19102e-08
3.17254e-08
2.93206e-08
2.89592e-08
2.89004e-08
2.88593e-08
2.89062e-08
2.89097e-08
1.30106e-09
3.77059e-08
2.85876e-08
2.61568e-08
2.5801e-08
2.57243e-08
2.56843e-08
2.57416e-08
2.57385e-08
7.87067e-10
3.37172e-08
2.54405e-08
2.32287e-08
2.28979e-08
2.27956e-08
2.27691e-08
2.2818e-08
2.28087e-08
4.70613e-10
3.02668e-08
2.29158e-08
2.07224e-08
2.03545e-08
2.02823e-08
2.02002e-08
2.03068e-08
2.03271e-08
3.23873e-10
2.73338e-08
2.08206e-08
1.84732e-08
1.80269e-08
1.8029e-08
1.80187e-08
1.7956e-08
1.79741e-08
3.31126e-10
2.48193e-08
1.8827e-08
1.67367e-08
1.62987e-08
1.62778e-08
1.6247e-08
1.62187e-08
1.62307e-08
4.86243e-10
2.26375e-08
1.7323e-08
1.50863e-08
1.46407e-08
1.46072e-08
1.45861e-08
1.45602e-08
1.45692e-08
7.41286e-10
2.07234e-08
1.59594e-08
1.36197e-08
1.31801e-08
1.31336e-08
1.3117e-08
1.30936e-08
1.3101e-08
1.31048e-08
1.0982e-09
1.90366e-08
1.46766e-08
1.23582e-08
1.19141e-08
1.18599e-08
1.18389e-08
1.18214e-08
1.18286e-08
1.18328e-08
1.48604e-09
1.75535e-08
1.35512e-08
1.12638e-08
1.08138e-08
1.07547e-08
1.07208e-08
1.07151e-08
1.0723e-08
1.07278e-08
1.86804e-09
1.62568e-08
1.25477e-08
1.03059e-08
9.85303e-09
9.79102e-09
9.73365e-09
9.74812e-09
9.75757e-09
9.76341e-09
2.24205e-09
1.51294e-08
1.16392e-08
9.45954e-09
9.00838e-09
8.94553e-09
8.96757e-09
8.89689e-09
8.90893e-09
8.91595e-09
2.61161e-09
1.4059e-08
1.08008e-08
8.70369e-09
8.25955e-09
8.19617e-09
8.21737e-09
8.13937e-09
8.15667e-09
8.16492e-09
2.97126e-09
1.31835e-08
1.01173e-08
8.02056e-09
7.5892e-09
7.52558e-09
7.53858e-09
7.45644e-09
7.48355e-09
7.49274e-09
3.30141e-09
1.22966e-08
9.40945e-09
7.39407e-09
6.98285e-09
6.91938e-09
6.92691e-09
6.83037e-09
6.87542e-09
6.88453e-09
3.57859e-09
1.14577e-08
8.72261e-09
6.81015e-09
6.42857e-09
6.36563e-09
6.36986e-09
6.31741e-09
6.32115e-09
6.32777e-09
3.78483e-09
1.06602e-08
8.0668e-09
6.32493e-09
5.91667e-09
5.85454e-09
5.85651e-09
5.84663e-09
5.81121e-09
5.81176e-09
3.91528e-09
9.88817e-09
7.43692e-09
5.84042e-09
5.43872e-09
5.37801e-09
5.37792e-09
5.37275e-09
5.33551e-09
5.32662e-09
3.9792e-09
9.18205e-09
6.83044e-09
5.35894e-09
4.98735e-09
4.92881e-09
4.92698e-09
4.93064e-09
4.93483e-09
4.91758e-09
3.99298e-09
8.48906e-09
6.24588e-09
4.94981e-09
4.60559e-09
4.54924e-09
4.54618e-09
4.55049e-09
4.55544e-09
4.52989e-09
3.97475e-09
7.81388e-09
5.68056e-09
4.53424e-09
4.21058e-09
4.15698e-09
4.15267e-09
4.15287e-09
4.16145e-09
4.16183e-09
3.93616e-09
7.15655e-09
5.1318e-09
4.16251e-09
3.86503e-09
3.81448e-09
3.80933e-09
3.80615e-09
3.81727e-09
3.81418e-09
3.87969e-09
6.51982e-09
4.65783e-09
3.80012e-09
3.53604e-09
3.48887e-09
3.48317e-09
3.47736e-09
3.48943e-09
3.48481e-09
)
;

boundaryField
{
    fuel
    {
        type            fixedValue;
        value           uniform 0;
    }
    wall
    {
        type            zeroGradient;
    }
    outlet
    {
        type            zeroGradient;
    }
    frontAndBack
    {
        type            empty;
    }
    procBoundary2to0
    {
        type            processor;
        value           nonuniform List<scalar> 
12
(
3.78661e-09
3.79504e-09
5.87874e-09
4.20415e-09
3.46036e-09
3.22186e-09
3.17829e-09
3.17233e-09
3.16467e-09
3.17668e-09
3.46138e-09
3.1714e-09
)
;
    }
    procBoundary2to3
    {
        type            processor;
        value           nonuniform List<scalar> 
25
(
2.42183e-08
3.18544e-08
3.15972e-08
2.89061e-08
2.57365e-08
2.2808e-08
2.03274e-08
1.79754e-08
1.62328e-08
1.45714e-08
1.45714e-08
1.30926e-08
1.18205e-08
1.07149e-08
9.74935e-09
8.90059e-09
8.14817e-09
7.47468e-09
6.86543e-09
6.30821e-09
5.7928e-09
5.31012e-09
4.9041e-09
4.52193e-09
4.12877e-09
)
;
    }
}


// ************************************************************************* //
