/*--------------------------------*- C++ -*----------------------------------*\
| =========                 |                                                 |
| \\      /  F ield         | OpenFOAM: The Open Source CFD Toolbox           |
|  \\    /   O peration     | Version:  dev                                   |
|   \\  /    A nd           | Web:      www.OpenFOAM.org                      |
|    \\/     M anipulation  |                                                 |
\*---------------------------------------------------------------------------*/
FoamFile
{
    version     2.0;
    format      ascii;
    class       volScalarField;
    location    "0.115";
    object      PC3H4;
}
// * * * * * * * * * * * * * * * * * * * * * * * * * * * * * * * * * * * * * //

dimensions      [0 0 0 0 0 0 0];

internalField   nonuniform List<scalar> 
50
(
4.51375e-23
4.09587e-23
3.72732e-23
3.40155e-23
3.11308e-23
2.85729e-23
2.63292e-23
2.43147e-23
2.25227e-23
2.09301e-23
1.95147e-23
1.82723e-23
1.71585e-23
1.6181e-23
1.53119e-23
1.45494e-23
1.38797e-23
1.32946e-23
1.27842e-23
1.23479e-23
1.19732e-23
1.16608e-23
1.14103e-23
1.12147e-23
1.10716e-23
1.09787e-23
1.09343e-23
1.09383e-23
1.09893e-23
1.10873e-23
1.12324e-23
1.1425e-23
1.16663e-23
1.19592e-23
1.23022e-23
1.27015e-23
1.31559e-23
1.3677e-23
1.42575e-23
1.49149e-23
1.56539e-23
1.648e-23
1.74035e-23
1.84371e-23
1.95967e-23
2.08826e-23
2.23347e-23
2.39827e-23
2.58653e-23
2.80249e-23
)
;

boundaryField
{
    wall
    {
        type            zeroGradient;
    }
    fuel
    {
        type            fixedValue;
        value           nonuniform 0();
    }
    outlet
    {
        type            inletOutlet;
        inletValue      nonuniform 0();
        value           nonuniform 0();
    }
    procBoundary2to1
    {
        type            processor;
        value           uniform 5.01165e-23;
    }
    procBoundary2to3
    {
        type            processor;
        value           uniform 3.05023e-23;
    }
}


// ************************************************************************* //
