/*--------------------------------*- C++ -*----------------------------------*\
| =========                 |                                                 |
| \\      /  F ield         | OpenFOAM: The Open Source CFD Toolbox           |
|  \\    /   O peration     | Version:  dev                                   |
|   \\  /    A nd           | Web:      www.OpenFOAM.org                      |
|    \\/     M anipulation  |                                                 |
\*---------------------------------------------------------------------------*/
FoamFile
{
    version     2.0;
    format      ascii;
    class       volScalarField;
    location    "0.115";
    object      T;
}
// * * * * * * * * * * * * * * * * * * * * * * * * * * * * * * * * * * * * * //

dimensions      [0 0 0 1 0 0 0];

internalField   nonuniform List<scalar> 
250
(
422.758
1726.22
1746.2
1748.7
1749.06
1749.1
1749.11
1749.13
1749.1
522.389
1937.39
1962.01
1965.11
1965.54
1965.6
1965.6
1965.62
1965.61
606.182
1985.68
2018.63
2022.8
2023.38
2023.46
2023.45
2023.47
2023.46
679.525
1993.84
2036.74
2042.24
2043.01
2043.12
2043.11
2043.12
2043.12
747.522
1989.67
2042.74
2049.72
2050.71
2050.85
2050.83
2050.85
2050.85
814.125
1981.44
2044.16
2052.67
2053.88
2054.05
2054.04
2054.06
2054.06
882.539
1972.15
2043.59
2053.62
2055.08
2055.28
2055.28
2055.27
2055.28
955.857
1963.08
2042.11
2053.57
2055.26
2055.51
2055.5
2055.49
2055.5
1037.48
1954.84
2039.96
2052.98
2054.9
2055.18
2055.18
2055.16
2055.16
1127.75
1947.72
2037.79
2051.98
2054.12
2054.43
2054.44
2054.4
2054.41
1217.61
1941.86
2035.45
2050.69
2053.06
2053.41
2053.41
2053.37
2053.38
2053.36
1296.3
1937.23
2032.96
2049.23
2051.79
2052.17
2052.16
2052.12
2052.13
2052.11
1359.76
1933.78
2030.52
2047.62
2050.35
2050.76
2050.73
2050.68
2050.7
2050.68
1411.79
1931.44
2028.14
2045.87
2048.74
2049.16
2049.11
2049.06
2049.08
2049.06
1457.1
1930.12
2025.82
2043.97
2046.93
2047.38
2047.46
2047.23
2047.27
2047.25
1498.69
1929.68
2023.54
2041.89
2044.92
2045.38
2045.46
2045.17
2045.24
2045.22
1538.08
1930.06
2021.48
2039.61
2042.66
2043.13
2043.19
2042.84
2042.95
2042.92
1575.84
1931.16
2019.22
2037.06
2040.11
2040.57
2040.63
2040.17
2040.35
2040.32
1612.06
1932.8
2016.83
2034.19
2037.21
2037.66
2037.71
2037.39
2037.41
2037.34
1646.59
1934.79
2014.26
2031.22
2033.89
2034.32
2034.36
2034.22
2034.04
2033.92
1679.19
1936.9
2011.41
2027.67
2030.07
2030.46
2030.49
2030.37
2030.15
2029.95
1709.62
1938.86
2008.17
2023.46
2025.64
2025.99
2026.01
2025.92
2026.01
2025.74
1737.67
1940.5
2004.42
2018.99
2020.92
2021.24
2021.24
2021.13
2021.23
2020.85
1763.13
1941.64
1999.99
2013.56
2015.09
2015.35
2015.34
2015.16
2015.3
2015.21
1785.77
1942.07
1994.73
2007.58
2008.77
2008.96
2008.94
2008.69
2008.88
2008.71
1805.38
1941.59
1988.96
2000.53
2001.46
2001.59
2001.55
2001.22
2001.45
2001.24
)
;

boundaryField
{
    fuel
    {
        type            fixedValue;
        value           uniform 353;
    }
    wall
    {
        type            fixedValue;
        value           nonuniform 0();
    }
    outlet
    {
        type            inletOutlet;
        inletValue      uniform 353;
        value           nonuniform List<scalar> 
26
(
422.622
522.065
605.651
678.785
746.592
813.016
881.231
954.259
1035.4
1125.04
1214.48
1293.23
1357.05
1409.51
1455.23
1497.18
1536.89
1574.92
1611.4
1646.13
1678.9
1709.47
1737.65
1763.2
1785.92
1805.6
)
;
    }
    frontAndBack
    {
        type            empty;
    }
    procBoundary2to0
    {
        type            processor;
        value           nonuniform List<scalar> 
12
(
2008.35
1822.37
1939.94
1982.12
1992.5
1993.01
1993.08
1993.01
1992.61
1992.89
2000.87
1992.62
)
;
    }
    procBoundary2to3
    {
        type            processor;
        value           nonuniform List<scalar> 
25
(
1749.09
1965.59
2023.45
2043.11
2050.84
2054.05
2055.26
2055.48
2055.15
2054.4
2054.4
2053.36
2052.1
2050.66
2049.04
2047.22
2045.17
2042.87
2040.25
2037.27
2033.84
2029.88
2025.68
2020.83
2014.84
)
;
    }
}


// ************************************************************************* //
