/*--------------------------------*- C++ -*----------------------------------*\
| =========                 |                                                 |
| \\      /  F ield         | OpenFOAM: The Open Source CFD Toolbox           |
|  \\    /   O peration     | Version:  dev                                   |
|   \\  /    A nd           | Web:      www.OpenFOAM.org                      |
|    \\/     M anipulation  |                                                 |
\*---------------------------------------------------------------------------*/
FoamFile
{
    version     2.0;
    format      ascii;
    class       volScalarField;
    location    "0.115";
    object      T;
}
// * * * * * * * * * * * * * * * * * * * * * * * * * * * * * * * * * * * * * //

dimensions      [0 0 0 1 0 0 0];

internalField   nonuniform List<scalar> 
50
(
2249.9
2243.5
2237
2230.42
2223.74
2216.97
2210.16
2203.19
2196.12
2188.94
2181.66
2174.34
2166.86
2159.32
2151.64
2143.88
2136.01
2128.02
2119.88
2111.66
2103.23
2094.68
2086.08
2077.35
2068.48
2059.47
2050.25
2040.97
2031.54
2021.97
2012.24
2002.35
1992.31
1982.07
1971.7
1961.12
1950.41
1939.44
1928.37
1917.04
1905.48
1893.73
1881.77
1869.6
1857.22
1844.75
1832.06
1819.14
1805.99
1792.6
)
;

boundaryField
{
    wall
    {
        type            zeroGradient;
    }
    fuel
    {
        type            fixedValue;
        value           nonuniform 0();
    }
    outlet
    {
        type            inletOutlet;
        inletValue      nonuniform 0();
        value           nonuniform 0();
    }
    procBoundary2to1
    {
        type            processor;
        value           uniform 2256.21;
    }
    procBoundary2to3
    {
        type            processor;
        value           uniform 1778.94;
    }
}


// ************************************************************************* //
