/*--------------------------------*- C++ -*----------------------------------*\
| =========                 |                                                 |
| \\      /  F ield         | OpenFOAM: The Open Source CFD Toolbox           |
|  \\    /   O peration     | Version:  dev                                   |
|   \\  /    A nd           | Web:      www.OpenFOAM.org                      |
|    \\/     M anipulation  |                                                 |
\*---------------------------------------------------------------------------*/
FoamFile
{
    version     2.0;
    format      ascii;
    class       volVectorField;
    location    "0.115";
    object      U;
}
// * * * * * * * * * * * * * * * * * * * * * * * * * * * * * * * * * * * * * //

dimensions      [0 1 -1 0 0 0 0];

internalField   nonuniform List<vector> 
250
(
(0 -0.0849866 0.109904)
(0 0.10207 0.47907)
(0 -0.00513671 0.491673)
(0 0.0701287 0.491253)
(0 0.0281482 0.492538)
(0 0.0402492 0.491133)
(0 0.0231563 0.491948)
(0 0.0167143 0.491748)
(0 0.0112603 0.491548)
(0 -0.283965 0.11727)
(0 0.167811 0.688137)
(0 -0.00902202 0.690599)
(0 0.125284 0.690677)
(0 0.0540991 0.691354)
(0 0.0706839 0.689124)
(0 0.0449773 0.690327)
(0 0.0287923 0.690147)
(0 0.0219502 0.689597)
(0 -0.409866 0.117111)
(0 0.226228 0.76759)
(0 -0.00811976 0.736784)
(0 0.174019 0.738551)
(0 0.082009 0.737153)
(0 0.096582 0.734282)
(0 0.0683019 0.735492)
(0 0.0388317 0.734982)
(0 0.0332708 0.733916)
(0 -0.470377 0.134283)
(0 0.28516 0.803876)
(0 -0.000780214 0.731326)
(0 0.216789 0.735744)
(0 0.112716 0.730164)
(0 0.118528 0.727463)
(0 0.0924767 0.72833)
(0 0.0462673 0.728417)
(0 0.0433817 0.726973)
(0 -0.487226 0.169348)
(0 0.344669 0.84187)
(0 0.016479 0.726518)
(0 0.253548 0.735555)
(0 0.146226 0.724091)
(0 0.137467 0.722114)
(0 0.11845 0.722315)
(0 0.0535796 0.722815)
(0 0.0550441 0.721162)
(0 -0.475318 0.217802)
(0 0.402714 0.882307)
(0 0.0439253 0.724817)
(0 0.284532 0.740317)
(0 0.182168 0.721803)
(0 0.153979 0.720865)
(0 0.144992 0.720341)
(0 0.0601985 0.721052)
(0 0.0666948 0.71943)
(0 -0.441911 0.276652)
(0 0.45713 0.920409)
(0 0.0813488 0.721963)
(0 0.310423 0.745582)
(0 0.22004 0.719337)
(0 0.168885 0.71948)
(0 0.171588 0.71831)
(0 0.0665491 0.718832)
(0 0.078136 0.717505)
(0 -0.388925 0.3446)
(0 0.50621 0.9543)
(0 0.128001 0.716969)
(0 0.332407 0.74983)
(0 0.259236 0.715679)
(0 0.183036 0.716718)
(0 0.197822 0.715116)
(0 0.0730441 0.715087)
(0 0.089238 0.714333)
(0 -0.314145 0.419691)
(0 0.548899 0.983434)
(0 0.182547 0.710418)
(0 0.352141 0.753066)
(0 0.298982 0.711265)
(0 0.197277 0.712847)
(0 0.223414 0.71112)
(0 0.0800457 0.710191)
(0 0.0999517 0.710275)
(0 -0.211334 0.496291)
(0 0.584957 1.00556)
(0 0.243284 0.70292)
(0 0.371372 0.755291)
(0 0.338615 0.706478)
(0 0.212352 0.708136)
(0 0.24821 0.70663)
(0 0.0878446 0.704462)
(0 0.110294 0.705629)
(0 -0.0755009 0.559565)
(0 0.616572 1.01926)
(0 0.308229 0.694845)
(0 0.391703 0.756299)
(0 0.377642 0.701468)
(0 0.228832 0.702654)
(0 0.272162 0.701714)
(0 0.0966416 0.698006)
(0 0.120328 0.700464)
(0 -0.0234873 0.699582)
(0 0.0633685 0.599303)
(0 0.645641 1.02562)
(0 0.375455 0.686458)
(0 0.414434 0.75594)
(0 0.415734 0.696215)
(0 0.247086 0.696408)
(0 0.295304 0.696367)
(0 0.106542 0.690857)
(0 0.130136 0.694767)
(0 -0.0238117 0.692743)
(0 0.193519 0.614703)
(0 0.67431 1.02696)
(0 0.44336 0.677977)
(0 0.44038 0.754161)
(0 0.452777 0.690608)
(0 0.267272 0.689403)
(0 0.317712 0.690551)
(0 0.117558 0.683031)
(0 0.139801 0.688508)
(0 -0.0234588 0.685238)
(0 0.330054 0.622089)
(0 0.705145 1.02479)
(0 0.510736 0.669512)
(0 0.469895 0.750859)
(0 0.488775 0.684621)
(0 0.289359 0.681653)
(0 0.339481 0.684209)
(0 0.129624 0.674547)
(0 0.14939 0.681659)
(0 -0.0224527 0.677079)
(0 0.468188 0.624032)
(0 0.739998 1.0197)
(0 0.576692 0.661065)
(0 0.502944 0.746045)
(0 0.523777 0.678157)
(0 0.313162 0.673178)
(0 0.360698 0.677298)
(0 0.142613 0.665427)
(0 0.158945 0.674202)
(0 -0.0208485 0.668281)
(0 0.604028 0.620827)
(0 0.77977 1.01195)
(0 0.640627 0.652561)
(0 0.539174 0.739766)
(0 0.557851 0.671118)
(0 0.338393 0.663997)
(0 0.381434 0.669775)
(0 0.156357 0.655693)
(0 0.168484 0.666121)
(0 -0.0187241 0.658855)
(0 0.734609 0.613489)
(0 0.824504 1.00176)
(0 0.702161 0.643871)
(0 0.578005 0.732071)
(0 0.591066 0.663425)
(0 0.364707 0.654126)
(0 0.401733 0.661605)
(0 0.17067 0.64536)
(0 0.177998 0.657399)
(0 -0.0161717 0.648811)
(0 0.857813 0.603441)
(0 0.873591 0.989441)
(0 0.761105 0.63484)
(0 0.618735 0.723012)
(0 0.623471 0.655026)
(0 0.391745 0.643576)
(0 0.42162 0.652759)
(0 0.185362 0.634446)
(0 0.187462 0.648019)
(0 -0.0132897 0.638152)
(0 0.972296 0.59196)
(0 0.925982 0.975203)
(0 0.817409 0.625327)
(0 0.660646 0.712731)
(0 0.65507 0.645787)
(0 0.419169 0.632354)
(0 0.441104 0.643211)
(0 0.200252 0.622948)
(0 0.196834 0.637972)
(0 -0.0101756 0.62688)
(0 1.0774 0.580013)
(0 0.98042 0.959272)
(0 0.871125 0.615216)
(0 0.703073 0.701295)
(0 0.685808 0.635663)
(0 0.446673 0.620461)
(0 0.460192 0.632935)
(0 0.21516 0.61085)
(0 0.206062 0.62724)
(0 -0.00692106 0.61499)
(0 1.17306 0.568271)
(0 1.03563 0.941844)
(0 0.922389 0.604405)
(0 0.745333 0.688664)
(0 0.715684 0.624743)
(0 0.473989 0.607906)
(0 0.478866 0.621911)
(0 0.229939 0.59817)
(0 0.215101 0.615809)
(0 -0.00360796 0.602479)
(0 1.25965 0.55714)
(0 1.09047 0.923121)
(0 0.971461 0.592789)
(0 0.786741 0.675018)
(0 0.744696 0.612956)
(0 0.500882 0.594717)
(0 0.497084 0.610135)
(0 0.24447 0.584924)
(0 0.223907 0.60369)
(0 -0.000306046 0.589359)
(0 1.3379 0.5468)
(0 1.14404 0.903354)
(0 1.01846 0.580351)
(0 0.826834 0.660366)
(0 0.772877 0.600322)
(0 0.527139 0.580866)
(0 0.514777 0.597645)
(0 0.258648 0.571083)
(0 0.232441 0.590886)
(0 0.00292674 0.575635)
(0 1.40872 0.537244)
(0 1.19572 0.882363)
(0 1.06338 0.567038)
(0 0.865354 0.644715)
(0 0.800207 0.586846)
(0 0.55259 0.566388)
(0 0.531923 0.584379)
(0 0.272392 0.556626)
(0 0.240668 0.577381)
(0 0.0060431 0.561291)
(0 1.47317 0.528341)
(0 1.2451 0.860296)
(0 1.10617 0.552817)
(0 0.902133 0.628118)
(0 0.826643 0.572538)
(0 0.577119 0.551274)
(0 0.548485 0.570352)
(0 0.285638 0.541572)
(0 0.248559 0.563173)
(0 0.0090085 0.546329)
(0 1.53226 0.519872)
(0 1.29191 0.837481)
(0 1.14689 0.537747)
(0 0.93707 0.610612)
(0 0.852138 0.55741)
(0 0.600635 0.535517)
(0 0.564428 0.555558)
(0 0.298332 0.525917)
(0 0.256092 0.548256)
(0 0.0117989 0.530742)
)
;

boundaryField
{
    fuel
    {
        type            fixedValue;
        value           uniform (0 0 0.1055);
    }
    wall
    {
        type            slip;
    }
    outlet
    {
        type            pressureInletOutletVelocity;
        value           nonuniform List<vector> 
26
(
(0 -0.0849866 0)
(0 -0.283965 0)
(0 -0.409866 0)
(0 -0.470377 0)
(0 -0.487226 0)
(0 -0.475318 0)
(0 -0.441911 0)
(0 -0.388925 0)
(0 -0.314145 0)
(0 -0.211334 0)
(0 -0.0755009 0)
(0 0.0633685 0.599303)
(0 0.193519 0.614703)
(0 0.330054 0.622089)
(0 0.468188 0.624032)
(0 0.604028 0.620827)
(0 0.734609 0.613489)
(0 0.857813 0.603441)
(0 0.972296 0.59196)
(0 1.0774 0.580013)
(0 1.17306 0.568271)
(0 1.25965 0.55714)
(0 1.3379 0.5468)
(0 1.40872 0.537244)
(0 1.47317 0.528341)
(0 1.53226 0.519872)
)
;
    }
    frontAndBack
    {
        type            empty;
    }
    procBoundary2to0
    {
        type            processor;
        value           nonuniform List<vector> 
12
(
(0 -0.0596932 0.552898)
(0 1.58693 0.511548)
(0 1.33606 0.813696)
(0 1.18555 0.521833)
(0 0.970112 0.592226)
(0 0.876641 0.541463)
(0 0.623064 0.519097)
(0 0.579719 0.539979)
(0 0.310433 0.509636)
(0 0.263252 0.532606)
(0 -0.0607226 0.537715)
(0 0.014398 0.514506)
)
;
    }
    procBoundary2to3
    {
        type            processor;
        value           nonuniform List<vector> 
25
(
(0 -0.00110745 0.491863)
(0 -0.00290716 0.690326)
(0 -0.00528075 0.735204)
(0 -0.00762848 0.728675)
(0 -0.010496 0.72316)
(0 -0.0134142 0.721511)
(0 -0.0162223 0.719438)
(0 -0.0187625 0.71588)
(0 -0.0208937 0.71121)
(0 -0.0224977 0.705746)
(0 -0.0224977 0.705746)
(0 -0.03607 0.697236)
(0 -0.0393406 0.690932)
(0 -0.0423541 0.684049)
(0 -0.0450544 0.676573)
(0 -0.0474152 0.668496)
(0 -0.0494391 0.659811)
(0 -0.0511525 0.650508)
(0 -0.0525998 0.640577)
(0 -0.0538355 0.630008)
(0 -0.0549176 0.618788)
(0 -0.0559019 0.606905)
(0 -0.0568374 0.594373)
(0 -0.0577637 0.581207)
(0 -0.0587096 0.567392)
)
;
    }
}


// ************************************************************************* //
