/*--------------------------------*- C++ -*----------------------------------*\
| =========                 |                                                 |
| \\      /  F ield         | OpenFOAM: The Open Source CFD Toolbox           |
|  \\    /   O peration     | Version:  dev                                   |
|   \\  /    A nd           | Web:      www.OpenFOAM.org                      |
|    \\/     M anipulation  |                                                 |
\*---------------------------------------------------------------------------*/
FoamFile
{
    version     2.0;
    format      ascii;
    class       volVectorField;
    location    "0.115";
    object      U;
}
// * * * * * * * * * * * * * * * * * * * * * * * * * * * * * * * * * * * * * //

dimensions      [0 1 -1 0 0 0 0];

internalField   nonuniform List<vector> 
50
(
(-4.97643e-13 4.97643e-13 0.241699)
(-5.15065e-13 5.15065e-13 0.241805)
(-5.34245e-13 5.34245e-13 0.240964)
(-5.54122e-13 5.54122e-13 0.240252)
(-5.65906e-13 5.65906e-13 0.239528)
(-5.78061e-13 5.78061e-13 0.239079)
(-5.91873e-13 5.91873e-13 0.238455)
(-6.04419e-13 6.04419e-13 0.237938)
(-6.17798e-13 6.17798e-13 0.237313)
(-6.31518e-13 6.31518e-13 0.236768)
(-6.45656e-13 6.45656e-13 0.236191)
(-6.60328e-13 6.60328e-13 0.235591)
(-6.75467e-13 6.75467e-13 0.235024)
(-6.9112e-13 6.9112e-13 0.234426)
(-7.07349e-13 7.07349e-13 0.23385)
(-7.24018e-13 7.24018e-13 0.233266)
(-7.41629e-13 7.41629e-13 0.232676)
(-7.59419e-13 7.59419e-13 0.232075)
(-7.79033e-13 7.79033e-13 0.231467)
(-7.93345e-13 7.93345e-13 0.230848)
(-8.08022e-13 8.08022e-13 0.230222)
(-8.17123e-13 8.17123e-13 0.229599)
(-8.2793e-13 8.2793e-13 0.228978)
(-8.38764e-13 8.38764e-13 0.228347)
(-8.50498e-13 8.50498e-13 0.227698)
(-8.62614e-13 8.62614e-13 0.227034)
(-8.75282e-13 8.75282e-13 0.226366)
(-8.88445e-13 8.88445e-13 0.225693)
(-9.02075e-13 9.02075e-13 0.225008)
(-9.16205e-13 9.16205e-13 0.22431)
(-9.30741e-13 9.30741e-13 0.223603)
(-9.45868e-13 9.45868e-13 0.222884)
(-9.61057e-13 9.61057e-13 0.222156)
(-9.77483e-13 9.77483e-13 0.221424)
(-9.92923e-13 9.92923e-13 0.22069)
(-1.01184e-12 1.01184e-12 0.219947)
(-1.02871e-12 1.02871e-12 0.219191)
(-1.03802e-12 1.03802e-12 0.218427)
(-1.04496e-12 1.04496e-12 0.217647)
(-1.05533e-12 1.05533e-12 0.216851)
(-1.06449e-12 1.06449e-12 0.216035)
(-1.07484e-12 1.07484e-12 0.215214)
(-1.08513e-12 1.08513e-12 0.214374)
(-1.09594e-12 1.09594e-12 0.213523)
(-1.1071e-12 1.1071e-12 0.212652)
(-1.11868e-12 1.11868e-12 0.21183)
(-1.13068e-12 1.13068e-12 0.210878)
(-1.1431e-12 1.1431e-12 0.210095)
(-1.15589e-12 1.15589e-12 0.209058)
(-1.1693e-12 1.1693e-12 0.208186)
)
;

boundaryField
{
    wall
    {
        type            zeroGradient;
    }
    fuel
    {
        type            fixedValue;
        value           nonuniform 0();
    }
    outlet
    {
        type            pressureInletOutletVelocity;
        value           nonuniform 0();
    }
    procBoundary2to1
    {
        type            processor;
        value           uniform (-4.79055e-13 4.79055e-13 0.242343);
    }
    procBoundary2to3
    {
        type            processor;
        value           uniform (-1.18346e-12 1.18346e-12 0.207247);
    }
}


// ************************************************************************* //
