/*--------------------------------*- C++ -*----------------------------------*\
| =========                 |                                                 |
| \\      /  F ield         | OpenFOAM: The Open Source CFD Toolbox           |
|  \\    /   O peration     | Version:  dev                                   |
|   \\  /    A nd           | Web:      www.OpenFOAM.org                      |
|    \\/     M anipulation  |                                                 |
\*---------------------------------------------------------------------------*/
FoamFile
{
    version     2.0;
    format      ascii;
    class       volVectorField;
    location    "0.03";
    object      U;
}
// * * * * * * * * * * * * * * * * * * * * * * * * * * * * * * * * * * * * * //

dimensions      [0 1 -1 0 0 0 0];

internalField   nonuniform List<vector> 
13
(
(-5.72526e-05 -6.72785e-12 0.0679218)
(-5.70915e-05 -7.53994e-12 0.0689023)
(-5.69047e-05 -8.59345e-12 0.0698657)
(-5.66919e-05 -9.59481e-12 0.0708225)
(-5.64529e-05 -1.06306e-11 0.0717821)
(-5.61875e-05 -1.16838e-11 0.0727191)
(-5.58956e-05 -1.2754e-11 0.0736565)
(-5.55769e-05 -1.38382e-11 0.0745772)
(-5.52314e-05 -1.49367e-11 0.0754874)
(-5.4859e-05 -1.60485e-11 0.0763745)
(-5.44597e-05 -1.7173e-11 0.0772532)
(-5.40334e-05 -1.83094e-11 0.0781237)
(-5.35799e-05 -1.94575e-11 0.078993)
)
;

boundaryField
{
    front
    {
        type            wedge;
    }
    back
    {
        type            wedge;
    }
    wall
    {
        type            zeroGradient;
    }
    fuel
    {
        type            fixedValue;
        value           nonuniform 0();
    }
    outlet
    {
        type            pressureInletOutletVelocity;
        value           nonuniform 0();
    }
    axis
    {
        type            empty;
    }
    procBoundary3to2
    {
        type            processor;
        value           uniform (-5.73884e-05 -4.43494e-12 0.0669464);
    }
    procBoundary3to4
    {
        type            processor;
        value           uniform (-5.30992e-05 -2.0617e-11 0.0798498);
    }
}


// ************************************************************************* //
