/*--------------------------------*- C++ -*----------------------------------*\
| =========                 |                                                 |
| \\      /  F ield         | OpenFOAM: The Open Source CFD Toolbox           |
|  \\    /   O peration     | Version:  dev                                   |
|   \\  /    A nd           | Web:      www.OpenFOAM.org                      |
|    \\/     M anipulation  |                                                 |
\*---------------------------------------------------------------------------*/
FoamFile
{
    version     2.0;
    format      ascii;
    class       volScalarField;
    location    "0.155";
    object      A2C2HB*;
}
// * * * * * * * * * * * * * * * * * * * * * * * * * * * * * * * * * * * * * //

dimensions      [0 0 0 0 0 0 0];

internalField   nonuniform List<scalar> 
250
(
2.2406e-12
2.24461e-12
2.25038e-12
2.25607e-12
2.26217e-12
2.30458e-12
2.5779e-12
3.72215e-12
1.10381e-11
8.54965e-12
2.03199e-12
2.03684e-12
2.03943e-12
2.04587e-12
2.05237e-12
2.09009e-12
2.33026e-12
3.26741e-12
9.10242e-12
7.9478e-12
4.6252e-11
8.60082e-12
3.14454e-12
2.07464e-12
1.978e-12
1.8404e-12
1.89056e-12
1.83858e-12
1.86269e-12
1.83867e-12
1.84907e-12
1.85375e-12
1.85495e-12
1.86149e-12
1.86806e-12
1.90145e-12
2.11181e-12
2.87477e-12
7.50834e-12
7.27857e-12
4.18725e-11
7.69147e-12
2.81929e-12
1.88688e-12
1.80237e-12
1.68236e-12
1.72513e-12
1.67987e-12
1.70137e-12
1.68039e-12
1.68948e-12
1.69361e-12
1.69423e-12
1.70052e-12
1.70692e-12
1.73632e-12
1.91966e-12
2.53713e-12
6.10521e-12
6.5572e-12
3.68907e-11
6.79963e-12
2.52617e-12
1.72256e-12
1.64911e-12
1.54554e-12
1.58157e-12
1.54263e-12
1.56149e-12
1.54341e-12
1.55125e-12
1.55472e-12
1.55512e-12
1.56094e-12
1.56705e-12
1.59279e-12
1.75155e-12
2.24881e-12
4.90739e-12
5.81429e-12
3.16276e-11
5.93341e-12
2.26337e-12
1.57923e-12
1.51635e-12
1.42745e-12
1.4576e-12
1.42433e-12
1.44077e-12
1.42531e-12
1.43202e-12
1.43479e-12
1.43516e-12
1.44041e-12
1.44617e-12
1.46873e-12
1.60502e-12
2.00442e-12
4.05003e-12
5.08715e-12
2.63796e-11
5.03156e-12
2.0282e-12
1.45316e-12
1.40144e-12
1.32424e-12
1.34981e-12
1.32106e-12
1.33574e-12
1.32236e-12
1.32815e-12
1.3302e-12
1.33071e-12
1.33532e-12
1.34082e-12
1.36069e-12
1.47668e-12
1.79683e-12
3.34048e-12
4.40229e-12
2.1411e-11
4.26391e-12
1.81698e-12
1.33867e-12
1.29271e-12
1.23014e-12
1.25293e-12
1.22705e-12
1.24117e-12
1.22906e-12
1.23426e-12
1.23546e-12
1.23636e-12
1.2402e-12
1.24575e-12
1.26346e-12
1.36137e-12
1.61788e-12
2.79073e-12
3.77759e-12
1.66202e-11
3.55178e-12
1.62409e-12
1.22864e-12
1.19513e-12
1.13778e-12
1.15989e-12
1.13484e-12
1.14724e-12
1.13526e-12
1.14011e-12
1.14335e-12
1.14171e-12
1.14778e-12
1.15136e-12
1.16607e-12
1.25226e-12
1.45412e-12
2.34509e-12
3.21812e-12
1.27883e-11
2.89846e-12
1.43158e-12
1.11536e-12
1.09508e-12
1.0396e-12
1.06295e-12
1.03685e-12
1.05076e-12
1.03809e-12
1.04303e-12
1.04629e-12
1.04435e-12
1.05047e-12
1.05404e-12
1.06676e-12
1.14154e-12
1.28938e-12
1.97466e-12
2.71977e-12
9.48829e-12
2.32572e-12
1.25178e-12
9.9306e-13
9.86077e-13
9.3015e-13
9.55914e-13
9.27661e-13
9.43651e-13
9.29747e-13
9.34943e-13
9.38508e-13
9.36048e-13
9.42442e-13
9.45948e-13
9.56715e-13
1.02261e-12
1.13453e-12
1.65624e-12
2.27366e-12
6.88683e-12
1.8285e-12
1.07135e-12
8.60091e-13
8.65043e-13
8.0828e-13
8.36454e-13
8.06146e-13
8.24071e-13
8.08984e-13
8.14427e-13
8.18321e-13
8.1535e-13
8.2196e-13
8.25316e-13
8.34197e-13
8.92544e-13
9.74411e-13
1.37255e-12
1.87092e-12
4.84248e-12
1.40306e-12
8.91219e-13
7.19847e-13
7.33896e-13
6.77852e-13
7.07256e-13
6.76153e-13
6.95106e-13
6.79486e-13
6.84967e-13
6.89023e-13
6.85731e-13
6.92293e-13
6.95368e-13
7.02461e-13
7.53507e-13
8.11013e-13
1.1143e-12
1.50632e-12
5.53881e-13
5.57835e-13
5.54501e-13
5.60647e-13
5.63316e-13
5.68783e-13
6.12173e-13
6.50703e-13
8.7956e-13
1.17953e-12
)
;

boundaryField
{
    fuel
    {
        type            fixedValue;
        value           nonuniform 0();
    }
    wall
    {
        type            zeroGradient;
    }
    outlet
    {
        type            zeroGradient;
    }
    frontAndBack
    {
        type            empty;
    }
    procBoundary0to1
    {
        type            processor;
        value           nonuniform List<scalar> 
21
(
3.29732e-12
1.04716e-12
7.1653e-13
5.79639e-13
5.99058e-13
5.46435e-13
5.75193e-13
5.45191e-13
5.63838e-13
5.48675e-13
5.48675e-13
4.29718e-13
4.3331e-13
4.30207e-13
4.35603e-13
4.37789e-13
4.41871e-13
4.77256e-13
5.01694e-13
6.71162e-13
8.93658e-13
)
;
    }
    procBoundary0to2
    {
        type            processor;
        value           nonuniform List<scalar> 
12
(
2.22748e-12
4.96788e-11
9.65966e-12
3.50334e-12
2.28791e-12
2.17777e-12
2.02167e-12
2.07987e-12
2.02084e-12
2.0474e-12
2.02025e-12
2.02025e-12
)
;
    }
    procBoundary0to3
    {
        type            processor;
        value           nonuniform List<scalar> 10(2.47828e-12 2.47939e-12 2.4916e-12 2.4956e-12 2.50087e-12 2.54837e-12 2.85885e-12 4.30513e-12 1.33451e-11 9.08269e-12);
    }
}


// ************************************************************************* //
