/*--------------------------------*- C++ -*----------------------------------*\
| =========                 |                                                 |
| \\      /  F ield         | OpenFOAM: The Open Source CFD Toolbox           |
|  \\    /   O peration     | Version:  dev                                   |
|   \\  /    A nd           | Web:      www.OpenFOAM.org                      |
|    \\/     M anipulation  |                                                 |
\*---------------------------------------------------------------------------*/
FoamFile
{
    version     2.0;
    format      ascii;
    class       volScalarField;
    location    "0.155";
    object      A2R5;
}
// * * * * * * * * * * * * * * * * * * * * * * * * * * * * * * * * * * * * * //

dimensions      [0 0 0 0 0 0 0];

internalField   nonuniform List<scalar> 
250
(
6.85293e-08
6.88626e-08
6.8494e-08
6.93412e-08
6.84469e-08
7.16126e-08
7.46937e-08
1.02929e-07
1.72986e-07
4.00766e-07
6.59551e-08
6.62531e-08
6.59217e-08
6.66783e-08
6.58811e-08
6.87573e-08
7.17961e-08
9.7967e-08
1.6254e-07
3.91315e-07
2.08197e-07
1.67293e-07
8.94203e-08
6.98768e-08
6.50126e-08
6.41157e-08
6.40132e-08
6.39948e-08
6.39305e-08
6.39438e-08
6.37495e-08
6.40106e-08
6.37205e-08
6.4382e-08
6.36913e-08
6.62954e-08
6.92639e-08
9.3635e-08
1.52934e-07
3.76304e-07
1.93147e-07
1.51887e-07
8.49664e-08
6.7572e-08
6.30927e-08
6.22534e-08
6.21491e-08
6.21259e-08
6.2068e-08
6.20788e-08
6.19067e-08
6.21292e-08
6.18838e-08
6.24469e-08
6.18698e-08
6.41916e-08
6.70956e-08
8.96348e-08
1.43762e-07
3.56987e-07
1.78828e-07
1.37768e-07
8.10769e-08
6.5641e-08
6.15261e-08
6.0745e-08
6.06401e-08
6.06139e-08
6.05593e-08
6.05689e-08
6.042e-08
6.06026e-08
6.04042e-08
6.08679e-08
6.04079e-08
6.24453e-08
6.5287e-08
8.59893e-08
1.3509e-07
3.34617e-07
1.65534e-07
1.26709e-07
7.77475e-08
6.40727e-08
6.03076e-08
5.95808e-08
5.94761e-08
5.94487e-08
5.93951e-08
5.94046e-08
5.92791e-08
5.94209e-08
5.9271e-08
5.96371e-08
5.92933e-08
6.10535e-08
6.38289e-08
8.27133e-08
1.2649e-07
3.09309e-07
1.53408e-07
1.16874e-07
7.49566e-08
6.28535e-08
5.94239e-08
5.87461e-08
5.8642e-08
5.86152e-08
5.85608e-08
5.85713e-08
5.84685e-08
5.85693e-08
5.84684e-08
5.87415e-08
5.85088e-08
6.00079e-08
6.27061e-08
7.98162e-08
1.18918e-07
2.81794e-07
1.42532e-07
1.08705e-07
7.26727e-08
6.19614e-08
5.88542e-08
5.82185e-08
5.81154e-08
5.80904e-08
5.80342e-08
5.80465e-08
5.79649e-08
5.80257e-08
5.79725e-08
5.81601e-08
5.80294e-08
5.9216e-08
6.1893e-08
7.72951e-08
1.12055e-07
2.54512e-07
1.32913e-07
1.01811e-07
7.08501e-08
6.13637e-08
5.85567e-08
5.79574e-08
5.78551e-08
5.7831e-08
5.77735e-08
5.77869e-08
5.77261e-08
5.77593e-08
5.7741e-08
5.78505e-08
5.78134e-08
5.87793e-08
6.13616e-08
7.51354e-08
1.05892e-07
2.30037e-07
1.24495e-07
9.60488e-08
6.9432e-08
6.10295e-08
5.85035e-08
5.79382e-08
5.78371e-08
5.78153e-08
5.77562e-08
5.77712e-08
5.77274e-08
5.77303e-08
5.77481e-08
5.77944e-08
5.78325e-08
5.85996e-08
6.1069e-08
7.32855e-08
9.99855e-08
2.0791e-07
1.1718e-07
9.12632e-08
6.83534e-08
6.0909e-08
5.86361e-08
5.8105e-08
5.80053e-08
5.79851e-08
5.79253e-08
5.79414e-08
5.79116e-08
5.78909e-08
5.79366e-08
5.79341e-08
5.803e-08
5.86314e-08
6.09662e-08
7.1681e-08
9.50306e-08
1.88289e-07
1.1084e-07
8.72965e-08
6.75414e-08
6.09467e-08
5.89014e-08
5.84042e-08
5.83064e-08
5.82869e-08
5.82277e-08
5.82439e-08
5.82251e-08
5.8188e-08
5.82525e-08
5.82165e-08
5.8352e-08
5.88224e-08
6.10008e-08
7.03719e-08
9.06333e-08
1.69963e-07
1.05327e-07
8.39936e-08
6.69241e-08
6.10854e-08
5.92456e-08
5.87821e-08
5.86866e-08
5.86669e-08
5.86096e-08
5.8625e-08
5.86143e-08
5.85678e-08
5.86424e-08
5.85872e-08
5.87449e-08
5.91176e-08
6.112e-08
6.92829e-08
8.67301e-08
1.54049e-07
5.90307e-08
5.89809e-08
5.90579e-08
5.89959e-08
5.91606e-08
5.94648e-08
6.12764e-08
6.83533e-08
8.32587e-08
1.39837e-07
)
;

boundaryField
{
    fuel
    {
        type            fixedValue;
        value           nonuniform 0();
    }
    wall
    {
        type            zeroGradient;
    }
    outlet
    {
        type            zeroGradient;
    }
    frontAndBack
    {
        type            empty;
    }
    procBoundary0to1
    {
        type            processor;
        value           nonuniform List<scalar> 
21
(
1.00495e-07
8.12111e-08
6.64345e-08
6.12726e-08
5.96193e-08
5.91893e-08
5.90969e-08
5.90761e-08
5.90222e-08
5.9036e-08
5.9036e-08
5.94352e-08
5.93867e-08
5.94602e-08
5.94009e-08
5.95608e-08
5.98194e-08
6.14325e-08
6.75359e-08
8.01658e-08
1.27257e-07
)
;
    }
    procBoundary0to2
    {
        type            processor;
        value           nonuniform List<scalar> 
12
(
6.87615e-08
2.23643e-07
1.8308e-07
9.44268e-08
7.25573e-08
6.72931e-08
6.63384e-08
6.62394e-08
6.62272e-08
6.61526e-08
6.61697e-08
6.61697e-08
)
;
    }
    procBoundary0to3
    {
        type            processor;
        value           nonuniform List<scalar> 10(7.14788e-08 7.18462e-08 7.14456e-08 7.23792e-08 7.13963e-08 7.47986e-08 7.79534e-08 1.07844e-07 1.83547e-07 4.03589e-07);
    }
}


// ************************************************************************* //
