/*--------------------------------*- C++ -*----------------------------------*\
| =========                 |                                                 |
| \\      /  F ield         | OpenFOAM: The Open Source CFD Toolbox           |
|  \\    /   O peration     | Version:  dev                                   |
|   \\  /    A nd           | Web:      www.OpenFOAM.org                      |
|    \\/     M anipulation  |                                                 |
\*---------------------------------------------------------------------------*/
FoamFile
{
    version     2.0;
    format      ascii;
    class       volScalarField;
    location    "0.155";
    object      C2O;
}
// * * * * * * * * * * * * * * * * * * * * * * * * * * * * * * * * * * * * * //

dimensions      [0 0 0 0 0 0 0];

internalField   nonuniform List<scalar> 
50
(
2.31225e-05
3.31319e-05
3.44092e-05
3.2307e-05
2.87856e-05
2.47818e-05
2.08654e-05
1.72795e-05
1.41409e-05
1.14603e-05
9.23179e-06
7.40316e-06
5.92915e-06
4.72747e-06
3.75578e-06
2.9753e-06
2.34995e-06
1.85021e-06
1.45208e-06
1.1383e-06
8.89571e-07
6.92263e-07
5.37554e-07
4.16367e-07
3.21802e-07
2.48113e-07
1.906e-07
1.46156e-07
1.1223e-07
8.59187e-08
6.56992e-08
5.03557e-08
3.85443e-08
2.94801e-08
2.2556e-08
1.72683e-08
1.32304e-08
1.01462e-08
7.7894e-09
5.98726e-09
4.60817e-09
3.55182e-09
2.74183e-09
2.12e-09
1.64201e-09
1.27404e-09
9.90268e-10
7.70909e-10
6.00753e-10
4.68018e-10
)
;

boundaryField
{
    wall
    {
        type            zeroGradient;
    }
    fuel
    {
        type            fixedValue;
        value           uniform 0;
    }
    outlet
    {
        type            inletOutlet;
        inletValue      nonuniform 0();
        value           nonuniform 0();
    }
    procBoundary0to1
    {
        type            processor;
        value           uniform 3.65573e-10;
    }
}


// ************************************************************************* //
