/*--------------------------------*- C++ -*----------------------------------*\
| =========                 |                                                 |
| \\      /  F ield         | OpenFOAM: The Open Source CFD Toolbox           |
|  \\    /   O peration     | Version:  dev                                   |
|   \\  /    A nd           | Web:      www.OpenFOAM.org                      |
|    \\/     M anipulation  |                                                 |
\*---------------------------------------------------------------------------*/
FoamFile
{
    version     2.0;
    format      ascii;
    class       volScalarField;
    location    "0.155";
    object      CH2;
}
// * * * * * * * * * * * * * * * * * * * * * * * * * * * * * * * * * * * * * //

dimensions      [0 0 0 0 0 0 0];

internalField   nonuniform List<scalar> 
250
(
4.90947e-07
4.95696e-07
4.90127e-07
5.014e-07
4.88766e-07
5.12848e-07
4.81113e-07
4.86582e-07
3.43491e-07
2.89191e-07
4.49269e-07
4.54226e-07
4.48319e-07
4.60145e-07
4.46932e-07
4.71832e-07
4.40556e-07
4.49576e-07
3.17842e-07
2.53591e-07
1.0859e-07
2.5897e-07
3.79147e-07
4.1561e-07
4.12064e-07
4.11293e-07
4.10681e-07
4.08683e-07
4.09351e-07
4.08041e-07
4.06001e-07
4.11115e-07
4.04936e-07
4.17187e-07
4.0356e-07
4.29473e-07
3.98424e-07
4.13107e-07
2.92778e-07
2.24609e-07
1.08596e-07
2.44856e-07
3.43396e-07
3.72828e-07
3.67823e-07
3.66963e-07
3.66302e-07
3.64146e-07
3.6497e-07
3.6358e-07
3.61527e-07
3.66721e-07
3.60366e-07
3.72865e-07
3.5903e-07
3.856e-07
3.55062e-07
3.74916e-07
2.66855e-07
2.0038e-07
1.08369e-07
2.26597e-07
3.0584e-07
3.28926e-07
3.22806e-07
3.21877e-07
3.21197e-07
3.18946e-07
3.19889e-07
3.18449e-07
3.16416e-07
3.21584e-07
3.15186e-07
3.27711e-07
3.13909e-07
3.40715e-07
3.10996e-07
3.35286e-07
2.39947e-07
1.79327e-07
1.06819e-07
2.06963e-07
2.67045e-07
2.84578e-07
2.77756e-07
2.76778e-07
2.76108e-07
2.73839e-07
2.74856e-07
2.73407e-07
2.71432e-07
2.76442e-07
2.70168e-07
2.82453e-07
2.68963e-07
2.95541e-07
2.66945e-07
2.94668e-07
2.10596e-07
1.59455e-07
1.03049e-07
1.83819e-07
2.27834e-07
2.4067e-07
2.33608e-07
2.32596e-07
2.31965e-07
2.2976e-07
2.30804e-07
2.29392e-07
2.27517e-07
2.32211e-07
2.26263e-07
2.38009e-07
2.25136e-07
2.51058e-07
2.23814e-07
2.53723e-07
1.82034e-07
1.39709e-07
9.6569e-08
1.59163e-07
1.89245e-07
1.98246e-07
1.91454e-07
1.90406e-07
1.89842e-07
1.8779e-07
1.88808e-07
1.87485e-07
1.85752e-07
1.89942e-07
1.84556e-07
1.95454e-07
1.83503e-07
2.04302e-07
1.82545e-07
2.13307e-07
1.53621e-07
1.20432e-07
8.73312e-08
1.33427e-07
1.52446e-07
1.58427e-07
1.50877e-07
1.50081e-07
1.49534e-07
1.475e-07
1.48551e-07
1.47221e-07
1.45796e-07
1.50722e-07
1.44699e-07
1.54457e-07
1.43858e-07
1.63721e-07
1.44435e-07
1.74431e-07
1.2608e-07
1.02599e-07
7.57818e-08
1.07842e-07
1.18612e-07
1.2238e-07
1.15757e-07
1.15007e-07
1.14553e-07
1.12797e-07
1.13737e-07
1.12573e-07
1.11362e-07
1.15586e-07
1.10404e-07
1.18788e-07
1.09683e-07
1.26849e-07
1.10389e-07
1.37716e-07
9.84594e-08
8.54804e-08
6.27788e-08
8.36759e-08
8.87639e-08
9.0997e-08
8.54668e-08
8.482e-08
8.44621e-08
8.30125e-08
8.38134e-08
8.28387e-08
8.18514e-08
8.53187e-08
8.10484e-08
8.79484e-08
8.04545e-08
9.46217e-08
8.11611e-08
1.03903e-07
7.49411e-08
6.94282e-08
4.94153e-08
6.20511e-08
6.3616e-08
6.48492e-08
6.04701e-08
5.99532e-08
5.96846e-08
5.85463e-08
5.91944e-08
5.84171e-08
5.76483e-08
6.03638e-08
5.70066e-08
6.24185e-08
5.654e-08
6.76595e-08
5.7169e-08
7.56003e-08
5.46677e-08
5.39032e-08
3.6788e-08
4.37739e-08
4.34675e-08
4.40938e-08
4.08184e-08
4.04349e-08
4.02429e-08
3.93963e-08
3.98921e-08
3.93045e-08
3.87363e-08
4.07559e-08
3.82497e-08
4.22753e-08
3.79018e-08
4.61657e-08
3.84119e-08
5.26411e-08
3.8032e-08
4.03478e-08
2.47125e-08
2.61323e-08
2.43644e-08
2.71904e-08
2.41195e-08
2.99089e-08
2.45002e-08
3.48314e-08
2.50973e-08
2.86842e-08
)
;

boundaryField
{
    fuel
    {
        type            fixedValue;
        value           nonuniform 0();
    }
    wall
    {
        type            zeroGradient;
    }
    outlet
    {
        type            zeroGradient;
    }
    frontAndBack
    {
        type            empty;
    }
    procBoundary0to1
    {
        type            processor;
        value           nonuniform List<scalar> 
21
(
2.57754e-08
2.92269e-08
2.81765e-08
2.84639e-08
2.61592e-08
2.58961e-08
2.57647e-08
2.51713e-08
2.55284e-08
2.51091e-08
2.51091e-08
1.48825e-08
1.5821e-08
1.46488e-08
1.65111e-08
1.44871e-08
1.82907e-08
1.47512e-08
2.17517e-08
1.56168e-08
1.92283e-08
)
;
    }
    procBoundary0to2
    {
        type            processor;
        value           nonuniform List<scalar> 
12
(
4.92883e-07
1.09693e-07
2.68975e-07
4.12702e-07
4.56801e-07
4.54996e-07
4.54322e-07
4.53784e-07
4.51998e-07
4.52474e-07
4.51268e-07
4.51268e-07
)
;
    }
    procBoundary0to3
    {
        type            processor;
        value           nonuniform List<scalar> 10(5.30808e-07 5.35319e-07 5.30133e-07 5.40773e-07 5.28835e-07 5.51436e-07 5.19853e-07 5.1946e-07 3.68336e-07 3.33093e-07);
    }
}


// ************************************************************************* //
