/*--------------------------------*- C++ -*----------------------------------*\
| =========                 |                                                 |
| \\      /  F ield         | OpenFOAM: The Open Source CFD Toolbox           |
|  \\    /   O peration     | Version:  dev                                   |
|   \\  /    A nd           | Web:      www.OpenFOAM.org                      |
|    \\/     M anipulation  |                                                 |
\*---------------------------------------------------------------------------*/
FoamFile
{
    version     2.0;
    format      ascii;
    class       volScalarField;
    location    "0.155";
    object      CH4;
}
// * * * * * * * * * * * * * * * * * * * * * * * * * * * * * * * * * * * * * //

dimensions      [0 0 0 0 0 0 0];

internalField   nonuniform List<scalar> 
250
(
0.000926822
0.000926343
0.000926908
0.000925896
0.000927133
0.00092701
0.000937516
0.000973591
0.00112809
0.00162974
0.000931207
0.000930589
0.000931331
0.000929968
0.000931592
0.000930696
0.000941545
0.000974879
0.00112144
0.0016528
0.00121271
0.0010702
0.000972948
0.000943516
0.000937515
0.000936217
0.000936164
0.000936581
0.000936318
0.000936661
0.000936799
0.000936043
0.000936964
0.00093525
0.00093726
0.000935528
0.00094672
0.000976941
0.00111477
0.00165881
0.00118534
0.00106195
0.000976189
0.000949386
0.000944082
0.000942864
0.000942822
0.000943291
0.000942994
0.000943368
0.000943565
0.000942679
0.000943773
0.000941722
0.000944101
0.000941544
0.000953017
0.000979933
0.00110812
0.00164886
0.00116286
0.0010556
0.000980619
0.000956376
0.000951742
0.000950611
0.000950577
0.000951093
0.000950762
0.000951164
0.000951418
0.00095042
0.000951666
0.000949312
0.000952023
0.000948688
0.000960361
0.000983885
0.00110177
0.00162482
0.0011447
0.00105181
0.000986173
0.000964371
0.000960362
0.000959319
0.00095929
0.000959842
0.000959482
0.000959908
0.000960211
0.000959129
0.000960494
0.00095789
0.000960875
0.000956839
0.00096862
0.000988778
0.00109558
0.00158757
0.00113033
0.00104979
0.000992708
0.000973198
0.000969745
0.000968791
0.000968762
0.000969337
0.000968954
0.000969396
0.000969739
0.000968612
0.000970047
0.000967263
0.000970448
0.000965812
0.000977603
0.000994538
0.00109041
0.00153862
0.00111929
0.00104945
0.00100002
0.000982627
0.000979636
0.000978774
0.000978742
0.000979321
0.000978926
0.000979374
0.000979744
0.000978622
0.000980066
0.000977187
0.000980481
0.000976351
0.000987091
0.00100102
0.00108612
0.00148341
0.00111111
0.00105049
0.00100783
0.000992383
0.000990181
0.000989332
0.000989313
0.000989942
0.000989512
0.000989999
0.000990345
0.00098887
0.00099067
0.00098778
0.000991056
0.000986458
0.000996748
0.00100804
0.00108273
0.00142956
0.00110531
0.00105261
0.00101586
0.00100215
0.00100028
0.000999505
0.000999478
0.00100009
0.000999661
0.00100014
0.00100048
0.000999043
0.00100079
0.000997995
0.00100116
0.000996623
0.00100629
0.00101546
0.00108001
0.00137837
0.00110141
0.00105544
0.00102378
0.00101163
0.00101
0.00100929
0.00100925
0.00100982
0.00100942
0.00100988
0.00101019
0.00100884
0.00101048
0.00100786
0.00101083
0.00100654
0.00101543
0.00102314
0.00107818
0.00133156
0.0010989
0.00105864
0.00103129
0.00102055
0.00101908
0.00101842
0.00101838
0.0010189
0.00101852
0.00101895
0.00101924
0.001018
0.0010195
0.00101712
0.00101982
0.00101591
0.00102392
0.00103037
0.00107688
0.00128726
0.00109731
0.00106189
0.00103817
0.00102867
0.00102731
0.00102671
0.00102665
0.00102712
0.00102677
0.00102717
0.00102742
0.00102631
0.00102764
0.00102555
0.00102793
0.0010245
0.00103157
0.00103703
0.00107594
0.00124891
0.00103462
0.00103366
0.0010348
0.00103301
0.00103505
0.00103216
0.00103827
0.001043
0.0010752
0.00121521
)
;

boundaryField
{
    fuel
    {
        type            fixedValue;
        value           nonuniform 0();
    }
    wall
    {
        type            zeroGradient;
    }
    outlet
    {
        type            zeroGradient;
    }
    frontAndBack
    {
        type            empty;
    }
    procBoundary0to1
    {
        type            processor;
        value           nonuniform List<scalar> 
21
(
0.00109625
0.0010649
0.00104425
0.00103585
0.00103457
0.00103401
0.00103395
0.00103436
0.00103405
0.00103441
0.00103441
0.0010408
0.00103999
0.00104095
0.00103946
0.00104116
0.00103881
0.00104398
0.00104818
0.00107455
0.0011862
)
;
    }
    procBoundary0to2
    {
        type            processor;
        value           nonuniform List<scalar> 
12
(
0.000926799
0.00124567
0.00107967
0.000970907
0.000938818
0.000932119
0.000930749
0.000930685
0.000931045
0.000930817
0.000931128
0.000931128
)
;
    }
    procBoundary0to3
    {
        type            processor;
        value           nonuniform List<scalar> 10(0.000923632 0.000923287 0.000923685 0.00092301 0.000923876 0.000924522 0.00093461 0.000973143 0.00113399 0.00158957);
    }
}


// ************************************************************************* //
