/*--------------------------------*- C++ -*----------------------------------*\
| =========                 |                                                 |
| \\      /  F ield         | OpenFOAM: The Open Source CFD Toolbox           |
|  \\    /   O peration     | Version:  dev                                   |
|   \\  /    A nd           | Web:      www.OpenFOAM.org                      |
|    \\/     M anipulation  |                                                 |
\*---------------------------------------------------------------------------*/
FoamFile
{
    version     2.0;
    format      ascii;
    class       volScalarField;
    location    "0.155";
    object      H2O2;
}
// * * * * * * * * * * * * * * * * * * * * * * * * * * * * * * * * * * * * * //

dimensions      [0 0 0 0 0 0 0];

internalField   nonuniform List<scalar> 
250
(
4.74702e-11
4.75952e-11
4.75795e-11
4.77271e-11
4.77842e-11
4.78337e-11
4.81511e-11
4.36009e-11
3.32032e-11
1.69448e-10
4.39581e-11
4.4098e-11
4.40433e-11
4.42258e-11
4.42932e-11
4.43462e-11
4.48171e-11
4.09282e-11
3.13168e-11
1.04765e-10
2.72546e-11
3.0937e-11
3.96884e-11
3.99952e-11
4.19097e-11
4.00062e-11
4.10925e-11
4.00379e-11
4.06192e-11
4.01015e-11
4.02887e-11
4.0431e-11
4.03583e-11
4.05647e-11
4.06408e-11
4.06985e-11
4.13094e-11
3.80397e-11
2.96584e-11
6.69144e-11
2.54232e-11
2.86369e-11
3.63617e-11
3.62908e-11
3.816e-11
3.61934e-11
3.73024e-11
3.62146e-11
3.68296e-11
3.6294e-11
3.64865e-11
3.66249e-11
3.65452e-11
3.67661e-11
3.68498e-11
3.69121e-11
3.76417e-11
3.49389e-11
2.78879e-11
4.48014e-11
2.37713e-11
2.62587e-11
3.29176e-11
3.24773e-11
3.42967e-11
3.22859e-11
3.34053e-11
3.23002e-11
3.29409e-11
3.23951e-11
3.25903e-11
3.27207e-11
3.26405e-11
3.28667e-11
3.29575e-11
3.30241e-11
3.3844e-11
3.16519e-11
2.58641e-11
3.18835e-11
2.21923e-11
2.37991e-11
2.9383e-11
2.86079e-11
3.03706e-11
2.83395e-11
2.94511e-11
2.83484e-11
2.90064e-11
2.846e-11
2.86545e-11
2.87724e-11
2.86976e-11
2.89183e-11
2.90167e-11
2.90878e-11
2.99621e-11
2.82261e-11
2.38578e-11
2.42386e-11
2.05925e-11
2.10136e-11
2.5804e-11
2.47474e-11
2.64529e-11
2.4424e-11
2.55055e-11
2.44275e-11
2.50942e-11
2.45587e-11
2.47486e-11
2.48483e-11
2.47859e-11
2.49876e-11
2.50964e-11
2.51725e-11
2.60591e-11
2.47278e-11
2.15416e-11
1.95022e-11
1.89273e-11
1.84355e-11
2.22474e-11
2.09717e-11
2.23259e-11
2.06204e-11
2.16477e-11
2.06182e-11
2.12855e-11
2.07735e-11
2.09549e-11
2.10284e-11
2.09878e-11
2.11543e-11
2.12786e-11
2.13614e-11
2.22127e-11
2.12434e-11
1.91051e-11
1.62861e-11
1.70528e-11
1.58266e-11
1.87956e-11
1.73764e-11
1.86131e-11
1.70178e-11
1.79664e-11
1.70086e-11
1.7548e-11
1.70659e-11
1.72292e-11
1.73989e-11
1.72516e-11
1.75061e-11
1.7543e-11
1.7586e-11
1.85119e-11
1.77782e-11
1.6534e-11
1.38071e-11
1.52604e-11
1.32227e-11
1.53189e-11
1.40464e-11
1.51446e-11
1.37013e-11
1.4551e-11
1.36876e-11
1.41884e-11
1.37537e-11
1.39e-11
1.40476e-11
1.39191e-11
1.41353e-11
1.41767e-11
1.42185e-11
1.5054e-11
1.43012e-11
1.39216e-11
1.16641e-11
1.33923e-11
1.07941e-11
1.22898e-11
1.10587e-11
1.20034e-11
1.0744e-11
1.1481e-11
1.07296e-11
1.1177e-11
1.07979e-11
1.09246e-11
1.10488e-11
1.09404e-11
1.11186e-11
1.11599e-11
1.1198e-11
1.19241e-11
1.1372e-11
1.13876e-11
9.68922e-12
1.16229e-11
8.59096e-12
9.58963e-12
8.46983e-12
9.25552e-12
8.19767e-12
8.81535e-12
8.18522e-12
8.56828e-12
8.24937e-12
8.35529e-12
8.45654e-12
8.36784e-12
8.51102e-12
8.54801e-12
8.58063e-12
9.18757e-12
8.78901e-12
9.03376e-12
7.84704e-12
9.98146e-12
6.65916e-12
7.27386e-12
6.30802e-12
6.94055e-12
6.08516e-12
6.58504e-12
6.07627e-12
6.39034e-12
6.13204e-12
6.21726e-12
6.29722e-12
6.22697e-12
6.33882e-12
6.36928e-12
6.39558e-12
6.88293e-12
6.59869e-12
6.94438e-12
6.16586e-12
4.50539e-12
4.56658e-12
4.51271e-12
4.59751e-12
4.62097e-12
4.64117e-12
5.01701e-12
4.81638e-12
5.17497e-12
4.69143e-12
)
;

boundaryField
{
    fuel
    {
        type            fixedValue;
        value           nonuniform 0();
    }
    wall
    {
        type            zeroGradient;
    }
    outlet
    {
        type            zeroGradient;
    }
    frontAndBack
    {
        type            empty;
    }
    procBoundary0to1
    {
        type            processor;
        value           nonuniform List<scalar> 
21
(
8.42752e-12
5.03129e-12
5.36387e-12
4.57376e-12
5.0644e-12
4.39952e-12
4.78953e-12
4.39388e-12
4.64091e-12
4.43942e-12
4.43942e-12
3.18662e-12
3.23197e-12
3.192e-12
3.25427e-12
3.27143e-12
3.28653e-12
3.56514e-12
3.42499e-12
3.74453e-12
3.45894e-12
)
;
    }
    procBoundary0to2
    {
        type            processor;
        value           nonuniform List<scalar> 
12
(
4.72998e-11
2.90576e-11
3.35953e-11
4.28747e-11
4.35685e-11
4.55068e-11
4.36875e-11
4.47408e-11
4.37319e-11
4.42734e-11
4.37785e-11
4.37785e-11
)
;
    }
    procBoundary0to3
    {
        type            processor;
        value           nonuniform List<scalar> 10(5.08148e-11 5.08971e-11 5.09594e-11 5.10585e-11 5.11045e-11 5.11506e-11 5.1306e-11 4.63452e-11 3.56776e-11 2.85817e-10);
    }
}


// ************************************************************************* //
