/*--------------------------------*- C++ -*----------------------------------*\
| =========                 |                                                 |
| \\      /  F ield         | OpenFOAM: The Open Source CFD Toolbox           |
|  \\    /   O peration     | Version:  dev                                   |
|   \\  /    A nd           | Web:      www.OpenFOAM.org                      |
|    \\/     M anipulation  |                                                 |
\*---------------------------------------------------------------------------*/
FoamFile
{
    version     2.0;
    format      ascii;
    class       volScalarField;
    location    "0.155";
    object      PC3H4;
}
// * * * * * * * * * * * * * * * * * * * * * * * * * * * * * * * * * * * * * //

dimensions      [0 0 0 0 0 0 0];

internalField   nonuniform List<scalar> 
250
(
1.26687e-07
1.26963e-07
1.2665e-07
1.27362e-07
1.26578e-07
1.2908e-07
1.30352e-07
1.46643e-07
1.80357e-07
3.202e-07
1.24486e-07
1.24731e-07
1.24452e-07
1.25084e-07
1.24389e-07
1.26642e-07
1.27965e-07
1.42924e-07
1.73824e-07
3.13834e-07
1.84295e-07
1.63121e-07
1.3558e-07
1.26596e-07
1.23529e-07
1.22882e-07
1.22813e-07
1.22801e-07
1.22741e-07
1.22759e-07
1.22591e-07
1.22806e-07
1.22561e-07
1.23114e-07
1.2251e-07
1.2454e-07
1.25877e-07
1.39706e-07
1.67853e-07
3.03853e-07
1.76953e-07
1.57152e-07
1.32887e-07
1.24719e-07
1.2186e-07
1.2125e-07
1.21177e-07
1.21158e-07
1.21105e-07
1.21118e-07
1.20968e-07
1.21156e-07
1.20943e-07
1.21423e-07
1.20906e-07
1.22722e-07
1.24055e-07
1.3675e-07
1.6217e-07
2.91036e-07
1.70183e-07
1.51527e-07
1.30467e-07
1.2308e-07
1.20421e-07
1.19849e-07
1.19772e-07
1.19745e-07
1.19698e-07
1.19706e-07
1.19573e-07
1.19737e-07
1.19552e-07
1.19969e-07
1.19531e-07
1.21152e-07
1.22459e-07
1.34044e-07
1.56786e-07
2.76164e-07
1.63957e-07
1.46935e-07
1.28278e-07
1.21624e-07
1.1916e-07
1.18623e-07
1.18543e-07
1.18507e-07
1.18466e-07
1.18469e-07
1.18351e-07
1.18495e-07
1.18333e-07
1.18701e-07
1.18326e-07
1.19785e-07
1.21034e-07
1.3156e-07
1.51403e-07
2.59302e-07
1.5821e-07
1.42612e-07
1.26258e-07
1.20289e-07
1.1801e-07
1.17505e-07
1.17423e-07
1.17378e-07
1.17343e-07
1.17338e-07
1.17234e-07
1.17364e-07
1.17217e-07
1.17555e-07
1.17222e-07
1.18564e-07
1.19711e-07
1.29257e-07
1.46553e-07
2.4092e-07
1.52874e-07
1.3872e-07
1.24335e-07
1.18999e-07
1.16896e-07
1.16419e-07
1.16334e-07
1.16278e-07
1.1625e-07
1.16238e-07
1.16143e-07
1.16266e-07
1.16125e-07
1.16452e-07
1.16139e-07
1.17313e-07
1.18408e-07
1.27076e-07
1.41985e-07
2.22635e-07
1.47862e-07
1.35055e-07
1.22421e-07
1.17665e-07
1.15689e-07
1.1524e-07
1.15152e-07
1.15076e-07
1.15061e-07
1.15034e-07
1.14948e-07
1.15109e-07
1.14926e-07
1.15268e-07
1.14949e-07
1.16117e-07
1.17043e-07
1.24942e-07
1.37637e-07
2.06182e-07
1.43074e-07
1.31513e-07
1.20417e-07
1.16196e-07
1.14357e-07
1.1393e-07
1.13839e-07
1.13748e-07
1.13743e-07
1.13705e-07
1.13621e-07
1.13799e-07
1.13592e-07
1.13969e-07
1.13617e-07
1.14795e-07
1.15515e-07
1.22737e-07
1.33127e-07
1.91222e-07
1.38394e-07
1.27974e-07
1.18218e-07
1.14487e-07
1.12759e-07
1.12355e-07
1.12263e-07
1.12153e-07
1.12162e-07
1.12108e-07
1.12023e-07
1.12231e-07
1.11985e-07
1.12418e-07
1.12007e-07
1.13243e-07
1.13721e-07
1.20331e-07
1.28894e-07
1.77815e-07
1.33692e-07
1.24308e-07
1.15709e-07
1.12428e-07
1.1079e-07
1.10408e-07
1.10314e-07
1.10183e-07
1.10209e-07
1.10138e-07
1.10047e-07
1.10295e-07
1.09997e-07
1.10508e-07
1.10014e-07
1.11349e-07
1.11554e-07
1.17718e-07
1.24583e-07
1.65076e-07
1.28828e-07
1.20379e-07
1.12772e-07
1.09902e-07
1.08335e-07
1.07976e-07
1.07881e-07
1.07727e-07
1.07772e-07
1.07681e-07
1.07581e-07
1.07879e-07
1.07516e-07
1.08122e-07
1.07524e-07
1.08995e-07
1.08904e-07
1.14753e-07
1.20073e-07
1.53678e-07
1.04515e-07
1.0487e-07
1.04433e-07
1.05146e-07
1.0443e-07
1.06059e-07
1.0566e-07
1.11296e-07
1.15238e-07
1.43016e-07
)
;

boundaryField
{
    fuel
    {
        type            fixedValue;
        value           nonuniform 0();
    }
    wall
    {
        type            zeroGradient;
    }
    outlet
    {
        type            zeroGradient;
    }
    frontAndBack
    {
        type            empty;
    }
    procBoundary0to1
    {
        type            processor;
        value           nonuniform List<scalar> 
21
(
1.23654e-07
1.16045e-07
1.09288e-07
1.06793e-07
1.05281e-07
1.04947e-07
1.04851e-07
1.04673e-07
1.0474e-07
1.04627e-07
1.04627e-07
1.00746e-07
1.0116e-07
1.00646e-07
1.01469e-07
1.00629e-07
1.02426e-07
1.01722e-07
1.07217e-07
1.09946e-07
1.32903e-07
)
;
    }
    procBoundary0to2
    {
        type            processor;
        value           nonuniform List<scalar> 
12
(
1.2689e-07
1.92221e-07
1.69115e-07
1.38572e-07
1.28747e-07
1.2547e-07
1.24788e-07
1.24724e-07
1.2472e-07
1.2465e-07
1.24673e-07
1.24673e-07
)
;
    }
    procBoundary0to3
    {
        type            processor;
        value           nonuniform List<scalar> 10(1.29217e-07 1.29525e-07 1.29181e-07 1.29973e-07 1.29104e-07 1.31815e-07 1.33051e-07 1.50375e-07 1.87039e-07 3.2238e-07);
    }
}


// ************************************************************************* //
