/*--------------------------------*- C++ -*----------------------------------*\
| =========                 |                                                 |
| \\      /  F ield         | OpenFOAM: The Open Source CFD Toolbox           |
|  \\    /   O peration     | Version:  dev                                   |
|   \\  /    A nd           | Web:      www.OpenFOAM.org                      |
|    \\/     M anipulation  |                                                 |
\*---------------------------------------------------------------------------*/
FoamFile
{
    version     2.0;
    format      ascii;
    class       volScalarField;
    location    "0.025";
    object      A3C2H;
}
// * * * * * * * * * * * * * * * * * * * * * * * * * * * * * * * * * * * * * //

dimensions      [0 0 0 0 0 0 0];

internalField   nonuniform List<scalar> 
250
(
1.50956e-11
1.49385e-09
8.37887e-10
7.8276e-10
7.78056e-10
7.76162e-10
7.76156e-10
7.75755e-10
7.76016e-10
3.61593e-11
2.28705e-09
9.82883e-10
8.88424e-10
8.79834e-10
8.77044e-10
8.77071e-10
8.76413e-10
8.76649e-10
5.05021e-11
2.5781e-09
9.14577e-10
7.991e-10
7.8824e-10
7.84399e-10
7.84418e-10
7.83557e-10
7.83753e-10
5.71584e-11
2.55545e-09
7.92943e-10
6.69737e-10
6.57451e-10
6.52752e-10
6.52724e-10
6.51754e-10
6.51928e-10
5.79831e-11
2.35674e-09
6.67888e-10
5.4613e-10
5.3227e-10
5.27544e-10
5.2745e-10
5.26466e-10
5.26623e-10
5.54359e-11
2.08531e-09
5.48891e-10
4.3599e-10
4.23487e-10
4.21309e-10
4.21158e-10
4.20224e-10
4.20366e-10
5.14949e-11
1.7587e-09
4.52549e-10
3.50054e-10
3.36951e-10
3.35751e-10
3.35549e-10
3.34701e-10
3.34829e-10
4.81471e-11
1.48689e-09
3.73877e-10
2.82471e-10
2.65151e-10
2.62647e-10
2.6239e-10
2.61465e-10
2.61588e-10
4.75448e-11
1.2485e-09
3.02688e-10
2.27664e-10
2.12439e-10
2.10012e-10
2.09736e-10
2.08883e-10
2.09001e-10
4.93481e-11
1.00024e-09
2.44045e-10
1.81359e-10
1.71902e-10
1.6982e-10
1.69554e-10
1.6877e-10
1.68892e-10
5.16471e-11
7.86306e-10
2.03177e-10
1.50204e-10
1.39827e-10
1.37342e-10
1.37012e-10
1.36091e-10
1.36219e-10
1.35921e-10
5.45236e-11
6.08827e-10
1.67251e-10
1.22929e-10
1.13215e-10
1.1087e-10
1.10575e-10
1.0969e-10
1.0982e-10
1.09526e-10
5.99812e-11
4.88819e-10
1.38722e-10
1.01645e-10
9.27178e-11
9.04676e-11
9.02124e-11
8.93546e-11
8.94877e-11
8.91983e-11
6.96137e-11
3.93305e-10
1.16275e-10
8.49259e-11
7.67965e-11
7.46257e-11
7.44096e-11
7.35751e-11
7.37102e-11
7.34253e-11
8.35798e-11
3.18515e-10
9.85346e-11
7.16702e-11
6.43135e-11
6.22203e-11
6.20381e-11
6.12267e-11
6.13606e-11
6.10812e-11
1.0078e-10
2.6185e-10
8.44329e-11
6.10662e-11
5.44356e-11
5.2424e-11
5.22675e-11
5.14814e-11
5.16096e-11
5.13372e-11
1.19956e-10
2.11816e-10
7.31356e-11
5.25173e-11
4.65532e-11
4.46283e-11
4.44884e-11
4.37306e-11
4.38483e-11
4.35841e-11
1.39348e-10
1.78818e-10
6.40411e-11
4.55819e-11
4.02174e-11
3.83836e-11
3.82512e-11
3.75244e-11
3.76269e-11
3.73723e-11
1.58122e-10
1.53504e-10
5.66615e-11
3.9929e-11
3.50944e-11
3.33539e-11
3.32211e-11
3.25272e-11
3.26103e-11
3.23662e-11
1.75529e-10
1.34182e-10
5.06291e-11
3.53056e-11
3.09325e-11
2.92846e-11
2.91455e-11
2.84852e-11
2.85454e-11
2.83121e-11
1.91129e-10
1.19451e-10
4.56617e-11
3.15143e-11
2.75382e-11
2.59796e-11
2.58308e-11
2.52034e-11
2.52376e-11
2.5015e-11
2.04707e-10
1.08154e-10
4.1539e-11
2.83968e-11
2.47599e-11
2.3284e-11
2.3126e-11
2.25295e-11
2.25351e-11
2.23229e-11
2.16127e-10
9.94391e-11
3.80836e-11
2.58214e-11
2.24749e-11
2.10718e-11
2.09113e-11
2.03423e-11
2.0317e-11
2.01142e-11
2.25198e-10
9.19988e-11
3.54893e-11
2.39557e-11
2.08018e-11
1.94496e-11
1.9088e-11
1.8542e-11
1.84833e-11
1.82887e-11
2.31639e-10
8.61774e-11
3.33323e-11
2.24549e-11
1.94516e-11
1.81387e-11
1.77445e-11
1.7211e-11
1.71241e-11
1.69334e-11
2.35084e-10
8.12635e-11
3.1544e-11
2.12409e-11
1.83719e-11
1.70848e-11
1.66504e-11
1.61235e-11
1.60077e-11
1.58186e-11
)
;

boundaryField
{
    fuel
    {
        type            fixedValue;
        value           uniform 0;
    }
    wall
    {
        type            zeroGradient;
    }
    outlet
    {
        type            zeroGradient;
    }
    frontAndBack
    {
        type            empty;
    }
    procBoundary2to0
    {
        type            processor;
        value           nonuniform List<scalar> 
12
(
1.69392e-11
2.35021e-10
7.69657e-11
3.00651e-11
2.03071e-11
1.75196e-11
1.62432e-11
1.57612e-11
1.52345e-11
1.50891e-11
1.58236e-11
1.48992e-11
)
;
    }
    procBoundary2to3
    {
        type            processor;
        value           nonuniform List<scalar> 
25
(
7.75552e-10
8.76028e-10
7.83186e-10
6.51458e-10
5.26242e-10
4.20051e-10
3.34562e-10
2.61307e-10
2.0874e-10
1.68643e-10
1.68643e-10
1.35911e-10
1.09527e-10
8.92068e-11
7.34382e-11
6.10963e-11
5.13529e-11
4.35997e-11
3.7387e-11
3.23797e-11
2.83241e-11
2.50256e-11
2.23319e-11
2.01216e-11
1.82945e-11
)
;
    }
}


// ************************************************************************* //
