/*--------------------------------*- C++ -*----------------------------------*\
| =========                 |                                                 |
| \\      /  F ield         | OpenFOAM: The Open Source CFD Toolbox           |
|  \\    /   O peration     | Version:  dev                                   |
|   \\  /    A nd           | Web:      www.OpenFOAM.org                      |
|    \\/     M anipulation  |                                                 |
\*---------------------------------------------------------------------------*/
FoamFile
{
    version     2.0;
    format      ascii;
    class       volScalarField;
    location    "0.025";
    object      c-C6H4;
}
// * * * * * * * * * * * * * * * * * * * * * * * * * * * * * * * * * * * * * //

dimensions      [0 0 0 0 0 0 0];

internalField   nonuniform List<scalar> 
1997
(
8.70219e-07
8.71047e-07
8.70498e-07
8.70286e-07
8.69608e-07
8.69193e-07
8.68694e-07
8.68353e-07
8.68019e-07
8.67764e-07
8.67473e-07
8.67216e-07
8.66942e-07
8.66682e-07
8.66321e-07
8.66059e-07
8.65727e-07
8.65458e-07
8.57316e-07
8.57996e-07
8.57291e-07
8.56956e-07
8.56203e-07
8.55739e-07
8.55209e-07
8.54848e-07
8.54507e-07
8.54253e-07
8.53962e-07
8.53703e-07
8.53435e-07
8.53187e-07
8.52833e-07
8.52574e-07
8.52245e-07
8.5198e-07
8.51687e-07
8.51454e-07
8.51224e-07
8.51053e-07
8.50904e-07
8.50811e-07
8.50758e-07
8.50756e-07
8.50807e-07
8.50898e-07
8.44523e-07
8.45051e-07
8.44182e-07
8.43718e-07
8.42884e-07
8.4237e-07
8.41805e-07
8.41426e-07
8.41078e-07
8.40828e-07
8.40537e-07
8.40278e-07
8.40017e-07
8.39785e-07
8.39441e-07
8.39185e-07
8.38861e-07
8.38601e-07
8.38313e-07
8.38082e-07
8.37854e-07
8.37684e-07
8.37535e-07
8.37442e-07
8.37389e-07
8.37388e-07
8.37438e-07
8.37529e-07
8.37667e-07
8.37834e-07
8.38056e-07
8.38282e-07
8.38567e-07
8.38828e-07
8.39135e-07
8.39387e-07
8.39726e-07
8.39966e-07
8.40208e-07
8.40461e-07
8.3179e-07
8.32164e-07
8.3112e-07
8.30521e-07
8.29598e-07
8.29034e-07
8.28433e-07
8.28033e-07
8.27679e-07
8.27438e-07
8.27148e-07
8.26891e-07
8.26636e-07
8.26427e-07
8.26092e-07
8.25841e-07
8.25524e-07
8.2527e-07
8.24986e-07
8.24759e-07
8.24533e-07
8.24364e-07
8.24216e-07
8.24124e-07
8.24071e-07
8.24069e-07
8.24119e-07
8.24209e-07
8.2435e-07
8.24515e-07
8.24736e-07
8.24958e-07
8.2524e-07
8.25495e-07
8.25796e-07
8.26042e-07
8.26372e-07
8.26591e-07
8.26825e-07
8.27077e-07
8.27361e-07
8.27606e-07
8.27951e-07
8.28348e-07
8.28938e-07
8.29529e-07
8.30477e-07
8.31093e-07
8.32141e-07
8.31773e-07
8.19068e-07
8.19282e-07
8.18053e-07
8.17311e-07
8.16291e-07
8.1568e-07
8.15039e-07
8.14618e-07
8.14258e-07
8.14032e-07
8.13743e-07
8.13488e-07
8.13239e-07
8.1306e-07
8.12735e-07
8.1249e-07
8.12184e-07
8.11935e-07
8.11656e-07
8.11433e-07
8.11209e-07
8.11043e-07
8.10896e-07
8.10804e-07
8.10751e-07
8.10749e-07
8.10799e-07
8.10888e-07
8.11029e-07
8.11192e-07
8.11411e-07
8.11628e-07
8.11907e-07
8.12156e-07
8.12447e-07
8.12688e-07
8.13007e-07
8.13197e-07
8.13425e-07
8.13676e-07
8.13962e-07
8.14192e-07
8.14545e-07
8.14964e-07
8.15574e-07
8.16232e-07
8.17279e-07
8.18037e-07
8.19264e-07
8.19054e-07
8.06304e-07
8.06355e-07
8.04929e-07
8.04034e-07
8.02908e-07
8.02254e-07
8.0157e-07
8.01126e-07
8.00762e-07
8.00437e-07
8.00197e-07
8.00003e-07
7.99771e-07
7.99632e-07
7.9932e-07
7.99081e-07
7.98787e-07
7.98544e-07
7.98271e-07
7.98052e-07
7.97831e-07
7.97667e-07
7.97522e-07
7.97431e-07
7.97378e-07
7.97376e-07
7.97425e-07
7.97513e-07
7.97653e-07
7.97813e-07
7.9803e-07
7.98242e-07
7.98516e-07
7.98758e-07
7.99039e-07
7.99273e-07
7.9958e-07
7.99729e-07
7.99945e-07
8.00135e-07
8.00376e-07
8.00699e-07
8.0106e-07
8.01501e-07
8.02122e-07
8.02857e-07
8.04012e-07
8.04923e-07
8.0634e-07
8.06293e-07
7.93447e-07
7.9333e-07
7.91696e-07
7.90637e-07
7.89393e-07
7.88703e-07
7.87973e-07
7.87506e-07
7.87137e-07
7.86826e-07
7.86594e-07
7.86406e-07
7.8618e-07
7.86093e-07
7.85794e-07
7.85562e-07
7.85282e-07
7.85045e-07
7.84778e-07
7.84565e-07
7.84347e-07
7.84186e-07
7.84042e-07
7.83952e-07
7.839e-07
7.83898e-07
7.83946e-07
7.84033e-07
7.84171e-07
7.84328e-07
7.84541e-07
7.84747e-07
7.85017e-07
7.85251e-07
7.85519e-07
7.85746e-07
7.8604e-07
7.86135e-07
7.86349e-07
7.86532e-07
7.86766e-07
7.87076e-07
7.87444e-07
7.87908e-07
7.88521e-07
7.8935e-07
7.90624e-07
7.917e-07
7.93318e-07
7.93438e-07
7.80167e-07
7.79875e-07
7.78067e-07
7.76995e-07
7.75692e-07
7.74649e-07
7.73871e-07
7.7339e-07
7.73034e-07
7.72755e-07
7.72559e-07
7.72407e-07
7.72204e-07
7.72204e-07
7.71938e-07
7.71736e-07
7.71489e-07
7.71276e-07
7.71029e-07
7.70834e-07
7.70631e-07
7.70481e-07
7.70346e-07
7.70261e-07
7.70211e-07
7.70209e-07
7.70254e-07
7.70335e-07
7.70464e-07
7.7061e-07
7.70808e-07
7.70997e-07
7.71245e-07
7.71455e-07
7.7169e-07
7.71888e-07
7.72149e-07
7.72152e-07
7.72348e-07
7.72497e-07
7.72697e-07
7.72975e-07
7.73332e-07
7.73812e-07
7.74712e-07
7.75658e-07
7.76945e-07
7.78024e-07
7.79867e-07
7.80163e-07
7.6694e-07
7.66471e-07
7.64428e-07
7.63184e-07
7.61755e-07
7.60653e-07
7.59822e-07
7.59315e-07
7.58959e-07
7.58693e-07
7.58519e-07
7.58381e-07
7.5818e-07
7.57834e-07
7.57584e-07
7.57392e-07
7.57164e-07
7.5696e-07
7.56722e-07
7.56534e-07
7.56337e-07
7.56192e-07
7.56059e-07
7.55976e-07
7.55927e-07
7.55925e-07
7.55969e-07
7.56047e-07
7.56173e-07
7.56314e-07
7.56507e-07
7.56687e-07
7.56927e-07
7.57127e-07
7.57344e-07
7.57532e-07
7.57778e-07
7.5812e-07
7.5832e-07
7.58457e-07
7.58635e-07
7.589e-07
7.59259e-07
7.59765e-07
7.60673e-07
7.61732e-07
7.63142e-07
7.64393e-07
7.66465e-07
7.6694e-07
7.53456e-07
7.52803e-07
7.5051e-07
7.4909e-07
7.47535e-07
7.46359e-07
7.4547e-07
7.44934e-07
7.4458e-07
7.44328e-07
7.44185e-07
7.44061e-07
7.43866e-07
7.4358e-07
7.43347e-07
7.43166e-07
7.42958e-07
7.42765e-07
7.42535e-07
7.42357e-07
7.42165e-07
7.42026e-07
7.41897e-07
7.41816e-07
7.41768e-07
7.41765e-07
7.41808e-07
7.41884e-07
7.42006e-07
7.42141e-07
7.42327e-07
7.42498e-07
7.42728e-07
7.42919e-07
7.43115e-07
7.43292e-07
7.43521e-07
7.43798e-07
7.43999e-07
7.44123e-07
7.44269e-07
7.44522e-07
7.4488e-07
7.45414e-07
7.46352e-07
7.47524e-07
7.49054e-07
7.50481e-07
7.52801e-07
7.5346e-07
7.39286e-07
7.38479e-07
7.35927e-07
7.34387e-07
7.32764e-07
7.31565e-07
7.30701e-07
7.302e-07
7.29851e-07
7.29612e-07
7.29512e-07
7.29402e-07
7.29215e-07
7.28981e-07
7.28767e-07
7.28597e-07
7.28411e-07
7.2823e-07
7.28009e-07
7.27842e-07
7.27657e-07
7.27525e-07
7.274e-07
7.27321e-07
7.27274e-07
7.27271e-07
7.27312e-07
7.27384e-07
7.27502e-07
7.27631e-07
7.27809e-07
7.2797e-07
7.28189e-07
7.2837e-07
7.28543e-07
7.28709e-07
7.2892e-07
7.29143e-07
7.29339e-07
7.2945e-07
7.29553e-07
7.29794e-07
7.30149e-07
7.30668e-07
7.31562e-07
7.3278e-07
7.34367e-07
7.35913e-07
7.38488e-07
7.39301e-07
7.24664e-07
7.23656e-07
7.20825e-07
7.19099e-07
7.17376e-07
7.16059e-07
7.15138e-07
7.14608e-07
7.14266e-07
7.14073e-07
7.14094e-07
7.14047e-07
7.13925e-07
7.1378e-07
7.1363e-07
7.13535e-07
7.13421e-07
7.13301e-07
7.13101e-07
7.12947e-07
7.12771e-07
7.12646e-07
7.12525e-07
7.12449e-07
7.12404e-07
7.124e-07
7.1244e-07
7.12507e-07
7.1262e-07
7.12743e-07
7.12911e-07
7.1306e-07
7.13267e-07
7.13396e-07
7.13488e-07
7.13582e-07
7.13727e-07
7.13857e-07
7.13992e-07
7.14037e-07
7.14023e-07
7.14216e-07
7.1456e-07
7.15108e-07
7.16049e-07
7.174e-07
7.19087e-07
7.20818e-07
7.2367e-07
7.24687e-07
7.09575e-07
7.08365e-07
7.05236e-07
7.03323e-07
7.0153e-07
7.00054e-07
6.99075e-07
6.98516e-07
6.98183e-07
6.98005e-07
6.98111e-07
6.9808e-07
6.97977e-07
6.97879e-07
6.97753e-07
6.97675e-07
6.97582e-07
6.97492e-07
6.97306e-07
6.97167e-07
6.97e-07
6.96884e-07
6.96769e-07
6.96696e-07
6.96652e-07
6.96649e-07
6.96686e-07
6.96748e-07
6.96855e-07
6.9697e-07
6.97126e-07
6.97264e-07
6.97454e-07
6.97561e-07
6.97626e-07
6.97703e-07
6.97823e-07
6.9791e-07
6.98024e-07
6.98055e-07
6.97956e-07
6.98135e-07
6.98471e-07
6.99049e-07
7.00042e-07
7.01547e-07
7.03318e-07
7.05236e-07
7.08386e-07
7.09607e-07
6.93954e-07
6.92538e-07
6.89102e-07
6.86993e-07
6.8517e-07
6.83972e-07
6.82935e-07
6.82344e-07
6.82021e-07
6.81858e-07
6.81589e-07
6.81575e-07
6.81497e-07
6.81442e-07
6.81342e-07
6.81283e-07
6.81202e-07
6.81163e-07
6.80995e-07
6.80873e-07
6.80717e-07
6.80612e-07
6.80502e-07
6.80432e-07
6.8039e-07
6.80386e-07
6.80422e-07
6.80476e-07
6.80577e-07
6.80685e-07
6.80826e-07
6.80951e-07
6.81122e-07
6.81189e-07
6.81232e-07
6.8129e-07
6.81385e-07
6.8143e-07
6.81518e-07
6.81535e-07
6.8181e-07
6.81976e-07
6.82303e-07
6.82913e-07
6.8396e-07
6.85156e-07
6.86994e-07
6.8911e-07
6.92566e-07
6.94e-07
6.78231e-07
6.76628e-07
6.72856e-07
6.70549e-07
6.68678e-07
6.67291e-07
6.66169e-07
6.65544e-07
6.65257e-07
6.65146e-07
6.64964e-07
6.6497e-07
6.64921e-07
6.64907e-07
6.64834e-07
6.64796e-07
6.64707e-07
6.64752e-07
6.64607e-07
6.64504e-07
6.64358e-07
6.64265e-07
6.64161e-07
6.64095e-07
6.64053e-07
6.6405e-07
6.64084e-07
6.6413e-07
6.64225e-07
6.64325e-07
6.64449e-07
6.64561e-07
6.64705e-07
6.64694e-07
6.64741e-07
6.64781e-07
6.64848e-07
6.64855e-07
6.64914e-07
6.64911e-07
6.65104e-07
6.6522e-07
6.65511e-07
6.6616e-07
6.67291e-07
6.68657e-07
6.70557e-07
6.72871e-07
6.76664e-07
6.78298e-07
6.6193e-07
6.60136e-07
6.56032e-07
6.53502e-07
6.51576e-07
6.50078e-07
6.48892e-07
6.48224e-07
6.47954e-07
6.47866e-07
6.47753e-07
6.47785e-07
6.47768e-07
6.47794e-07
6.47748e-07
6.47732e-07
6.47612e-07
6.47436e-07
6.47328e-07
6.47253e-07
6.47123e-07
6.47046e-07
6.46951e-07
6.46891e-07
6.46853e-07
6.46849e-07
6.46879e-07
6.46914e-07
6.47001e-07
6.47088e-07
6.47188e-07
6.4728e-07
6.47374e-07
6.47539e-07
6.47675e-07
6.47695e-07
6.47735e-07
6.47704e-07
6.47729e-07
6.47702e-07
6.47828e-07
6.47922e-07
6.48196e-07
6.48888e-07
6.50083e-07
6.51567e-07
6.53517e-07
6.56056e-07
6.60179e-07
6.62032e-07
6.4466e-07
6.42636e-07
6.3841e-07
6.35832e-07
6.33533e-07
6.31971e-07
6.31024e-07
6.30305e-07
6.30055e-07
6.29994e-07
6.29941e-07
6.30004e-07
6.30023e-07
6.30088e-07
6.30071e-07
6.30077e-07
6.29945e-07
6.29878e-07
6.29804e-07
6.29748e-07
6.2963e-07
6.29562e-07
6.29473e-07
6.29417e-07
6.29381e-07
6.29376e-07
6.29405e-07
6.29435e-07
6.29515e-07
6.29593e-07
6.29677e-07
6.29756e-07
6.2978e-07
6.2987e-07
6.30018e-07
6.30017e-07
6.30028e-07
6.29959e-07
6.29949e-07
6.29893e-07
6.29959e-07
6.30029e-07
6.30282e-07
6.31025e-07
6.31979e-07
6.33521e-07
6.35855e-07
6.38453e-07
6.42688e-07
6.44828e-07
6.2658e-07
6.24337e-07
6.19839e-07
6.17536e-07
6.15171e-07
6.13548e-07
6.12496e-07
6.1163e-07
6.1136e-07
6.11308e-07
6.11286e-07
6.11358e-07
6.1141e-07
6.11523e-07
6.11534e-07
6.11571e-07
6.11458e-07
6.11536e-07
6.11482e-07
6.11432e-07
6.11321e-07
6.11252e-07
6.11168e-07
6.11114e-07
6.11079e-07
6.11074e-07
6.111e-07
6.11136e-07
6.11211e-07
6.11281e-07
6.11365e-07
6.1143e-07
6.1134e-07
6.11385e-07
6.11507e-07
6.11475e-07
6.11459e-07
6.11343e-07
6.11297e-07
6.11237e-07
6.11274e-07
6.11337e-07
6.11609e-07
6.12501e-07
6.13561e-07
6.15179e-07
6.17567e-07
6.19894e-07
6.24398e-07
6.26859e-07
6.08355e-07
6.05914e-07
6.01134e-07
5.98381e-07
5.95819e-07
5.94079e-07
5.92959e-07
5.92497e-07
5.92251e-07
5.92229e-07
5.92248e-07
5.9236e-07
5.92451e-07
5.92599e-07
5.92639e-07
5.92698e-07
5.92603e-07
5.92414e-07
5.92299e-07
5.92231e-07
5.92132e-07
5.92057e-07
5.91978e-07
5.91929e-07
5.91894e-07
5.91889e-07
5.91914e-07
5.9196e-07
5.92029e-07
5.9209e-07
5.92194e-07
5.92245e-07
5.92521e-07
5.9254e-07
5.92634e-07
5.92581e-07
5.92535e-07
5.92383e-07
5.92297e-07
5.92202e-07
5.92199e-07
5.92236e-07
5.9248e-07
5.92968e-07
5.94098e-07
5.95844e-07
5.98424e-07
6.01204e-07
6.05982e-07
6.08248e-07
5.8947e-07
5.86573e-07
5.81812e-07
5.78841e-07
5.76202e-07
5.74433e-07
5.73297e-07
5.72752e-07
5.72497e-07
5.72488e-07
5.72551e-07
5.72684e-07
5.72826e-07
5.73035e-07
5.73114e-07
5.73217e-07
5.73154e-07
5.73089e-07
5.72991e-07
5.72927e-07
5.72839e-07
5.72764e-07
5.72692e-07
5.72647e-07
5.72615e-07
5.72609e-07
5.72632e-07
5.72682e-07
5.72744e-07
5.72796e-07
5.72899e-07
5.72936e-07
5.73103e-07
5.73087e-07
5.73147e-07
5.7305e-07
5.72969e-07
5.72753e-07
5.72614e-07
5.72504e-07
5.72462e-07
5.72486e-07
5.72741e-07
5.7331e-07
5.74457e-07
5.76241e-07
5.78891e-07
5.81904e-07
5.86654e-07
5.89471e-07
5.69971e-07
5.66872e-07
5.61905e-07
5.58734e-07
5.55999e-07
5.54222e-07
5.53078e-07
5.52498e-07
5.52267e-07
5.52281e-07
5.52376e-07
5.52551e-07
5.52727e-07
5.52962e-07
5.5307e-07
5.53192e-07
5.53156e-07
5.5315e-07
5.53081e-07
5.53033e-07
5.52956e-07
5.52889e-07
5.52823e-07
5.52782e-07
5.52752e-07
5.52746e-07
5.52766e-07
5.52814e-07
5.5287e-07
5.52913e-07
5.53002e-07
5.53026e-07
5.53125e-07
5.53092e-07
5.53124e-07
5.53008e-07
5.52898e-07
5.52657e-07
5.52478e-07
5.52332e-07
5.52256e-07
5.52259e-07
5.52492e-07
5.53094e-07
5.54251e-07
5.56049e-07
5.58791e-07
5.62022e-07
5.66963e-07
5.70034e-07
5.49881e-07
5.46524e-07
5.41232e-07
5.37817e-07
5.35142e-07
5.33092e-07
5.31943e-07
5.31351e-07
5.31156e-07
5.31206e-07
5.31357e-07
5.316e-07
5.31828e-07
5.32103e-07
5.32266e-07
5.32427e-07
5.32439e-07
5.32487e-07
5.32457e-07
5.32439e-07
5.32384e-07
5.32336e-07
5.32283e-07
5.3225e-07
5.32224e-07
5.32218e-07
5.32234e-07
5.3227e-07
5.32313e-07
5.32338e-07
5.32401e-07
5.32399e-07
5.3244e-07
5.32375e-07
5.32361e-07
5.32205e-07
5.32044e-07
5.31766e-07
5.31537e-07
5.31318e-07
5.31181e-07
5.3115e-07
5.31354e-07
5.31966e-07
5.3313e-07
5.35194e-07
5.37885e-07
5.4137e-07
5.46641e-07
5.49981e-07
5.28749e-07
5.25146e-07
5.19835e-07
5.16626e-07
5.1339e-07
5.11271e-07
5.10131e-07
5.09538e-07
5.09368e-07
5.09431e-07
5.09626e-07
5.09906e-07
5.10153e-07
5.10439e-07
5.10632e-07
5.10814e-07
5.10861e-07
5.10941e-07
5.10935e-07
5.10939e-07
5.10898e-07
5.10866e-07
5.1082e-07
5.10794e-07
5.1077e-07
5.10764e-07
5.10776e-07
5.10803e-07
5.10837e-07
5.10852e-07
5.10895e-07
5.10876e-07
5.10881e-07
5.10797e-07
5.10751e-07
5.10572e-07
5.10385e-07
5.10109e-07
5.09878e-07
5.09588e-07
5.09403e-07
5.09356e-07
5.09546e-07
5.10157e-07
5.11313e-07
5.13447e-07
5.16699e-07
5.1988e-07
5.25275e-07
5.28878e-07
5.07588e-07
5.03817e-07
4.984e-07
4.94973e-07
4.9171e-07
4.89594e-07
4.88465e-07
4.87876e-07
4.8773e-07
4.87806e-07
4.88031e-07
4.88346e-07
4.88615e-07
4.88913e-07
4.89133e-07
4.89329e-07
4.89402e-07
4.89503e-07
4.89511e-07
4.89531e-07
4.89501e-07
4.8948e-07
4.89441e-07
4.89418e-07
4.89396e-07
4.8939e-07
4.894e-07
4.8942e-07
4.89448e-07
4.89454e-07
4.89483e-07
4.89452e-07
4.89436e-07
4.89338e-07
4.89269e-07
4.89075e-07
4.88864e-07
4.88582e-07
4.8833e-07
4.87996e-07
4.87776e-07
4.87714e-07
4.8789e-07
4.88495e-07
4.8964e-07
4.91774e-07
4.95052e-07
4.98451e-07
5.03951e-07
5.07733e-07
4.85998e-07
4.82076e-07
4.76522e-07
4.72956e-07
4.69691e-07
4.67578e-07
4.66465e-07
4.65879e-07
4.65757e-07
4.65847e-07
4.6609e-07
4.66433e-07
4.66729e-07
4.67042e-07
4.67286e-07
4.67496e-07
4.67592e-07
4.67711e-07
4.67732e-07
4.67764e-07
4.67745e-07
4.67734e-07
4.67701e-07
4.67682e-07
4.67663e-07
4.67656e-07
4.67664e-07
4.67677e-07
4.67699e-07
4.67698e-07
4.67715e-07
4.67673e-07
4.6764e-07
4.6753e-07
4.67439e-07
4.6723e-07
4.66997e-07
4.66699e-07
4.66418e-07
4.66057e-07
4.65817e-07
4.65742e-07
4.65899e-07
4.665e-07
4.67628e-07
4.6976e-07
4.7304e-07
4.76596e-07
4.82215e-07
4.86157e-07
4.64061e-07
4.60021e-07
4.54328e-07
4.50675e-07
4.47344e-07
4.45137e-07
4.44023e-07
4.43464e-07
4.434e-07
4.43554e-07
4.4386e-07
4.44267e-07
4.44587e-07
4.44918e-07
4.45183e-07
4.45408e-07
4.45525e-07
4.45657e-07
4.4569e-07
4.45734e-07
4.45724e-07
4.45722e-07
4.45694e-07
4.45679e-07
4.45661e-07
4.45655e-07
4.45661e-07
4.45668e-07
4.45685e-07
4.45677e-07
4.45684e-07
4.45632e-07
4.45584e-07
4.45463e-07
4.45353e-07
4.45129e-07
4.44876e-07
4.44558e-07
4.44249e-07
4.43831e-07
4.43526e-07
4.43394e-07
4.43496e-07
4.44071e-07
4.45195e-07
4.47424e-07
4.50765e-07
4.54421e-07
4.60167e-07
4.64228e-07
4.41881e-07
4.3742e-07
4.31457e-07
4.27684e-07
4.24348e-07
4.22142e-07
4.2105e-07
4.20505e-07
4.20478e-07
4.20661e-07
4.20992e-07
4.21436e-07
4.21792e-07
4.22152e-07
4.22452e-07
4.227e-07
4.22849e-07
4.22999e-07
4.23056e-07
4.23116e-07
4.2312e-07
4.23131e-07
4.23112e-07
4.23102e-07
4.23087e-07
4.23081e-07
4.23084e-07
4.23084e-07
4.23093e-07
4.23073e-07
4.23066e-07
4.22998e-07
4.22929e-07
4.22788e-07
4.22647e-07
4.22399e-07
4.22113e-07
4.21763e-07
4.21418e-07
4.20966e-07
4.20637e-07
4.20478e-07
4.20549e-07
4.21108e-07
4.22205e-07
4.24433e-07
4.2778e-07
4.31566e-07
4.37578e-07
4.42056e-07
4.19009e-07
4.14377e-07
4.08954e-07
4.05169e-07
4.01878e-07
3.99676e-07
3.98605e-07
3.98068e-07
3.98065e-07
3.98266e-07
3.98606e-07
3.99063e-07
3.99433e-07
3.9981e-07
4.00121e-07
4.00384e-07
4.00548e-07
4.00707e-07
4.00775e-07
4.00844e-07
4.00856e-07
4.00873e-07
4.00859e-07
4.00853e-07
4.00839e-07
4.00833e-07
4.00835e-07
4.00831e-07
4.00835e-07
4.0081e-07
4.00795e-07
4.00719e-07
4.00639e-07
4.00489e-07
4.00332e-07
4.0007e-07
3.99773e-07
3.99404e-07
3.99046e-07
3.98582e-07
3.98245e-07
3.98072e-07
3.98122e-07
3.98671e-07
3.99742e-07
4.01965e-07
4.05267e-07
4.0907e-07
4.14537e-07
4.19198e-07
3.96625e-07
3.91971e-07
3.86489e-07
3.82724e-07
3.79496e-07
3.773e-07
3.76254e-07
3.75728e-07
3.7575e-07
3.75965e-07
3.76312e-07
3.76778e-07
3.77154e-07
3.77545e-07
3.77863e-07
3.78137e-07
3.78314e-07
3.78479e-07
3.78558e-07
3.78634e-07
3.78653e-07
3.78675e-07
3.78665e-07
3.78662e-07
3.7865e-07
3.78644e-07
3.78644e-07
3.78637e-07
3.78637e-07
3.78607e-07
3.78585e-07
3.78503e-07
3.78415e-07
3.78257e-07
3.78087e-07
3.77813e-07
3.77509e-07
3.77126e-07
3.76761e-07
3.76289e-07
3.75948e-07
3.75763e-07
3.75794e-07
3.76327e-07
3.77369e-07
3.79584e-07
3.82825e-07
3.8661e-07
3.92133e-07
3.9682e-07
3.74348e-07
3.69689e-07
3.64193e-07
3.60481e-07
3.57334e-07
3.55144e-07
3.54125e-07
3.53555e-07
3.53591e-07
3.53803e-07
3.54161e-07
3.54647e-07
3.5506e-07
3.55469e-07
3.55804e-07
3.56089e-07
3.56275e-07
3.56444e-07
3.56531e-07
3.56612e-07
3.56636e-07
3.56663e-07
3.56657e-07
3.56656e-07
3.56645e-07
3.56639e-07
3.56638e-07
3.56629e-07
3.56626e-07
3.56592e-07
3.56564e-07
3.56478e-07
3.56383e-07
3.56219e-07
3.56039e-07
3.55756e-07
3.55431e-07
3.5503e-07
3.54629e-07
3.54141e-07
3.53794e-07
3.53605e-07
3.5364e-07
3.54205e-07
3.55213e-07
3.57422e-07
3.60582e-07
3.64316e-07
3.69849e-07
3.74549e-07
3.52309e-07
3.47653e-07
3.41949e-07
3.38168e-07
3.35038e-07
3.3281e-07
3.31817e-07
3.3124e-07
3.31301e-07
3.3152e-07
3.31878e-07
3.32359e-07
3.3278e-07
3.33194e-07
3.33532e-07
3.33827e-07
3.3402e-07
3.34196e-07
3.34292e-07
3.34379e-07
3.34408e-07
3.3444e-07
3.34437e-07
3.34438e-07
3.34429e-07
3.34423e-07
3.34421e-07
3.34409e-07
3.34402e-07
3.34364e-07
3.34332e-07
3.3424e-07
3.34137e-07
3.33965e-07
3.33778e-07
3.33485e-07
3.33157e-07
3.32751e-07
3.32343e-07
3.3186e-07
3.31513e-07
3.31318e-07
3.31344e-07
3.31896e-07
3.32881e-07
3.35128e-07
3.38272e-07
3.42079e-07
3.47808e-07
3.52517e-07
3.30198e-07
3.2545e-07
3.19816e-07
3.16132e-07
3.13126e-07
3.11453e-07
3.10524e-07
3.09945e-07
3.10032e-07
3.10253e-07
3.10608e-07
3.11078e-07
3.11491e-07
3.11906e-07
3.12234e-07
3.12531e-07
3.12725e-07
3.12901e-07
3.13e-07
3.13089e-07
3.13122e-07
3.13155e-07
3.13155e-07
3.13158e-07
3.1315e-07
3.13144e-07
3.13141e-07
3.13128e-07
3.13119e-07
3.13079e-07
3.13044e-07
3.1295e-07
3.12846e-07
3.12673e-07
3.12484e-07
3.12189e-07
3.11871e-07
3.11465e-07
3.11064e-07
3.10591e-07
3.10247e-07
3.1005e-07
3.10069e-07
3.10592e-07
3.11521e-07
3.13215e-07
3.16233e-07
3.19945e-07
3.25598e-07
3.3042e-07
3.08424e-07
3.03731e-07
2.98785e-07
2.95216e-07
2.92335e-07
2.9068e-07
2.89718e-07
2.89259e-07
2.89161e-07
2.89354e-07
2.89689e-07
2.90154e-07
2.90557e-07
2.90952e-07
2.91282e-07
2.91573e-07
2.91769e-07
2.91943e-07
2.92043e-07
2.92132e-07
2.92163e-07
2.92197e-07
2.92196e-07
2.92199e-07
2.92191e-07
2.92185e-07
2.92182e-07
2.92169e-07
2.92161e-07
2.92121e-07
2.92085e-07
2.91992e-07
2.9189e-07
2.91717e-07
2.91526e-07
2.91238e-07
2.90917e-07
2.9053e-07
2.9014e-07
2.89672e-07
2.89348e-07
2.89178e-07
2.89218e-07
2.89768e-07
2.9075e-07
2.92421e-07
2.95314e-07
2.98911e-07
3.03864e-07
3.08654e-07
2.87822e-07
2.83211e-07
2.78437e-07
2.75005e-07
2.72256e-07
2.70657e-07
2.69766e-07
2.69308e-07
2.69226e-07
2.69409e-07
2.69734e-07
2.70179e-07
2.70564e-07
2.70946e-07
2.7126e-07
2.71543e-07
2.71733e-07
2.71903e-07
2.72001e-07
2.72087e-07
2.72119e-07
2.72153e-07
2.72153e-07
2.72157e-07
2.72149e-07
2.72143e-07
2.7214e-07
2.72127e-07
2.72118e-07
2.72078e-07
2.72042e-07
2.71951e-07
2.71853e-07
2.71683e-07
2.71498e-07
2.71218e-07
2.70912e-07
2.70538e-07
2.70165e-07
2.69717e-07
2.69404e-07
2.69241e-07
2.6928e-07
2.698e-07
2.70721e-07
2.72338e-07
2.75099e-07
2.78559e-07
2.83338e-07
2.88049e-07
2.67783e-07
2.63185e-07
2.58576e-07
2.55272e-07
2.52649e-07
2.51117e-07
2.50292e-07
2.49845e-07
2.49779e-07
2.49955e-07
2.5027e-07
2.50695e-07
2.51066e-07
2.51436e-07
2.51737e-07
2.52013e-07
2.52199e-07
2.52365e-07
2.52463e-07
2.52548e-07
2.52581e-07
2.52616e-07
2.52618e-07
2.52622e-07
2.52615e-07
2.5261e-07
2.52606e-07
2.52593e-07
2.52583e-07
2.52542e-07
2.52505e-07
2.52416e-07
2.52318e-07
2.52152e-07
2.51971e-07
2.51698e-07
2.51405e-07
2.51043e-07
2.50684e-07
2.50253e-07
2.4995e-07
2.49792e-07
2.49829e-07
2.50317e-07
2.51177e-07
2.52727e-07
2.55362e-07
2.58695e-07
2.63314e-07
2.68001e-07
2.48764e-07
2.4429e-07
2.39923e-07
2.36788e-07
2.3431e-07
2.32864e-07
2.32102e-07
2.3167e-07
2.31613e-07
2.31774e-07
2.32072e-07
2.32464e-07
2.32808e-07
2.33157e-07
2.33436e-07
2.33697e-07
2.3387e-07
2.34027e-07
2.34118e-07
2.34198e-07
2.34229e-07
2.34262e-07
2.34264e-07
2.34268e-07
2.34261e-07
2.34256e-07
2.34253e-07
2.3424e-07
2.3423e-07
2.34192e-07
2.34157e-07
2.34074e-07
2.33983e-07
2.33827e-07
2.33657e-07
2.33399e-07
2.33128e-07
2.32787e-07
2.32453e-07
2.32054e-07
2.31769e-07
2.31624e-07
2.31663e-07
2.32121e-07
2.32917e-07
2.34382e-07
2.36872e-07
2.40036e-07
2.44425e-07
2.4896e-07
2.30678e-07
2.26396e-07
2.22275e-07
2.19321e-07
2.16944e-07
2.15496e-07
2.14783e-07
2.1437e-07
2.14328e-07
2.14482e-07
2.14771e-07
2.15143e-07
2.15477e-07
2.15817e-07
2.16087e-07
2.16343e-07
2.16514e-07
2.16669e-07
2.16761e-07
2.16842e-07
2.16873e-07
2.16903e-07
2.16904e-07
2.16908e-07
2.16902e-07
2.16897e-07
2.16894e-07
2.16882e-07
2.16874e-07
2.16838e-07
2.16803e-07
2.16719e-07
2.16627e-07
2.16472e-07
2.16305e-07
2.16052e-07
2.15789e-07
2.15457e-07
2.15134e-07
2.14753e-07
2.14475e-07
2.14336e-07
2.14369e-07
2.148e-07
2.15546e-07
2.17015e-07
2.19397e-07
2.22379e-07
2.26528e-07
2.30854e-07
2.13631e-07
2.09578e-07
2.05709e-07
2.02959e-07
2.00723e-07
1.99378e-07
1.98722e-07
1.9833e-07
1.98291e-07
1.98426e-07
1.98689e-07
1.99021e-07
1.99324e-07
1.99636e-07
1.9988e-07
2.00113e-07
2.00269e-07
2.00411e-07
2.00492e-07
2.00566e-07
2.00594e-07
2.0062e-07
2.0062e-07
2.00623e-07
2.00617e-07
2.00612e-07
2.0061e-07
2.00599e-07
2.00593e-07
2.00561e-07
2.0053e-07
2.00454e-07
2.00372e-07
2.0023e-07
2.00078e-07
1.99848e-07
1.9961e-07
1.99306e-07
1.99012e-07
1.98668e-07
1.98417e-07
1.98295e-07
1.98331e-07
1.98736e-07
1.99419e-07
2.00786e-07
2.03026e-07
2.05805e-07
2.09703e-07
2.13788e-07
1.97697e-07
1.93914e-07
1.903e-07
1.87763e-07
1.85668e-07
1.84432e-07
1.83828e-07
1.83458e-07
1.8342e-07
1.83535e-07
1.83767e-07
1.84056e-07
1.84327e-07
1.84607e-07
1.84824e-07
1.85033e-07
1.8517e-07
1.85298e-07
1.85368e-07
1.85433e-07
1.85456e-07
1.85478e-07
1.85477e-07
1.85478e-07
1.85472e-07
1.85468e-07
1.85466e-07
1.85458e-07
1.85453e-07
1.85426e-07
1.854e-07
1.85332e-07
1.85262e-07
1.85135e-07
1.85e-07
1.84794e-07
1.84583e-07
1.8431e-07
1.84048e-07
1.83744e-07
1.83521e-07
1.83418e-07
1.83459e-07
1.83839e-07
1.84462e-07
1.85722e-07
1.87821e-07
1.90387e-07
1.9403e-07
1.97833e-07
1.82827e-07
1.79452e-07
1.76103e-07
1.73783e-07
1.71828e-07
1.70703e-07
1.70149e-07
1.69801e-07
1.69761e-07
1.69853e-07
1.70053e-07
1.70297e-07
1.70533e-07
1.7078e-07
1.70967e-07
1.71151e-07
1.71268e-07
1.7138e-07
1.71438e-07
1.71494e-07
1.71511e-07
1.71529e-07
1.71525e-07
1.71525e-07
1.71519e-07
1.71515e-07
1.71514e-07
1.71508e-07
1.71506e-07
1.71483e-07
1.71463e-07
1.71405e-07
1.71347e-07
1.71236e-07
1.71121e-07
1.7094e-07
1.70758e-07
1.70518e-07
1.70289e-07
1.70026e-07
1.69834e-07
1.69752e-07
1.69799e-07
1.70154e-07
1.7072e-07
1.71875e-07
1.73828e-07
1.76179e-07
1.79557e-07
1.82946e-07
1.69325e-07
1.66219e-07
1.63155e-07
1.61048e-07
1.59243e-07
1.58177e-07
1.5762e-07
1.57264e-07
1.57202e-07
1.57263e-07
1.57428e-07
1.57627e-07
1.57829e-07
1.58044e-07
1.58208e-07
1.58369e-07
1.58472e-07
1.58567e-07
1.58616e-07
1.58663e-07
1.58674e-07
1.58688e-07
1.58682e-07
1.58681e-07
1.58674e-07
1.5867e-07
1.5867e-07
1.58666e-07
1.58667e-07
1.58649e-07
1.58634e-07
1.58586e-07
1.58536e-07
1.58441e-07
1.5834e-07
1.58182e-07
1.58023e-07
1.57814e-07
1.5762e-07
1.5739e-07
1.57235e-07
1.57185e-07
1.57256e-07
1.5762e-07
1.58182e-07
1.59281e-07
1.61078e-07
1.6322e-07
1.6631e-07
1.69423e-07
1.57103e-07
1.5424e-07
1.51478e-07
1.49577e-07
1.47929e-07
1.46962e-07
1.46442e-07
1.46105e-07
1.46034e-07
1.4607e-07
1.462e-07
)
;

boundaryField
{
    fuel
    {
        type            fixedValue;
        value           nonuniform 0();
    }
    wall
    {
        type            zeroGradient;
    }
    outlet
    {
        type            zeroGradient;
    }
    frontAndBack
    {
        type            empty;
    }
    procBoundary2to0
    {
        type            processor;
        value           nonuniform List<scalar> 
53
(
8.83263e-07
8.84239e-07
8.83842e-07
8.83747e-07
8.83142e-07
8.82775e-07
8.82305e-07
8.81985e-07
8.81659e-07
8.81407e-07
8.81118e-07
8.80864e-07
8.80584e-07
8.80319e-07
8.7995e-07
8.79688e-07
8.79356e-07
8.79084e-07
8.65159e-07
8.65159e-07
8.64925e-07
8.64695e-07
8.64524e-07
8.64375e-07
8.64282e-07
8.64229e-07
8.64228e-07
8.64278e-07
8.64369e-07
8.51035e-07
8.51035e-07
8.51202e-07
8.51426e-07
8.51654e-07
8.51941e-07
8.52207e-07
8.52518e-07
8.52773e-07
8.5312e-07
8.53374e-07
8.53623e-07
8.53876e-07
8.4074e-07
8.4074e-07
8.40992e-07
8.4133e-07
8.41704e-07
8.42269e-07
8.42797e-07
8.43654e-07
8.44132e-07
8.45006e-07
8.44481e-07
)
;
    }
    procBoundary2to3
    {
        type            processor;
        value           nonuniform List<scalar> 
51
(
1.46377e-07
1.46543e-07
1.46721e-07
1.46855e-07
1.46988e-07
1.4707e-07
1.47147e-07
1.47184e-07
1.47219e-07
1.47224e-07
1.47232e-07
1.47224e-07
1.4722e-07
1.47213e-07
1.47209e-07
1.47211e-07
1.47209e-07
1.47213e-07
1.472e-07
1.47193e-07
1.47156e-07
1.47119e-07
1.47042e-07
1.46962e-07
1.46831e-07
1.46702e-07
1.46528e-07
1.4637e-07
1.46183e-07
1.46061e-07
1.46035e-07
1.46114e-07
1.46458e-07
1.46971e-07
1.47976e-07
1.49612e-07
1.51545e-07
1.54323e-07
1.5719e-07
1.46159e-07
1.4356e-07
1.41093e-07
1.39387e-07
1.37908e-07
1.37037e-07
1.36548e-07
1.36229e-07
1.36148e-07
1.36159e-07
1.46377e-07
1.36254e-07
)
;
    }
}


// ************************************************************************* //
