/*--------------------------------*- C++ -*----------------------------------*\
| =========                 |                                                 |
| \\      /  F ield         | OpenFOAM: The Open Source CFD Toolbox           |
|  \\    /   O peration     | Version:  dev                                   |
|   \\  /    A nd           | Web:      www.OpenFOAM.org                      |
|    \\/     M anipulation  |                                                 |
\*---------------------------------------------------------------------------*/
FoamFile
{
    version     2.0;
    format      ascii;
    class       volScalarField;
    location    "0.025";
    object      C2H;
}
// * * * * * * * * * * * * * * * * * * * * * * * * * * * * * * * * * * * * * //

dimensions      [0 0 0 0 0 0 0];

internalField   nonuniform List<scalar> 
250
(
1.69865e-09
7.85701e-06
1.12911e-05
1.15432e-05
1.15895e-05
1.15642e-05
1.15721e-05
1.15709e-05
1.15645e-05
2.31982e-09
7.46826e-06
1.00976e-05
1.02979e-05
1.03199e-05
1.03104e-05
1.03148e-05
1.0313e-05
1.03128e-05
1.88094e-09
4.84446e-06
6.87144e-06
7.02849e-06
7.04211e-06
7.03438e-06
7.03879e-06
7.03635e-06
7.0379e-06
1.32838e-09
2.98026e-06
4.58685e-06
4.72224e-06
4.73017e-06
4.72201e-06
4.72599e-06
4.72367e-06
4.72531e-06
9.3973e-10
1.91353e-06
3.24639e-06
3.36964e-06
3.36874e-06
3.36097e-06
3.36429e-06
3.36236e-06
3.36379e-06
7.09903e-10
1.33168e-06
2.4462e-06
2.56958e-06
2.58021e-06
2.58282e-06
2.58561e-06
2.58408e-06
2.58532e-06
5.71018e-10
9.77467e-07
2.00099e-06
2.1203e-06
2.12671e-06
2.13164e-06
2.13409e-06
2.13289e-06
2.13404e-06
5.26538e-10
7.99304e-07
1.73377e-06
1.84862e-06
1.83871e-06
1.83782e-06
1.8401e-06
1.83846e-06
1.83967e-06
7.08206e-10
7.00923e-07
1.5467e-06
1.66796e-06
1.66345e-06
1.66156e-06
1.66392e-06
1.66227e-06
1.6636e-06
1.17057e-09
6.38606e-07
1.41783e-06
1.53312e-06
1.54216e-06
1.54029e-06
1.54289e-06
1.54114e-06
1.54269e-06
2.01754e-09
6.08935e-07
1.33557e-06
1.44518e-06
1.44888e-06
1.4449e-06
1.44763e-06
1.44508e-06
1.44693e-06
1.44614e-06
3.98239e-09
6.01194e-07
1.26451e-06
1.36532e-06
1.36787e-06
1.36323e-06
1.36644e-06
1.3635e-06
1.36569e-06
1.36474e-06
8.73104e-09
6.07092e-07
1.20479e-06
1.29652e-06
1.29831e-06
1.29284e-06
1.29661e-06
1.2932e-06
1.29579e-06
1.29464e-06
1.87738e-08
6.20741e-07
1.1522e-06
1.23429e-06
1.23554e-06
1.22919e-06
1.23355e-06
1.22964e-06
1.23265e-06
1.23129e-06
3.67995e-08
6.38412e-07
1.10372e-06
1.17607e-06
1.17693e-06
1.1697e-06
1.17472e-06
1.17028e-06
1.17373e-06
1.17215e-06
6.50188e-08
6.56744e-07
1.05749e-06
1.12034e-06
1.12097e-06
1.11292e-06
1.1186e-06
1.11364e-06
1.11753e-06
1.11573e-06
1.0521e-07
6.7598e-07
1.0123e-06
1.06617e-06
1.06671e-06
1.05789e-06
1.06426e-06
1.0588e-06
1.06313e-06
1.0611e-06
1.55884e-07
6.89146e-07
9.67286e-07
1.01293e-06
1.01346e-06
1.00398e-06
1.01106e-06
1.00512e-06
1.00988e-06
1.00762e-06
2.14818e-07
6.96971e-07
9.21856e-07
9.60115e-07
9.60716e-07
9.50661e-07
9.58483e-07
9.52103e-07
9.57276e-07
9.54794e-07
2.76968e-07
6.98143e-07
8.75539e-07
9.07299e-07
9.07998e-07
8.97478e-07
9.0609e-07
8.99316e-07
9.04879e-07
9.02168e-07
3.35927e-07
6.91926e-07
8.2794e-07
8.54047e-07
8.54873e-07
8.43987e-07
8.53473e-07
8.46354e-07
8.52279e-07
8.49337e-07
3.85518e-07
6.78161e-07
7.78696e-07
7.99892e-07
8.00888e-07
7.89724e-07
8.00235e-07
7.92826e-07
7.99078e-07
7.959e-07
4.21225e-07
6.57369e-07
7.2738e-07
7.44232e-07
7.45503e-07
7.34123e-07
7.45975e-07
7.38334e-07
7.44871e-07
7.41453e-07
4.40889e-07
6.27698e-07
6.79615e-07
6.93724e-07
6.94615e-07
6.8303e-07
6.90213e-07
6.82405e-07
6.89178e-07
6.85522e-07
4.44704e-07
5.93377e-07
6.30396e-07
6.42311e-07
6.42723e-07
6.31064e-07
6.38801e-07
6.30793e-07
6.37855e-07
6.33918e-07
4.3453e-07
5.54542e-07
5.79769e-07
5.88954e-07
5.89791e-07
5.78202e-07
5.86359e-07
5.78213e-07
5.85552e-07
5.81332e-07
)
;

boundaryField
{
    fuel
    {
        type            fixedValue;
        value           uniform 0;
    }
    wall
    {
        type            zeroGradient;
    }
    outlet
    {
        type            zeroGradient;
    }
    frontAndBack
    {
        type            empty;
    }
    procBoundary2to0
    {
        type            processor;
        value           nonuniform List<scalar> 
12
(
6.34154e-07
4.12761e-07
5.12161e-07
5.27875e-07
5.35431e-07
5.35892e-07
5.24518e-07
5.32961e-07
5.24745e-07
5.32346e-07
5.81568e-07
5.2786e-07
)
;
    }
    procBoundary2to3
    {
        type            processor;
        value           nonuniform List<scalar> 
25
(
1.15679e-05
1.0314e-05
7.03781e-06
4.72497e-06
3.36345e-06
2.58504e-06
2.13381e-06
1.83927e-06
1.66316e-06
1.54216e-06
1.54216e-06
1.44616e-06
1.3648e-06
1.29473e-06
1.23141e-06
1.17229e-06
1.11588e-06
1.06127e-06
1.00781e-06
9.54993e-07
9.0238e-07
8.49559e-07
7.96131e-07
7.4169e-07
6.85756e-07
)
;
    }
}


// ************************************************************************* //
