/*--------------------------------*- C++ -*----------------------------------*\
| =========                 |                                                 |
| \\      /  F ield         | OpenFOAM: The Open Source CFD Toolbox           |
|  \\    /   O peration     | Version:  dev                                   |
|   \\  /    A nd           | Web:      www.OpenFOAM.org                      |
|    \\/     M anipulation  |                                                 |
\*---------------------------------------------------------------------------*/
FoamFile
{
    version     2.0;
    format      ascii;
    class       volScalarField;
    location    "0.025";
    object      CH;
}
// * * * * * * * * * * * * * * * * * * * * * * * * * * * * * * * * * * * * * //

dimensions      [0 0 0 0 0 0 0];

internalField   nonuniform List<scalar> 
1997
(
4.14493e-09
4.12476e-09
4.08109e-09
4.05219e-09
4.02394e-09
4.00946e-09
3.9999e-09
3.99796e-09
4.00015e-09
4.00719e-09
4.01491e-09
4.02479e-09
4.0348e-09
4.04414e-09
4.05274e-09
4.06052e-09
4.06728e-09
4.07275e-09
3.95048e-09
3.92936e-09
3.88474e-09
3.85523e-09
3.82703e-09
3.81253e-09
3.80302e-09
3.80112e-09
3.80339e-09
3.81048e-09
3.81814e-09
3.82801e-09
3.83803e-09
3.84742e-09
3.85593e-09
3.86363e-09
3.87039e-09
3.87577e-09
3.87993e-09
3.88354e-09
3.88625e-09
3.88839e-09
3.88984e-09
3.89081e-09
3.89122e-09
3.89116e-09
3.89064e-09
3.88955e-09
3.75737e-09
3.73539e-09
3.68995e-09
3.65993e-09
3.63184e-09
3.61738e-09
3.60793e-09
3.60608e-09
3.60841e-09
3.61556e-09
3.62315e-09
3.63294e-09
3.64294e-09
3.6524e-09
3.66081e-09
3.66841e-09
3.67513e-09
3.68043e-09
3.68457e-09
3.68811e-09
3.69079e-09
3.69288e-09
3.6943e-09
3.69525e-09
3.69566e-09
3.6956e-09
3.69509e-09
3.69401e-09
3.69228e-09
3.6901e-09
3.68738e-09
3.68378e-09
3.67942e-09
3.67399e-09
3.66748e-09
3.65985e-09
3.65154e-09
3.64233e-09
3.63241e-09
3.62271e-09
3.56598e-09
3.54325e-09
3.49712e-09
3.4667e-09
3.43874e-09
3.42443e-09
3.41504e-09
3.41324e-09
3.41563e-09
3.42282e-09
3.43034e-09
3.43999e-09
3.44992e-09
3.45947e-09
3.46777e-09
3.47525e-09
3.48191e-09
3.48711e-09
3.49122e-09
3.49469e-09
3.49731e-09
3.49936e-09
3.50076e-09
3.50168e-09
3.50208e-09
3.50202e-09
3.50152e-09
3.50047e-09
3.49881e-09
3.49667e-09
3.494e-09
3.49047e-09
3.48618e-09
3.48086e-09
3.47439e-09
3.46689e-09
3.4587e-09
3.44941e-09
3.43955e-09
3.42996e-09
3.42229e-09
3.41526e-09
3.41302e-09
3.41498e-09
3.42441e-09
3.43927e-09
3.46793e-09
3.49887e-09
3.54533e-09
3.56838e-09
3.3767e-09
3.35333e-09
3.30667e-09
3.27597e-09
3.24815e-09
3.2341e-09
3.22479e-09
3.22301e-09
3.22544e-09
3.23268e-09
3.24009e-09
3.2496e-09
3.25934e-09
3.26906e-09
3.27721e-09
3.28456e-09
3.29112e-09
3.29623e-09
3.30029e-09
3.30368e-09
3.30624e-09
3.30825e-09
3.3096e-09
3.31051e-09
3.31089e-09
3.31083e-09
3.31035e-09
3.30932e-09
3.30773e-09
3.30564e-09
3.30303e-09
3.29958e-09
3.29537e-09
3.29016e-09
3.28376e-09
3.27641e-09
3.26837e-09
3.25895e-09
3.24922e-09
3.23977e-09
3.23226e-09
3.2252e-09
3.22293e-09
3.22485e-09
3.23393e-09
3.24881e-09
3.27734e-09
3.30854e-09
3.35543e-09
3.3791e-09
3.18994e-09
3.16605e-09
3.11903e-09
3.08815e-09
3.0605e-09
3.04681e-09
3.03759e-09
3.03583e-09
3.03827e-09
3.04395e-09
3.05183e-09
3.06202e-09
3.07164e-09
3.08159e-09
3.08957e-09
3.09676e-09
3.10321e-09
3.1082e-09
3.11219e-09
3.1155e-09
3.118e-09
3.11995e-09
3.12127e-09
3.12215e-09
3.12252e-09
3.12246e-09
3.12199e-09
3.12099e-09
3.11947e-09
3.11743e-09
3.11489e-09
3.11152e-09
3.10741e-09
3.10232e-09
3.09602e-09
3.08883e-09
3.08097e-09
3.07132e-09
3.06175e-09
3.05162e-09
3.04369e-09
3.03813e-09
3.03587e-09
3.03776e-09
3.0463e-09
3.06128e-09
3.08965e-09
3.12101e-09
3.16816e-09
3.19233e-09
3.00614e-09
2.98187e-09
2.93466e-09
2.90368e-09
2.8762e-09
2.86303e-09
2.85389e-09
2.85215e-09
2.85459e-09
2.86023e-09
2.86801e-09
2.87801e-09
2.88723e-09
2.89753e-09
2.90528e-09
2.9123e-09
2.91862e-09
2.92347e-09
2.92738e-09
2.93059e-09
2.93302e-09
2.93492e-09
2.93619e-09
2.93704e-09
2.9374e-09
2.93735e-09
2.93689e-09
2.93592e-09
2.93447e-09
2.93249e-09
2.93001e-09
2.92675e-09
2.92273e-09
2.91779e-09
2.9116e-09
2.9046e-09
2.89697e-09
2.88693e-09
2.87777e-09
2.86785e-09
2.86004e-09
2.85454e-09
2.85228e-09
2.85416e-09
2.86188e-09
2.8771e-09
2.9053e-09
2.93674e-09
2.98397e-09
3.00851e-09
2.82187e-09
2.79738e-09
2.75084e-09
2.7221e-09
2.69571e-09
2.67892e-09
2.66994e-09
2.66835e-09
2.67099e-09
2.67681e-09
2.6848e-09
2.69489e-09
2.70388e-09
2.71486e-09
2.72258e-09
2.7297e-09
2.73611e-09
2.74103e-09
2.74502e-09
2.74829e-09
2.75078e-09
2.75273e-09
2.75404e-09
2.75492e-09
2.75529e-09
2.75523e-09
2.75476e-09
2.75376e-09
2.75229e-09
2.75028e-09
2.74772e-09
2.74443e-09
2.74031e-09
2.73533e-09
2.72903e-09
2.72195e-09
2.71434e-09
2.70353e-09
2.69466e-09
2.6847e-09
2.67668e-09
2.67102e-09
2.66857e-09
2.6703e-09
2.68105e-09
2.69673e-09
2.72318e-09
2.75223e-09
2.79948e-09
2.82424e-09
2.64507e-09
2.62048e-09
2.57407e-09
2.54557e-09
2.51952e-09
2.50319e-09
2.49432e-09
2.49271e-09
2.49535e-09
2.50108e-09
2.50906e-09
2.5188e-09
2.52729e-09
2.53333e-09
2.54076e-09
2.54764e-09
2.5539e-09
2.55865e-09
2.56252e-09
2.56569e-09
2.5681e-09
2.56998e-09
2.57124e-09
2.5721e-09
2.57245e-09
2.5724e-09
2.57195e-09
2.57098e-09
2.56957e-09
2.56763e-09
2.56514e-09
2.56197e-09
2.55797e-09
2.55317e-09
2.54701e-09
2.54017e-09
2.53285e-09
2.52687e-09
2.5186e-09
2.509e-09
2.501e-09
2.49544e-09
2.493e-09
2.49472e-09
2.50476e-09
2.52067e-09
2.5467e-09
2.5755e-09
2.62254e-09
2.6474e-09
2.47253e-09
2.44797e-09
2.4018e-09
2.37367e-09
2.34813e-09
2.33221e-09
2.32345e-09
2.32181e-09
2.32444e-09
2.33003e-09
2.33805e-09
2.3474e-09
2.35539e-09
2.36165e-09
2.36878e-09
2.37541e-09
2.38152e-09
2.38608e-09
2.38983e-09
2.39288e-09
2.39522e-09
2.39703e-09
2.39825e-09
2.39907e-09
2.39942e-09
2.39937e-09
2.39893e-09
2.39799e-09
2.39664e-09
2.39478e-09
2.39236e-09
2.38931e-09
2.38543e-09
2.38084e-09
2.37482e-09
2.36824e-09
2.3612e-09
2.35493e-09
2.34721e-09
2.338e-09
2.33001e-09
2.32457e-09
2.32214e-09
2.32388e-09
2.33342e-09
2.34939e-09
2.37484e-09
2.40325e-09
2.44999e-09
2.47481e-09
2.30005e-09
2.27615e-09
2.23053e-09
2.20363e-09
2.17944e-09
2.16467e-09
2.15701e-09
2.15606e-09
2.15869e-09
2.16412e-09
2.17219e-09
2.18112e-09
2.18864e-09
2.19501e-09
2.20184e-09
2.20818e-09
2.21411e-09
2.21847e-09
2.22207e-09
2.22501e-09
2.22727e-09
2.22902e-09
2.23019e-09
2.23098e-09
2.23131e-09
2.23126e-09
2.23084e-09
2.22993e-09
2.22865e-09
2.22685e-09
2.22452e-09
2.22158e-09
2.21785e-09
2.21348e-09
2.20762e-09
2.20133e-09
2.19459e-09
2.18818e-09
2.18095e-09
2.17217e-09
2.16415e-09
2.15885e-09
2.15644e-09
2.1577e-09
2.16588e-09
2.18098e-09
2.20495e-09
2.23207e-09
2.2782e-09
2.30233e-09
2.13198e-09
2.10838e-09
2.0634e-09
2.03718e-09
2.01408e-09
1.9995e-09
1.99203e-09
1.99105e-09
1.99365e-09
1.99925e-09
2.00807e-09
2.01706e-09
2.0247e-09
2.03152e-09
2.03848e-09
2.0452e-09
2.05146e-09
2.05611e-09
2.0597e-09
2.06252e-09
2.06468e-09
2.06637e-09
2.0675e-09
2.06825e-09
2.06857e-09
2.06852e-09
2.06812e-09
2.06723e-09
2.06601e-09
2.06429e-09
2.06204e-09
2.05923e-09
2.05563e-09
2.05108e-09
2.04478e-09
2.03815e-09
2.03122e-09
2.02433e-09
2.01702e-09
2.0081e-09
1.99942e-09
1.99392e-09
1.99146e-09
1.99274e-09
2.00058e-09
2.01567e-09
2.03851e-09
2.06493e-09
2.11037e-09
2.1342e-09
1.96936e-09
1.94624e-09
1.90198e-09
1.87658e-09
1.85497e-09
1.84023e-09
1.83296e-09
1.83193e-09
1.8345e-09
1.83988e-09
1.84895e-09
1.85744e-09
1.86465e-09
1.87137e-09
1.87802e-09
1.88438e-09
1.89038e-09
1.89492e-09
1.89837e-09
1.90107e-09
1.90313e-09
1.90477e-09
1.90584e-09
1.90656e-09
1.90686e-09
1.90682e-09
1.90643e-09
1.90557e-09
1.90441e-09
1.90277e-09
1.9006e-09
1.89793e-09
1.89447e-09
1.8901e-09
1.88399e-09
1.87772e-09
1.8711e-09
1.86434e-09
1.85741e-09
1.849e-09
1.84009e-09
1.8348e-09
1.83237e-09
1.83368e-09
1.84123e-09
1.85642e-09
1.87789e-09
1.90349e-09
1.94815e-09
1.97151e-09
1.81249e-09
1.78995e-09
1.7467e-09
1.72211e-09
1.70245e-09
1.69161e-09
1.68454e-09
1.68344e-09
1.68595e-09
1.69108e-09
1.69607e-09
1.70402e-09
1.71084e-09
1.71736e-09
1.72367e-09
1.72965e-09
1.73526e-09
1.73985e-09
1.74316e-09
1.74576e-09
1.74771e-09
1.7493e-09
1.75031e-09
1.751e-09
1.75129e-09
1.75125e-09
1.75088e-09
1.75003e-09
1.74893e-09
1.74738e-09
1.74529e-09
1.74276e-09
1.73941e-09
1.73511e-09
1.72929e-09
1.72341e-09
1.71712e-09
1.71059e-09
1.70401e-09
1.69613e-09
1.69131e-09
1.68627e-09
1.68389e-09
1.68526e-09
1.69255e-09
1.70348e-09
1.72339e-09
1.74815e-09
1.79178e-09
1.8146e-09
1.66621e-09
1.64451e-09
1.60209e-09
1.57838e-09
1.56034e-09
1.54909e-09
1.542e-09
1.54082e-09
1.54346e-09
1.54863e-09
1.55383e-09
1.56129e-09
1.56774e-09
1.57401e-09
1.57999e-09
1.58557e-09
1.59061e-09
1.5955e-09
1.59871e-09
1.60121e-09
1.60306e-09
1.60459e-09
1.60555e-09
1.6062e-09
1.60648e-09
1.60644e-09
1.60609e-09
1.60525e-09
1.60422e-09
1.60275e-09
1.60072e-09
1.59833e-09
1.59508e-09
1.59052e-09
1.58524e-09
1.57975e-09
1.5738e-09
1.56754e-09
1.56129e-09
1.55391e-09
1.54891e-09
1.54384e-09
1.54132e-09
1.54278e-09
1.55005e-09
1.56121e-09
1.57962e-09
1.60349e-09
1.64625e-09
1.66831e-09
1.52628e-09
1.50544e-09
1.46421e-09
1.44123e-09
1.42466e-09
1.4137e-09
1.40681e-09
1.40547e-09
1.40804e-09
1.41298e-09
1.41822e-09
1.42521e-09
1.43132e-09
1.43729e-09
1.44291e-09
1.44811e-09
1.45235e-09
1.45504e-09
1.45822e-09
1.46069e-09
1.46248e-09
1.46399e-09
1.46492e-09
1.46555e-09
1.46581e-09
1.46577e-09
1.46544e-09
1.46459e-09
1.4636e-09
1.46219e-09
1.46017e-09
1.45787e-09
1.45457e-09
1.45181e-09
1.44779e-09
1.4427e-09
1.4371e-09
1.43116e-09
1.42522e-09
1.4183e-09
1.41326e-09
1.40844e-09
1.40598e-09
1.40757e-09
1.41463e-09
1.42555e-09
1.44242e-09
1.46555e-09
1.5071e-09
1.52846e-09
1.39007e-09
1.3699e-09
1.33178e-09
1.31087e-09
1.2934e-09
1.28313e-09
1.2786e-09
1.27707e-09
1.27957e-09
1.28426e-09
1.28943e-09
1.29603e-09
1.30179e-09
1.30743e-09
1.31269e-09
1.3175e-09
1.32116e-09
1.32428e-09
1.3274e-09
1.32976e-09
1.33144e-09
1.33287e-09
1.33374e-09
1.33434e-09
1.33459e-09
1.33455e-09
1.33423e-09
1.33344e-09
1.33251e-09
1.33118e-09
1.32924e-09
1.32708e-09
1.32363e-09
1.32065e-09
1.31721e-09
1.31251e-09
1.30725e-09
1.30166e-09
1.29604e-09
1.28953e-09
1.28455e-09
1.27999e-09
1.27757e-09
1.27934e-09
1.28399e-09
1.29419e-09
1.312e-09
1.33313e-09
1.37146e-09
1.39252e-09
1.25966e-09
1.24031e-09
1.20432e-09
1.18754e-09
1.1714e-09
1.1618e-09
1.15716e-09
1.15482e-09
1.15696e-09
1.16124e-09
1.16612e-09
1.17217e-09
1.17755e-09
1.1829e-09
1.18779e-09
1.19227e-09
1.1956e-09
1.19933e-09
1.20227e-09
1.20444e-09
1.20598e-09
1.20725e-09
1.20805e-09
1.20859e-09
1.20882e-09
1.20878e-09
1.20849e-09
1.2078e-09
1.20695e-09
1.20572e-09
1.20398e-09
1.20196e-09
1.19811e-09
1.19515e-09
1.19198e-09
1.1876e-09
1.18271e-09
1.17741e-09
1.17215e-09
1.16621e-09
1.16153e-09
1.15736e-09
1.15529e-09
1.15785e-09
1.16262e-09
1.17225e-09
1.18862e-09
1.2056e-09
1.24178e-09
1.26267e-09
1.1399e-09
1.12151e-09
1.08748e-09
1.06997e-09
1.05436e-09
1.0451e-09
1.04058e-09
1.04077e-09
1.04285e-09
1.04686e-09
1.05149e-09
1.05718e-09
1.06224e-09
1.06722e-09
1.07175e-09
1.07586e-09
1.07889e-09
1.08065e-09
1.0829e-09
1.08471e-09
1.08614e-09
1.08722e-09
1.08796e-09
1.08846e-09
1.08866e-09
1.08863e-09
1.08836e-09
1.08782e-09
1.08704e-09
1.08589e-09
1.08448e-09
1.08261e-09
1.08134e-09
1.07855e-09
1.07559e-09
1.07159e-09
1.06703e-09
1.06211e-09
1.05715e-09
1.05158e-09
1.04714e-09
1.04325e-09
1.04122e-09
1.04122e-09
1.04587e-09
1.05522e-09
1.07101e-09
1.08872e-09
1.12287e-09
1.1402e-09
1.02714e-09
1.00823e-09
9.77919e-10
9.61097e-10
9.46699e-10
9.38254e-10
9.34116e-10
9.33912e-10
9.35713e-10
9.39383e-10
9.43746e-10
9.48978e-10
9.5378e-10
9.58526e-10
9.6277e-10
9.66643e-10
9.69482e-10
9.7168e-10
9.73735e-10
9.75349e-10
9.7667e-10
9.77616e-10
9.78292e-10
9.78754e-10
9.78943e-10
9.78913e-10
9.78666e-10
9.78225e-10
9.77503e-10
9.76444e-10
9.752e-10
9.7347e-10
9.71829e-10
9.69159e-10
9.6637e-10
9.62594e-10
9.58351e-10
9.53631e-10
9.48908e-10
9.43825e-10
9.39662e-10
9.36106e-10
9.34344e-10
9.34708e-10
9.38969e-10
9.47548e-10
9.62064e-10
9.7914e-10
1.00951e-09
1.02798e-09
9.2163e-10
9.03741e-10
8.7568e-10
8.5966e-10
8.46311e-10
8.3874e-10
8.34998e-10
8.34645e-10
8.36347e-10
8.39738e-10
8.43763e-10
8.48657e-10
8.53115e-10
8.57454e-10
8.6136e-10
8.64873e-10
8.67507e-10
8.69737e-10
8.71683e-10
8.73172e-10
8.74386e-10
8.75243e-10
8.75862e-10
8.76286e-10
8.7646e-10
8.76432e-10
8.76206e-10
8.75813e-10
8.75153e-10
8.74179e-10
8.73033e-10
8.7144e-10
8.6968e-10
8.67234e-10
8.64632e-10
8.61206e-10
8.57305e-10
8.52987e-10
8.48571e-10
8.43852e-10
8.39988e-10
8.3672e-10
8.35054e-10
8.35539e-10
8.394e-10
8.47126e-10
8.60554e-10
8.76886e-10
9.04928e-10
9.22689e-10
8.23332e-10
8.06216e-10
7.79736e-10
7.64355e-10
7.52705e-10
7.44793e-10
7.41426e-10
7.41033e-10
7.42688e-10
7.45842e-10
7.49636e-10
7.54311e-10
7.58496e-10
7.62507e-10
7.66201e-10
7.69458e-10
7.71987e-10
7.74189e-10
7.76066e-10
7.77502e-10
7.78662e-10
7.79491e-10
7.80082e-10
7.8049e-10
7.80656e-10
7.80629e-10
7.80412e-10
7.80024e-10
7.79394e-10
7.78465e-10
7.77351e-10
7.75838e-10
7.74035e-10
7.71745e-10
7.69249e-10
7.66066e-10
7.62387e-10
7.58413e-10
7.54253e-10
7.49736e-10
7.46066e-10
7.43024e-10
7.41429e-10
7.4193e-10
7.45412e-10
7.53437e-10
7.65196e-10
7.80924e-10
8.07388e-10
8.24453e-10
7.30069e-10
7.13855e-10
6.90243e-10
6.77314e-10
6.64728e-10
6.5739e-10
6.5442e-10
6.5404e-10
6.55588e-10
6.58413e-10
6.61932e-10
6.66238e-10
6.70019e-10
6.73577e-10
6.76962e-10
6.79892e-10
6.82252e-10
6.84313e-10
6.86045e-10
6.87385e-10
6.88457e-10
6.89235e-10
6.89779e-10
6.90155e-10
6.90308e-10
6.90284e-10
6.90083e-10
6.89709e-10
6.8913e-10
6.88274e-10
6.8723e-10
6.8584e-10
6.84116e-10
6.82039e-10
6.79718e-10
6.76848e-10
6.73488e-10
6.7001e-10
6.6632e-10
6.62021e-10
6.58601e-10
6.55862e-10
6.54408e-10
6.54871e-10
6.5795e-10
6.65394e-10
6.7808e-10
6.90928e-10
7.14939e-10
7.31192e-10
6.45994e-10
6.30936e-10
6.09571e-10
5.97257e-10
5.85853e-10
5.79292e-10
5.76672e-10
5.76319e-10
5.77757e-10
5.80298e-10
5.83496e-10
5.87448e-10
5.90878e-10
5.94037e-10
5.97121e-10
5.99735e-10
6.01906e-10
6.03787e-10
6.05353e-10
6.06577e-10
6.0755e-10
6.08269e-10
6.08761e-10
6.09102e-10
6.09241e-10
6.09218e-10
6.09036e-10
6.08684e-10
6.0816e-10
6.07384e-10
6.06428e-10
6.05168e-10
6.03578e-10
6.0172e-10
5.99592e-10
5.97023e-10
5.93976e-10
5.90907e-10
5.87572e-10
5.8358e-10
5.80444e-10
5.77984e-10
5.7666e-10
5.77079e-10
5.79796e-10
5.8646e-10
5.97953e-10
6.10179e-10
6.31914e-10
6.47056e-10
5.68876e-10
5.54972e-10
5.35545e-10
5.24089e-10
5.13871e-10
5.08023e-10
5.05717e-10
5.05385e-10
5.06713e-10
5.08992e-10
5.1185e-10
5.15442e-10
5.18559e-10
5.21362e-10
5.24161e-10
5.26485e-10
5.2847e-10
5.30165e-10
5.3157e-10
5.32678e-10
5.33554e-10
5.34212e-10
5.34655e-10
5.34962e-10
5.35086e-10
5.35066e-10
5.34902e-10
5.34575e-10
5.34104e-10
5.33405e-10
5.3254e-10
5.31404e-10
5.29962e-10
5.28307e-10
5.26366e-10
5.24076e-10
5.21322e-10
5.18596e-10
5.15557e-10
5.11928e-10
5.09109e-10
5.06911e-10
5.05701e-10
5.06087e-10
5.08474e-10
5.14418e-10
5.24719e-10
5.36143e-10
5.55849e-10
5.69862e-10
4.98505e-10
4.85797e-10
4.68118e-10
4.57626e-10
4.48311e-10
4.42828e-10
4.40754e-10
4.40504e-10
4.4182e-10
4.43991e-10
4.4667e-10
4.5002e-10
4.52835e-10
4.55328e-10
4.57858e-10
4.59918e-10
4.61718e-10
4.6323e-10
4.64488e-10
4.65481e-10
4.66265e-10
4.66861e-10
4.67256e-10
4.67531e-10
4.67642e-10
4.67624e-10
4.67478e-10
4.67178e-10
4.66758e-10
4.66132e-10
4.65356e-10
4.6434e-10
4.63045e-10
4.61576e-10
4.59819e-10
4.57783e-10
4.55301e-10
4.52867e-10
4.50118e-10
4.46746e-10
4.44094e-10
4.42013e-10
4.40813e-10
4.4111e-10
4.43245e-10
4.48822e-10
4.58192e-10
4.68695e-10
4.86586e-10
4.99402e-10
4.34684e-10
4.2225e-10
4.05823e-10
3.96161e-10
3.87853e-10
3.82965e-10
3.81152e-10
3.80939e-10
3.8217e-10
3.84146e-10
3.8655e-10
3.89588e-10
3.92138e-10
3.94381e-10
3.96689e-10
3.98535e-10
4.00186e-10
4.0154e-10
4.02689e-10
4.03587e-10
4.043e-10
4.04844e-10
4.05204e-10
4.05454e-10
4.05556e-10
4.0554e-10
4.05406e-10
4.05131e-10
4.04749e-10
4.04181e-10
4.03476e-10
4.02557e-10
4.01379e-10
4.00061e-10
3.98453e-10
3.96623e-10
3.94364e-10
3.92165e-10
3.89673e-10
3.86618e-10
3.84237e-10
3.82354e-10
3.81232e-10
3.81486e-10
3.83341e-10
3.8831e-10
3.96673e-10
4.06371e-10
4.22975e-10
4.35495e-10
3.75734e-10
3.64256e-10
3.50912e-10
3.42252e-10
3.34942e-10
3.30578e-10
3.28983e-10
3.28786e-10
3.29911e-10
3.31682e-10
3.3381e-10
3.36512e-10
3.38764e-10
3.4077e-10
3.4282e-10
3.44457e-10
3.45938e-10
3.47128e-10
3.48154e-10
3.48948e-10
3.49581e-10
3.50065e-10
3.50384e-10
3.50606e-10
3.50695e-10
3.50681e-10
3.50563e-10
3.50317e-10
3.49979e-10
3.49477e-10
3.4885e-10
3.48038e-10
3.46992e-10
3.45828e-10
3.44388e-10
3.42762e-10
3.40759e-10
3.38785e-10
3.36586e-10
3.33871e-10
3.31763e-10
3.30087e-10
3.29064e-10
3.29294e-10
3.30912e-10
3.35346e-10
3.42705e-10
3.51413e-10
3.64894e-10
3.76482e-10
3.24083e-10
3.13792e-10
3.0183e-10
2.9414e-10
2.87751e-10
2.83855e-10
2.82459e-10
2.82281e-10
2.83305e-10
2.84885e-10
2.86759e-10
2.89144e-10
2.91114e-10
2.92901e-10
2.94704e-10
2.96153e-10
2.97474e-10
2.98513e-10
2.99422e-10
3.00122e-10
3.00681e-10
3.01108e-10
3.01388e-10
3.01584e-10
3.01663e-10
3.0165e-10
3.01546e-10
3.01328e-10
3.01031e-10
3.00589e-10
3.00036e-10
2.9932e-10
2.984e-10
2.97377e-10
2.96094e-10
2.94653e-10
2.92894e-10
2.91132e-10
2.89209e-10
2.86812e-10
2.84955e-10
2.83471e-10
2.82547e-10
2.82746e-10
2.84151e-10
2.88105e-10
2.94539e-10
3.02278e-10
3.14354e-10
3.24751e-10
2.78072e-10
2.68886e-10
2.58233e-10
2.51472e-10
2.45925e-10
2.42444e-10
2.41224e-10
2.40966e-10
2.41873e-10
2.43252e-10
2.44903e-10
2.47025e-10
2.48801e-10
2.50401e-10
2.51999e-10
2.53281e-10
2.54447e-10
2.55351e-10
2.56151e-10
2.56765e-10
2.57254e-10
2.57629e-10
2.57873e-10
2.58045e-10
2.58114e-10
2.58103e-10
2.58012e-10
2.57821e-10
2.57561e-10
2.57175e-10
2.56689e-10
2.56063e-10
2.55259e-10
2.54366e-10
2.53228e-10
2.51955e-10
2.50388e-10
2.48812e-10
2.47079e-10
2.44951e-10
2.43321e-10
2.42021e-10
2.41232e-10
2.4149e-10
2.42704e-10
2.46234e-10
2.5182e-10
2.58629e-10
2.69375e-10
2.78669e-10
2.37345e-10
2.29162e-10
2.19338e-10
2.13203e-10
2.083e-10
2.05112e-10
2.04047e-10
2.0378e-10
2.04594e-10
2.0581e-10
2.07243e-10
2.09077e-10
2.10627e-10
2.12036e-10
2.13421e-10
2.14553e-10
2.15572e-10
2.16362e-10
2.17062e-10
2.17599e-10
2.18024e-10
2.18352e-10
2.18565e-10
2.18714e-10
2.18774e-10
2.18764e-10
2.18685e-10
2.18518e-10
2.18292e-10
2.17955e-10
2.17531e-10
2.16986e-10
2.16283e-10
2.15501e-10
2.14505e-10
2.13382e-10
2.12024e-10
2.10636e-10
2.09124e-10
2.07283e-10
2.05865e-10
2.04731e-10
2.04042e-10
2.04278e-10
2.05339e-10
2.0857e-10
2.13509e-10
2.19695e-10
2.29579e-10
2.37879e-10
2.00818e-10
1.93395e-10
1.84752e-10
1.79429e-10
1.7525e-10
1.73173e-10
1.72297e-10
1.7203e-10
1.72771e-10
1.73832e-10
1.75077e-10
1.76655e-10
1.77991e-10
1.79228e-10
1.80411e-10
1.81401e-10
1.82284e-10
1.82966e-10
1.83573e-10
1.84038e-10
1.84406e-10
1.84689e-10
1.84873e-10
1.85003e-10
1.85054e-10
1.85046e-10
1.84978e-10
1.84833e-10
1.84638e-10
1.84346e-10
1.8398e-10
1.83509e-10
1.82901e-10
1.82225e-10
1.8136e-10
1.80377e-10
1.79219e-10
1.78e-10
1.76697e-10
1.75109e-10
1.7388e-10
1.7289e-10
1.72293e-10
1.72483e-10
1.73367e-10
1.75481e-10
1.79692e-10
1.85061e-10
1.93748e-10
2.01308e-10
1.68676e-10
1.62142e-10
1.55363e-10
1.50763e-10
1.47198e-10
1.45371e-10
1.44532e-10
1.44423e-10
1.4483e-10
1.45712e-10
1.46769e-10
1.48131e-10
1.49274e-10
1.50331e-10
1.51352e-10
1.52207e-10
1.5297e-10
1.53556e-10
1.54077e-10
1.54475e-10
1.54788e-10
1.55029e-10
1.55184e-10
1.55293e-10
1.55336e-10
1.55329e-10
1.55271e-10
1.55148e-10
1.54983e-10
1.54733e-10
1.54421e-10
1.54018e-10
1.53499e-10
1.52916e-10
1.52169e-10
1.51322e-10
1.50321e-10
1.4928e-10
1.48166e-10
1.46794e-10
1.45749e-10
1.44932e-10
1.44448e-10
1.44673e-10
1.45539e-10
1.47394e-10
1.50987e-10
1.55629e-10
1.6243e-10
1.69115e-10
1.41476e-10
1.35744e-10
1.29923e-10
1.25977e-10
1.22949e-10
1.21375e-10
1.20692e-10
1.2058e-10
1.20938e-10
1.21682e-10
1.22593e-10
1.2375e-10
1.24721e-10
1.2563e-10
1.26492e-10
1.27227e-10
1.27877e-10
1.28377e-10
1.28822e-10
1.29162e-10
1.29428e-10
1.29634e-10
1.29766e-10
1.29859e-10
1.29896e-10
1.29889e-10
1.2984e-10
1.29735e-10
1.29594e-10
1.29382e-10
1.29116e-10
1.28772e-10
1.28331e-10
1.27832e-10
1.27194e-10
1.26466e-10
1.25621e-10
1.24727e-10
1.23781e-10
1.22612e-10
1.21716e-10
1.21021e-10
1.2061e-10
1.20796e-10
1.21516e-10
1.23115e-10
1.26165e-10
1.3015e-10
1.35986e-10
1.41858e-10
1.178e-10
1.12701e-10
1.07703e-10
1.04318e-10
1.01752e-10
1.00409e-10
9.98555e-11
9.97506e-11
1.00066e-10
1.00696e-10
1.01477e-10
1.02456e-10
1.0328e-10
1.04059e-10
1.04786e-10
1.05419e-10
1.0597e-10
1.06399e-10
1.06779e-10
1.07068e-10
1.07295e-10
1.07471e-10
1.07583e-10
1.07663e-10
1.07694e-10
1.07688e-10
1.07646e-10
1.07557e-10
1.07437e-10
1.07255e-10
1.07028e-10
1.06736e-10
1.0636e-10
1.05932e-10
1.05391e-10
1.04764e-10
1.04053e-10
1.03286e-10
1.02483e-10
1.01491e-10
1.00724e-10
1.00133e-10
9.97847e-11
9.99338e-11
1.00525e-10
1.0189e-10
1.04476e-10
1.07896e-10
1.12912e-10
1.18126e-10
9.76668e-11
9.32272e-11
8.90026e-11
8.61351e-11
8.39765e-11
8.28487e-11
8.24028e-11
8.23085e-11
8.25826e-11
8.31082e-11
8.37743e-11
8.45892e-11
8.52767e-11
8.59384e-11
8.65439e-11
8.70795e-11
8.75421e-11
8.79034e-11
8.82226e-11
8.84652e-11
8.86563e-11
8.88042e-11
8.88991e-11
8.89659e-11
8.8992e-11
8.89872e-11
8.8952e-11
8.88768e-11
8.87758e-11
8.8623e-11
8.8432e-11
8.81872e-11
8.7871e-11
8.75109e-11
8.70563e-11
8.65263e-11
8.59331e-11
8.52831e-11
8.46126e-11
8.37839e-11
8.31314e-11
8.26371e-11
8.23433e-11
8.24637e-11
8.29428e-11
8.40909e-11
8.62661e-11
8.91645e-11
9.34155e-11
9.79308e-11
8.04911e-11
7.6686e-11
7.31251e-11
7.07116e-11
6.88659e-11
6.78507e-11
6.74843e-11
6.7403e-11
6.7647e-11
6.80901e-11
6.86641e-11
6.93488e-11
6.99362e-11
7.05053e-11
7.10191e-11
7.14807e-11
7.18757e-11
7.21874e-11
7.24606e-11
7.26693e-11
7.2832e-11
7.29556e-11
7.3035e-11
7.30908e-11
7.31125e-11
7.31085e-11
7.30791e-11
7.30162e-11
7.2932e-11
7.28043e-11
7.26407e-11
7.24304e-11
7.216e-11
7.18493e-11
7.1461e-11
7.10044e-11
7.05011e-11
6.99419e-11
6.93694e-11
6.86707e-11
6.81101e-11
6.76897e-11
6.74368e-11
6.75343e-11
6.79287e-11
6.89648e-11
7.0819e-11
7.32594e-11
7.68481e-11
8.07047e-11
6.59462e-11
6.27163e-11
5.97279e-11
5.77189e-11
5.61713e-11
5.533e-11
5.50369e-11
5.4969e-11
5.51796e-11
5.55464e-11
5.6026e-11
5.65886e-11
5.70769e-11
5.75525e-11
5.79767e-11
5.83611e-11
5.86889e-11
5.89493e-11
5.91754e-11
5.93493e-11
5.94847e-11
5.95873e-11
5.96532e-11
5.96995e-11
5.97175e-11
5.97142e-11
5.96898e-11
5.96376e-11
5.95678e-11
5.94619e-11
5.93254e-11
5.91506e-11
5.89268e-11
5.86673e-11
5.8345e-11
5.79647e-11
5.75493e-11
5.7082e-11
5.66063e-11
5.60301e-11
5.55617e-11
5.52119e-11
5.49992e-11
5.50774e-11
5.53911e-11
5.62516e-11
5.78055e-11
5.98384e-11
6.28533e-11
6.61166e-11
5.37078e-11
5.10008e-11
4.85011e-11
4.6843e-11
4.55492e-11
4.48605e-11
4.46274e-11
4.45723e-11
4.47526e-11
4.50545e-11
4.54518e-11
4.59109e-11
4.6314e-11
4.67083e-11
4.70562e-11
4.73741e-11
4.76434e-11
4.78597e-11
4.8045e-11
4.8189e-11
4.83012e-11
4.83856e-11
4.84399e-11
4.84781e-11
4.8493e-11
4.84902e-11
4.84701e-11
4.8427e-11
4.83696e-11
4.82824e-11
4.81694e-11
4.80247e-11
4.78414e-11
4.76258e-11
4.73611e-11
4.70466e-11
4.6706e-11
4.63184e-11
4.59259e-11
4.54535e-11
4.50655e-11
4.47762e-11
4.45978e-11
4.46601e-11
4.49066e-11
4.56133e-11
4.69118e-11
4.85913e-11
5.1114e-11
5.38421e-11
4.34045e-11
4.12346e-11
3.91553e-11
3.77978e-11
3.67205e-11
3.61635e-11
3.59799e-11
3.59366e-11
3.609e-11
3.63372e-11
3.66636e-11
3.70353e-11
3.73658e-11
3.76902e-11
3.79736e-11
3.82344e-11
3.84537e-11
3.8632e-11
3.87828e-11
3.89012e-11
3.89934e-11
3.90625e-11
3.91069e-11
3.91383e-11
3.91504e-11
3.91482e-11
3.91317e-11
3.90964e-11
3.90495e-11
3.89781e-11
3.88853e-11
3.87664e-11
3.86173e-11
3.84396e-11
3.8224e-11
3.79659e-11
3.76886e-11
3.73696e-11
3.70476e-11
3.66631e-11
3.6344e-11
3.61062e-11
3.59567e-11
3.60054e-11
3.61961e-11
3.6772e-11
3.785e-11
3.92281e-11
4.13273e-11
4.35102e-11
3.49331e-11
3.31373e-11
3.14268e-11
3.03219e-11
2.94334e-11
2.8961e-11
2.8791e-11
2.8742e-11
2.88623e-11
2.90595e-11
2.93244e-11
2.96237e-11
2.9893e-11
3.01596e-11
3.03921e-11
3.06068e-11
3.07868e-11
3.09333e-11
3.10572e-11
3.11544e-11
3.12296e-11
3.12863e-11
3.13225e-11
3.13481e-11
3.13579e-11
3.1356e-11
3.13426e-11
3.13137e-11
3.12754e-11
3.12167e-11
3.1141e-11
3.10434e-11
3.09209e-11
3.0775e-11
3.0598e-11
3.03856e-11
3.01582e-11
2.98961e-11
2.96347e-11
2.93189e-11
2.90611e-11
2.88726e-11
2.87568e-11
2.88106e-11
2.89825e-11
2.94744e-11
3.03602e-11
3.1485e-11
3.32121e-11
3.50141e-11
2.79603e-11
2.64678e-11
2.5078e-11
2.41832e-11
2.3459e-11
2.30778e-11
2.294e-11
2.29002e-11
2.30001e-11
2.31589e-11
2.33729e-11
)
;

boundaryField
{
    fuel
    {
        type            fixedValue;
        value           nonuniform 0();
    }
    wall
    {
        type            zeroGradient;
    }
    outlet
    {
        type            zeroGradient;
    }
    frontAndBack
    {
        type            empty;
    }
    procBoundary2to0
    {
        type            processor;
        value           nonuniform List<scalar> 
53
(
4.34025e-09
4.32119e-09
4.27869e-09
4.2505e-09
4.2224e-09
4.20801e-09
4.19846e-09
4.19651e-09
4.19865e-09
4.20563e-09
4.21339e-09
4.22323e-09
4.23323e-09
4.24251e-09
4.25116e-09
4.25899e-09
4.26573e-09
4.27127e-09
4.07719e-09
4.07719e-09
4.08084e-09
4.08359e-09
4.08576e-09
4.08723e-09
4.08822e-09
4.08864e-09
4.08858e-09
4.08805e-09
4.08694e-09
3.888e-09
3.888e-09
3.88579e-09
3.88303e-09
3.87937e-09
3.87496e-09
3.86944e-09
3.86292e-09
3.8552e-09
3.8468e-09
3.83763e-09
3.82773e-09
3.81795e-09
3.61524e-09
3.61524e-09
3.60827e-09
3.60605e-09
3.60802e-09
3.61765e-09
3.63244e-09
3.66117e-09
3.69167e-09
3.73741e-09
3.75965e-09
)
;
    }
    procBoundary2to3
    {
        type            processor;
        value           nonuniform List<scalar> 
51
(
2.36181e-11
2.38355e-11
2.40518e-11
2.42389e-11
2.44126e-11
2.45571e-11
2.46761e-11
2.47757e-11
2.48544e-11
2.4915e-11
2.49609e-11
2.49901e-11
2.50108e-11
2.50187e-11
2.50171e-11
2.50063e-11
2.49829e-11
2.49521e-11
2.49047e-11
2.48436e-11
2.47646e-11
2.46661e-11
2.45476e-11
2.44056e-11
2.42337e-11
2.40508e-11
2.38381e-11
2.36264e-11
2.33729e-11
2.31641e-11
2.30117e-11
2.29163e-11
2.29599e-11
2.30937e-11
2.34953e-11
2.42155e-11
2.51266e-11
2.65264e-11
2.80225e-11
2.22476e-11
2.10212e-11
1.98992e-11
1.91772e-11
1.85975e-11
1.82925e-11
1.8179e-11
1.81472e-11
1.82295e-11
1.83567e-11
2.36181e-11
1.85286e-11
)
;
    }
}


// ************************************************************************* //
