/*--------------------------------*- C++ -*----------------------------------*\
| =========                 |                                                 |
| \\      /  F ield         | OpenFOAM: The Open Source CFD Toolbox           |
|  \\    /   O peration     | Version:  dev                                   |
|   \\  /    A nd           | Web:      www.OpenFOAM.org                      |
|    \\/     M anipulation  |                                                 |
\*---------------------------------------------------------------------------*/
FoamFile
{
    version     2.0;
    format      ascii;
    class       volScalarField;
    location    "0.025";
    object      CH4;
}
// * * * * * * * * * * * * * * * * * * * * * * * * * * * * * * * * * * * * * //

dimensions      [0 0 0 0 0 0 0];

internalField   nonuniform List<scalar> 
250
(
0.000320671
0.00123796
0.000999228
0.000983957
0.000980754
0.000982589
0.000982531
0.000982598
0.000982594
0.000768363
0.00107133
0.000871491
0.000857744
0.000856041
0.000856401
0.000856462
0.000856468
0.000856407
0.0010736
0.00108091
0.000871303
0.000855755
0.000854147
0.000854131
0.000854172
0.000854159
0.00085407
0.00122781
0.00113804
0.000906689
0.000888279
0.000886437
0.000886301
0.00088628
0.000886241
0.000886149
0.00127207
0.00118736
0.000939225
0.000918031
0.000915955
0.000915713
0.000915636
0.00091555
0.000915469
0.00125425
0.00121626
0.000962877
0.000939024
0.000936114
0.000935441
0.000935321
0.000935173
0.000935106
0.00121071
0.00122743
0.000976648
0.000951029
0.000947668
0.00094676
0.000946605
0.000946387
0.000946333
0.00116279
0.0012244
0.000984098
0.000957308
0.000953663
0.000952648
0.000952458
0.000952169
0.000952126
0.00111959
0.0012132
0.000987683
0.000959971
0.000955641
0.000954434
0.000954209
0.000953841
0.000953802
0.00108435
0.00119368
0.000988272
0.00096015
0.000955313
0.000953884
0.000953619
0.000953165
0.000953127
0.00105936
0.001171
0.000987172
0.000958895
0.000953418
0.000951683
0.000951361
0.000950791
0.000950747
0.000950551
0.00104485
0.00114765
0.000984752
0.00095635
0.000950222
0.000948189
0.000947802
0.000947115
0.000947058
0.000946823
0.00103943
0.00112901
0.000981576
0.000953066
0.0009463
0.000943959
0.000943497
0.000942683
0.000942607
0.000942329
0.00104115
0.00111194
0.000977992
0.000949323
0.000941944
0.00093929
0.000938738
0.000937791
0.000937687
0.000937361
0.00104812
0.00109685
0.000974234
0.000945333
0.000937379
0.000934413
0.000933752
0.000932668
0.000932525
0.000932148
0.00105867
0.00108412
0.000970486
0.000941274
0.000932791
0.000929521
0.000928729
0.000927507
0.000927308
0.00092688
0.00107155
0.00107171
0.000966894
0.00093731
0.000928347
0.000924788
0.000923837
0.000922479
0.000922206
0.000921727
0.00108529
0.00106287
0.000963595
0.000933593
0.0009242
0.000920372
0.000919231
0.000917741
0.000917373
0.000916844
0.00109921
0.00105573
0.0009607
0.000930271
0.000920494
0.00091642
0.000915054
0.00091344
0.00091295
0.000912374
0.00111288
0.00105024
0.000958312
0.000927483
0.000917362
0.000913069
0.00091144
0.00090971
0.000909071
0.000908451
0.0011262
0.00104627
0.000956526
0.000925358
0.00091493
0.000910443
0.00090851
0.000906672
0.000905855
0.000905193
0.00113927
0.00104366
0.000955426
0.000924017
0.000913311
0.00090865
0.000906374
0.000904433
0.000903407
0.000902707
0.0011522
0.00104226
0.000955089
0.000923565
0.000912602
0.000907781
0.000905122
0.000903079
0.000901814
0.000901077
0.00116498
0.00104185
0.000955521
0.000924021
0.000912852
0.000907892
0.000904824
0.000902675
0.000901143
0.000900367
0.00117741
0.00104229
0.000956711
0.00092537
0.00091402
0.000908917
0.000905444
0.000903189
0.000901398
0.000900585
0.00118908
0.00104335
0.000958654
0.000927652
0.000916095
0.000910834
0.000906939
0.000904564
0.000902501
0.000901643
)
;

boundaryField
{
    fuel
    {
        type            fixedValue;
        value           uniform 0;
    }
    wall
    {
        type            zeroGradient;
    }
    outlet
    {
        type            zeroGradient;
    }
    frontAndBack
    {
        type            empty;
    }
    procBoundary2to0
    {
        type            processor;
        value           nonuniform List<scalar> 
12
(
0.000900582
0.00119944
0.00104478
0.000961297
0.000930741
0.000919025
0.000913575
0.000909253
0.000906735
0.000904392
0.000901637
0.000903477
)
;
    }
    procBoundary2to3
    {
        type            processor;
        value           nonuniform List<scalar> 
25
(
0.000982386
0.000856215
0.00085389
0.000885992
0.000915334
0.000934987
0.000946217
0.000952005
0.000953666
0.000952969
0.000952969
0.000950561
0.000946833
0.00094234
0.000937375
0.000932164
0.000926897
0.000921745
0.000916862
0.000912391
0.000908466
0.000905205
0.000902716
0.000901082
0.000900367
)
;
    }
}


// ************************************************************************* //
