/*--------------------------------*- C++ -*----------------------------------*\
| =========                 |                                                 |
| \\      /  F ield         | OpenFOAM: The Open Source CFD Toolbox           |
|  \\    /   O peration     | Version:  dev                                   |
|   \\  /    A nd           | Web:      www.OpenFOAM.org                      |
|    \\/     M anipulation  |                                                 |
\*---------------------------------------------------------------------------*/
FoamFile
{
    version     2.0;
    format      ascii;
    class       volScalarField;
    location    "0.025";
    object      HO2;
}
// * * * * * * * * * * * * * * * * * * * * * * * * * * * * * * * * * * * * * //

dimensions      [0 0 0 0 0 0 0];

internalField   nonuniform List<scalar> 
25
(
1.59926e-08
1.99407e-08
2.47152e-08
3.04568e-08
3.73263e-08
4.54994e-08
5.51551e-08
6.67187e-08
8.00508e-08
9.56452e-08
1.1398e-07
1.35256e-07
1.6011e-07
1.90012e-07
2.24458e-07
2.65483e-07
3.14797e-07
3.74725e-07
4.48327e-07
5.39614e-07
6.53891e-07
7.98164e-07
9.81451e-07
1.21461e-06
1.50914e-06
)
;

boundaryField
{
    wall
    {
        type            zeroGradient;
    }
    fuel
    {
        type            fixedValue;
        value           nonuniform 0();
    }
    outlet
    {
        type            inletOutlet;
        inletValue      nonuniform 0();
        value           nonuniform 0();
    }
    procBoundary2to1
    {
        type            processor;
        value           uniform 1.27353e-08;
    }
    procBoundary2to3
    {
        type            processor;
        value           uniform 1.87473e-06;
    }
}


// ************************************************************************* //
