/*--------------------------------*- C++ -*----------------------------------*\
| =========                 |                                                 |
| \\      /  F ield         | OpenFOAM: The Open Source CFD Toolbox           |
|  \\    /   O peration     | Version:  dev                                   |
|   \\  /    A nd           | Web:      www.OpenFOAM.org                      |
|    \\/     M anipulation  |                                                 |
\*---------------------------------------------------------------------------*/
FoamFile
{
    version     2.0;
    format      ascii;
    class       volScalarField;
    location    "0.025";
    object      n-A1C2H2;
}
// * * * * * * * * * * * * * * * * * * * * * * * * * * * * * * * * * * * * * //

dimensions      [0 0 0 0 0 0 0];

internalField   nonuniform List<scalar> 
25
(
2.86612e-12
3.45694e-12
4.16793e-12
5.0228e-12
6.04907e-12
7.27731e-12
8.73852e-12
1.04987e-11
1.25354e-11
1.49089e-11
1.76589e-11
2.07577e-11
2.42005e-11
2.80347e-11
3.20138e-11
3.61323e-11
4.02569e-11
4.42299e-11
4.78695e-11
5.09799e-11
5.33684e-11
5.48678e-11
5.53573e-11
5.47807e-11
5.31549e-11
)
;

boundaryField
{
    wall
    {
        type            zeroGradient;
    }
    fuel
    {
        type            fixedValue;
        value           nonuniform 0();
    }
    outlet
    {
        type            inletOutlet;
        inletValue      nonuniform 0();
        value           nonuniform 0();
    }
    procBoundary2to1
    {
        type            processor;
        value           uniform 2.37492e-12;
    }
    procBoundary2to3
    {
        type            processor;
        value           uniform 5.05761e-11;
    }
}


// ************************************************************************* //
