/*--------------------------------*- C++ -*----------------------------------*\
| =========                 |                                                 |
| \\      /  F ield         | OpenFOAM: The Open Source CFD Toolbox           |
|  \\    /   O peration     | Version:  dev                                   |
|   \\  /    A nd           | Web:      www.OpenFOAM.org                      |
|    \\/     M anipulation  |                                                 |
\*---------------------------------------------------------------------------*/
FoamFile
{
    version     2.0;
    format      ascii;
    class       volScalarField;
    location    "0.025";
    object      n-C6H7;
}
// * * * * * * * * * * * * * * * * * * * * * * * * * * * * * * * * * * * * * //

dimensions      [0 0 0 0 0 0 0];

internalField   nonuniform List<scalar> 
250
(
5.93573e-14
1.92662e-11
1.88624e-11
1.87623e-11
1.87447e-11
1.87452e-11
1.87401e-11
1.87369e-11
1.87428e-11
1.0531e-13
1.37787e-11
1.2524e-11
1.23401e-11
1.23013e-11
1.22991e-11
1.22948e-11
1.22925e-11
1.22942e-11
8.92543e-14
7.99774e-12
6.76347e-12
6.60737e-12
6.57969e-12
6.5784e-12
6.57533e-12
6.57378e-12
6.57426e-12
6.4573e-14
4.57993e-12
3.54016e-12
3.42451e-12
3.40589e-12
3.40548e-12
3.40358e-12
3.40255e-12
3.40271e-12
4.55546e-14
2.78506e-12
1.92366e-12
1.85123e-12
1.84145e-12
1.84192e-12
1.84092e-12
1.84033e-12
1.84054e-12
3.50517e-14
1.83624e-12
1.13762e-12
1.05854e-12
1.0399e-12
1.04004e-12
1.03923e-12
1.03849e-12
1.03847e-12
3.46171e-14
1.30489e-12
7.38841e-13
6.73637e-13
6.58882e-13
6.60917e-13
6.6067e-13
6.60314e-13
6.60454e-13
5.1018e-14
9.83287e-13
5.19465e-13
4.68962e-13
4.55155e-13
4.51355e-13
4.50411e-13
4.49464e-13
4.49321e-13
1.0554e-13
7.73072e-13
3.82654e-13
3.46488e-13
3.38805e-13
3.36924e-13
3.3623e-13
3.35466e-13
3.35402e-13
1.68159e-13
6.26678e-13
3.08292e-13
2.68464e-13
2.59821e-13
2.58588e-13
2.58086e-13
2.57481e-13
2.57454e-13
2.70606e-13
5.19726e-13
2.55388e-13
2.18053e-13
2.14453e-13
2.13722e-13
2.13389e-13
2.12902e-13
2.12929e-13
2.12692e-13
3.85565e-13
4.38946e-13
2.17892e-13
1.87733e-13
1.83619e-13
1.82096e-13
1.8134e-13
1.80571e-13
1.8046e-13
1.80103e-13
3.81603e-13
3.76407e-13
1.90406e-13
1.64124e-13
1.59315e-13
1.5797e-13
1.57259e-13
1.56525e-13
1.56423e-13
1.5607e-13
2.80086e-13
3.27197e-13
1.71877e-13
1.46101e-13
1.41298e-13
1.40048e-13
1.39348e-13
1.38623e-13
1.38518e-13
1.38162e-13
1.76051e-13
2.87997e-13
1.55659e-13
1.32113e-13
1.27359e-13
1.26154e-13
1.25443e-13
1.24708e-13
1.24595e-13
1.24229e-13
1.11218e-13
2.53267e-13
1.4203e-13
1.20832e-13
1.16153e-13
1.14962e-13
1.14226e-13
1.13469e-13
1.13344e-13
1.12962e-13
8.25912e-14
2.26866e-13
1.3047e-13
1.11425e-13
1.0684e-13
1.0564e-13
1.04873e-13
1.04085e-13
1.03946e-13
1.03544e-13
7.47735e-14
2.03737e-13
1.20418e-13
1.03355e-13
9.88707e-14
9.766e-14
9.68566e-14
9.60308e-14
9.58783e-14
9.54534e-14
7.54287e-14
1.82393e-13
1.11522e-13
9.6262e-14
9.18775e-14
9.06798e-14
8.98297e-14
8.89617e-14
8.87987e-14
8.83469e-14
7.80186e-14
1.65918e-13
1.03575e-13
8.98941e-14
8.56106e-14
8.44516e-14
8.35564e-14
8.26434e-14
8.24764e-14
8.19942e-14
7.99703e-14
1.49738e-13
9.64304e-14
8.48045e-14
8.05622e-14
7.88012e-14
7.78679e-14
7.69086e-14
7.67493e-14
7.62325e-14
8.06896e-14
1.34522e-13
8.99523e-14
7.98029e-14
7.576e-14
7.41994e-14
7.263e-14
7.16253e-14
7.14958e-14
7.09389e-14
8.03942e-14
1.22528e-13
8.46604e-14
7.55862e-14
7.15932e-14
6.96756e-14
6.82937e-14
6.72548e-14
6.66125e-14
6.60083e-14
7.93065e-14
1.11786e-13
7.98307e-14
7.17355e-14
6.77752e-14
6.57676e-14
6.42924e-14
6.30703e-14
6.25297e-14
6.18753e-14
7.75556e-14
1.02238e-13
7.54246e-14
6.81952e-14
6.42413e-14
6.21316e-14
6.05573e-14
5.9275e-14
5.87151e-14
5.80018e-14
7.51932e-14
9.32574e-14
7.13966e-14
6.49089e-14
6.09249e-14
5.86997e-14
5.7025e-14
5.56743e-14
5.50288e-14
5.43252e-14
)
;

boundaryField
{
    fuel
    {
        type            fixedValue;
        value           uniform 0;
    }
    wall
    {
        type            zeroGradient;
    }
    outlet
    {
        type            zeroGradient;
    }
    frontAndBack
    {
        type            empty;
    }
    procBoundary2to0
    {
        type            processor;
        value           nonuniform List<scalar> 
12
(
5.79146e-14
7.23712e-14
8.47189e-14
6.76638e-14
6.1787e-14
5.77378e-14
5.53831e-14
5.36212e-14
5.21978e-14
5.1543e-14
5.42357e-14
5.07803e-14
)
;
    }
    procBoundary2to3
    {
        type            processor;
        value           nonuniform List<scalar> 
25
(
1.87385e-11
1.2292e-11
6.57291e-12
3.40182e-12
1.83995e-12
1.03802e-12
6.60166e-13
4.48879e-13
3.35034e-13
2.57171e-13
2.57171e-13
2.12595e-13
1.80022e-13
1.55997e-13
1.38091e-13
1.24159e-13
1.12892e-13
1.03473e-13
9.53814e-14
8.8274e-14
8.192e-14
7.61568e-14
7.08614e-14
6.59286e-14
6.17916e-14
)
;
    }
}


// ************************************************************************* //
