/*--------------------------------*- C++ -*----------------------------------*\
| =========                 |                                                 |
| \\      /  F ield         | OpenFOAM: The Open Source CFD Toolbox           |
|  \\    /   O peration     | Version:  dev                                   |
|   \\  /    A nd           | Web:      www.OpenFOAM.org                      |
|    \\/     M anipulation  |                                                 |
\*---------------------------------------------------------------------------*/
FoamFile
{
    version     2.0;
    format      ascii;
    class       volScalarField;
    location    "0.025";
    object      N2;
}
// * * * * * * * * * * * * * * * * * * * * * * * * * * * * * * * * * * * * * //

dimensions      [0 0 0 0 0 0 0];

internalField   nonuniform List<scalar> 
250
(
0.0036738
0.00040797
4.68528e-05
1.11089e-05
7.7103e-06
7.00522e-06
6.38569e-06
6.02097e-06
5.59038e-06
0.0105148
0.000778262
8.87424e-05
2.14343e-05
1.50356e-05
1.36728e-05
1.24764e-05
1.17704e-05
1.09356e-05
0.0173049
0.00117988
0.000135562
3.37576e-05
2.40677e-05
2.19229e-05
2.00292e-05
1.89077e-05
1.75543e-05
0.0228902
0.00159011
0.000186978
4.85557e-05
3.53656e-05
3.22852e-05
2.95382e-05
2.79047e-05
2.59024e-05
0.0265788
0.00198116
0.000242664
6.62467e-05
4.9505e-05
4.53083e-05
4.15194e-05
3.9257e-05
3.64319e-05
0.0282549
0.00232976
0.000300167
8.83866e-05
6.86126e-05
6.30216e-05
5.78742e-05
5.47917e-05
5.08446e-05
0.0282336
0.0026208
0.000359045
0.000113728
9.10794e-05
8.3861e-05
7.71557e-05
7.3121e-05
6.78389e-05
0.0270095
0.00284764
0.000421174
0.00014388
0.000119093
0.000111202
0.000102703
9.75841e-05
9.05787e-05
0.025064
0.00301058
0.00049247
0.000182831
0.0001543
0.000144087
0.000133338
0.000126834
0.000117714
0.022775
0.0031149
0.000557725
0.00023405
0.000204972
0.000191958
0.000178047
0.000169573
0.000157384
0.0203991
0.00316943
0.000634679
0.00029793
0.000260838
0.000244811
0.000227523
0.000216955
0.00020135
0.000198993
0.0180919
0.00318496
0.000722936
0.000366551
0.000330731
0.000314133
0.000293975
0.000281608
0.000261761
0.000258846
0.0159406
0.0031735
0.000825082
0.000460259
0.000430039
0.00040948
0.000384134
0.000368503
0.000342584
0.000338735
0.0139919
0.00314767
0.000930111
0.000581155
0.000556423
0.000530968
0.000499313
0.000479701
0.000446033
0.000441131
0.0122688
0.00312084
0.0010708
0.000733299
0.000716883
0.000685263
0.000645985
0.00062155
0.000578016
0.000571963
0.0107799
0.0031047
0.00124836
0.000924838
0.000920133
0.000880579
0.000832153
0.000801914
0.000745844
0.000738599
0.00952496
0.00311514
0.00147043
0.00116587
0.00117697
0.00112699
0.00106766
0.00103047
0.000958503
0.000950139
0.00849928
0.0031674
0.00174953
0.00146889
0.00150042
0.00143705
0.00136451
0.00131903
0.00122697
0.00121775
0.0076964
0.00328601
0.00210022
0.00184928
0.00190618
0.0018263
0.00173729
0.00168193
0.00156456
0.00155502
0.00710988
0.00346057
0.00253844
0.0023259
0.00241429
0.00231259
0.00220356
0.00213642
0.00198728
0.00197836
0.00673583
0.00375091
0.00308137
0.00284313
0.00296953
0.00291808
0.00278432
0.00270306
0.00251424
0.00250745
0.006572
0.00417883
0.00375496
0.00353135
0.00368144
0.00357668
0.00350449
0.00340621
0.00316805
0.00316562
0.0066203
0.00467916
0.0044964
0.00430101
0.00449972
0.00443661
0.00428634
0.00416985
0.00397519
0.00398037
0.00688837
0.0053256
0.00540154
0.00522586
0.00547986
0.00539973
0.00522577
0.00512092
0.00484846
0.00486451
0.0073892
0.00614126
0.00649734
0.00633322
0.00664953
0.00654988
0.00634793
0.00622268
0.00589104
0.00592298
0.0081424
0.00722708
0.00781437
0.00765396
0.00803993
0.00791756
0.00768295
0.0075343
0.00715904
0.00718454
)
;

boundaryField
{
    fuel
    {
        type            fixedValue;
        value           uniform 0;
    }
    wall
    {
        type            zeroGradient;
    }
    outlet
    {
        type            zeroGradient;
    }
    frontAndBack
    {
        type            empty;
    }
    procBoundary2to0
    {
        type            processor;
        value           nonuniform List<scalar> 
12
(
0.00593342
0.00917212
0.00868345
0.00938675
0.00922196
0.00968547
0.009536
0.009264
0.00908792
0.00863277
0.00719663
0.00868101
)
;
    }
    procBoundary2to3
    {
        type            processor;
        value           nonuniform List<scalar> 
25
(
5.49006e-06
1.07439e-05
1.72544e-05
2.54683e-05
3.58382e-05
5.00485e-05
6.68203e-05
8.93288e-05
0.000116187
0.000155506
0.000155506
0.000198372
0.000258414
0.000338481
0.000441073
0.00057213
0.000739036
0.000950911
0.00121895
0.00155677
0.00198086
0.00251091
0.00317034
0.00398666
0.00487275
)
;
    }
}


// ************************************************************************* //
