/*--------------------------------*- C++ -*----------------------------------*\
| =========                 |                                                 |
| \\      /  F ield         | OpenFOAM: The Open Source CFD Toolbox           |
|  \\    /   O peration     | Version:  dev                                   |
|   \\  /    A nd           | Web:      www.OpenFOAM.org                      |
|    \\/     M anipulation  |                                                 |
\*---------------------------------------------------------------------------*/
FoamFile
{
    version     2.0;
    format      ascii;
    class       volScalarField;
    location    "0.025";
    object      O2;
}
// * * * * * * * * * * * * * * * * * * * * * * * * * * * * * * * * * * * * * //

dimensions      [0 0 0 0 0 0 0];

internalField   nonuniform List<scalar> 
250
(
0.15444
0.0355917
0.0328582
0.0326926
0.0326711
0.0326777
0.0326777
0.0326772
0.0326777
0.0996443
0.00981579
0.00819219
0.00810407
0.00809649
0.0080949
0.008097
0.00809497
0.00809575
0.059136
0.00360566
0.00248786
0.00244011
0.00243591
0.00243393
0.00243544
0.00243415
0.00243464
0.0336161
0.00169625
0.000889813
0.000861411
0.00085832
0.000856989
0.00085782
0.000857114
0.000857396
0.0188143
0.000937014
0.000359366
0.00034134
0.000337725
0.000336805
0.000337223
0.000336846
0.000337011
0.0105617
0.000566083
0.000152372
0.000142024
0.000142301
0.000142563
0.000142766
0.000142568
0.000142663
0.00602644
0.000336649
7.01135e-05
6.34378e-05
6.33199e-05
6.38428e-05
6.39393e-05
6.38503e-05
6.39038e-05
0.00353172
0.000209693
3.39874e-05
2.94855e-05
2.7999e-05
2.80646e-05
2.8102e-05
2.80221e-05
2.80519e-05
0.00214316
0.000133299
1.60653e-05
1.38244e-05
1.31308e-05
1.31272e-05
1.31412e-05
1.31017e-05
1.31178e-05
0.00135174
8.03525e-05
7.60062e-06
6.23062e-06
6.28573e-06
6.30095e-06
6.30678e-06
6.29067e-06
6.29968e-06
0.00087955
4.78982e-05
3.95058e-06
3.10191e-06
3.02253e-06
3.00564e-06
3.00239e-06
2.98545e-06
2.9904e-06
2.98485e-06
0.000574874
2.77964e-05
1.98888e-06
1.47903e-06
1.42046e-06
1.41595e-06
1.41339e-06
1.40522e-06
1.40767e-06
1.40489e-06
0.000370855
1.71062e-05
1.02262e-06
7.24626e-07
6.87525e-07
6.86782e-07
6.85091e-07
6.81083e-07
6.82353e-07
6.80935e-07
0.00023384
1.03998e-05
5.43809e-07
3.71128e-07
3.49304e-07
3.49444e-07
3.48484e-07
3.46476e-07
3.47194e-07
3.46452e-07
0.000142972
6.23956e-06
3.02419e-07
2.0383e-07
1.91735e-07
1.91984e-07
1.91556e-07
1.90523e-07
1.90986e-07
1.90587e-07
8.43167e-05
3.7369e-06
1.78616e-07
1.23665e-07
1.17408e-07
1.17612e-07
1.17551e-07
1.16996e-07
1.17351e-07
1.17127e-07
4.73775e-05
2.03839e-06
1.13564e-07
8.4517e-08
8.16401e-08
8.17931e-08
8.19827e-08
8.16632e-08
8.19836e-08
8.18484e-08
2.57046e-05
1.16971e-06
7.90345e-08
6.47555e-08
6.37898e-08
6.39043e-08
6.42713e-08
6.40633e-08
6.43872e-08
6.42947e-08
1.34166e-05
6.62725e-07
6.01024e-08
5.41609e-08
5.4253e-08
5.43365e-08
5.48382e-08
5.46782e-08
5.50255e-08
5.49505e-08
6.76666e-06
3.73295e-07
4.92111e-08
4.78686e-08
4.85305e-08
4.85842e-08
4.91981e-08
4.90524e-08
4.94338e-08
4.93616e-08
3.31875e-06
2.11908e-07
4.2457e-08
4.35431e-08
4.44971e-08
4.45188e-08
4.5236e-08
4.50864e-08
4.55068e-08
4.54286e-08
1.59521e-06
1.23745e-07
3.77861e-08
4.00491e-08
4.11381e-08
4.11241e-08
4.1946e-08
4.1783e-08
4.22434e-08
4.21535e-08
7.59378e-07
7.65576e-08
3.40981e-08
3.68218e-08
3.79592e-08
3.79052e-08
3.8845e-08
3.86642e-08
3.91627e-08
3.90574e-08
3.64147e-07
4.97095e-08
3.11793e-08
3.40049e-08
3.51006e-08
3.50039e-08
3.5698e-08
3.54983e-08
3.60297e-08
3.59071e-08
1.81586e-07
3.59245e-08
2.84316e-08
3.11545e-08
3.21704e-08
3.20343e-08
3.27755e-08
3.25537e-08
3.31147e-08
3.2972e-08
9.9719e-08
2.80794e-08
2.57419e-08
2.81844e-08
2.91514e-08
2.89807e-08
2.97528e-08
2.95114e-08
3.00954e-08
2.99324e-08
)
;

boundaryField
{
    fuel
    {
        type            fixedValue;
        value           uniform 0.1914;
    }
    wall
    {
        type            zeroGradient;
    }
    outlet
    {
        type            inletOutlet;
        inletValue      uniform 0;
        value           nonuniform List<scalar> 
26
(
0
0
0
0
0
0
0
0
0
0
0
0.000574874
0.000370855
0.00023384
0.000142972
8.43167e-05
4.73775e-05
2.57046e-05
1.34166e-05
6.76666e-06
3.31875e-06
1.59521e-06
7.59378e-07
3.64147e-07
1.81586e-07
9.9719e-08
)
;
    }
    frontAndBack
    {
        type            empty;
    }
    procBoundary2to0
    {
        type            processor;
        value           nonuniform List<scalar> 
12
(
3.29862e-08
6.58599e-08
2.34766e-08
2.30836e-08
2.5215e-08
2.60655e-08
2.58672e-08
2.66488e-08
2.63923e-08
2.69902e-08
2.99463e-08
2.6809e-08
)
;
    }
    procBoundary2to3
    {
        type            processor;
        value           nonuniform List<scalar> 
25
(
0.0326757
0.0080951
0.00243419
0.000857109
0.000336846
0.000142574
6.38617e-05
2.80214e-05
1.31026e-05
6.29266e-06
6.29266e-06
2.98424e-06
1.40464e-06
6.80836e-07
3.46417e-07
1.90579e-07
1.17131e-07
8.18555e-08
6.43033e-08
5.49599e-08
4.93717e-08
4.54395e-08
4.21655e-08
3.90704e-08
3.59209e-08
)
;
    }
}


// ************************************************************************* //
