/*--------------------------------*- C++ -*----------------------------------*\
| =========                 |                                                 |
| \\      /  F ield         | OpenFOAM: The Open Source CFD Toolbox           |
|  \\    /   O peration     | Version:  dev                                   |
|   \\  /    A nd           | Web:      www.OpenFOAM.org                      |
|    \\/     M anipulation  |                                                 |
\*---------------------------------------------------------------------------*/
FoamFile
{
    version     2.0;
    format      ascii;
    class       surfaceScalarField;
    location    "0.025";
    object      phi;
}
// * * * * * * * * * * * * * * * * * * * * * * * * * * * * * * * * * * * * * //

dimensions      [1 0 -1 0 0 0 0];

internalField   nonuniform List<scalar> 
3902
(
-3.81424e-07
2.22515e-06
-3.68519e-07
2.27829e-06
-3.53864e-07
2.21605e-06
-3.38579e-07
2.22668e-06
-3.2291e-07
2.19877e-06
-3.06716e-07
2.19784e-06
-2.90562e-07
2.18725e-06
-2.74185e-07
2.18833e-06
-2.57894e-07
2.18531e-06
-2.41546e-07
2.18835e-06
-2.25269e-07
2.18794e-06
-2.09006e-07
2.1916e-06
-1.92794e-07
2.19176e-06
-1.76615e-07
2.19498e-06
-1.60472e-07
2.19502e-06
-1.44361e-07
2.19738e-06
-1.28274e-07
2.19721e-06
2.19869e-06
-3.85624e-07
2.21294e-06
-3.72486e-07
2.26512e-06
-3.57641e-07
2.2012e-06
-3.4216e-07
2.21122e-06
-3.26323e-07
2.18296e-06
-3.0995e-07
2.18152e-06
-2.93628e-07
2.17098e-06
-2.77079e-07
2.17185e-06
-2.60621e-07
2.16892e-06
-2.44102e-07
2.1719e-06
-2.27656e-07
2.17156e-06
-2.11223e-07
2.17523e-06
-1.94841e-07
2.17544e-06
-1.78492e-07
2.1787e-06
-1.62179e-07
2.17877e-06
-1.45897e-07
2.18116e-06
-1.29639e-07
2.18101e-06
-1.13401e-07
2.1825e-06
-9.71771e-08
2.18216e-06
-8.09672e-08
2.18307e-06
-6.47639e-08
2.18269e-06
-4.85677e-08
2.18315e-06
-3.23737e-08
2.18287e-06
-1.61823e-08
2.18306e-06
8.76103e-12
2.18295e-06
1.62002e-08
2.18294e-06
3.23921e-08
2.18302e-06
2.18282e-06
-3.89819e-07
2.20053e-06
-3.76448e-07
2.25173e-06
-3.61411e-07
2.18617e-06
-3.45735e-07
2.19557e-06
-3.29728e-07
2.16699e-06
-3.13176e-07
2.16502e-06
-2.96687e-07
2.15456e-06
-2.79967e-07
2.15519e-06
-2.63341e-07
2.15237e-06
-2.46654e-07
2.15528e-06
-2.30039e-07
2.15501e-06
-2.13437e-07
2.1587e-06
-1.96885e-07
2.15895e-06
-1.80366e-07
2.16225e-06
-1.63882e-07
2.16235e-06
-1.4743e-07
2.16476e-06
-1.31002e-07
2.16463e-06
-1.14594e-07
2.16615e-06
-9.8199e-08
2.16582e-06
-8.18186e-08
2.16673e-06
-6.5445e-08
2.16637e-06
-4.90783e-08
2.16683e-06
-3.27139e-08
2.16655e-06
-1.63521e-08
2.16674e-06
9.13433e-12
2.16663e-06
1.6371e-08
2.16662e-06
3.27331e-08
2.1667e-06
4.90992e-08
2.1665e-06
6.54672e-08
2.16676e-06
8.18429e-08
2.16629e-06
9.82252e-08
2.16664e-06
1.14622e-07
2.16573e-06
1.31031e-07
2.16609e-06
1.47461e-07
2.16455e-06
1.63914e-07
2.16469e-06
1.804e-07
2.16227e-06
1.96919e-07
2.16221e-06
2.1347e-07
2.1589e-06
2.3007e-07
2.1587e-06
2.155e-06
-3.94011e-07
2.18792e-06
-3.80404e-07
2.2381e-06
-3.65176e-07
2.17096e-06
-3.49303e-07
2.17973e-06
-3.33127e-07
2.15086e-06
-3.16397e-07
2.14835e-06
-2.99741e-07
2.13797e-06
-2.8285e-07
2.13837e-06
-2.66057e-07
2.13565e-06
-2.49201e-07
2.1385e-06
-2.32418e-07
2.1383e-06
-2.15647e-07
2.142e-06
-1.98926e-07
2.14229e-06
-1.82238e-07
2.14563e-06
-1.65584e-07
2.14576e-06
-1.48961e-07
2.1482e-06
-1.32364e-07
2.14809e-06
-1.15785e-07
2.14962e-06
-9.92198e-08
2.14931e-06
-8.2669e-08
2.15023e-06
-6.61252e-08
2.14987e-06
-4.95883e-08
2.15034e-06
-3.30537e-08
2.15007e-06
-1.65218e-08
2.15025e-06
9.52735e-12
2.15014e-06
1.65416e-08
2.15013e-06
3.30737e-08
2.15022e-06
4.96101e-08
2.15001e-06
6.61482e-08
2.15027e-06
8.26942e-08
2.1498e-06
9.92467e-08
2.15014e-06
1.15814e-07
2.14921e-06
1.32393e-07
2.14957e-06
1.48993e-07
2.14801e-06
1.65617e-07
2.14813e-06
1.82272e-07
2.14569e-06
1.9896e-07
2.14559e-06
2.15681e-07
2.14224e-06
2.3245e-07
2.14201e-06
2.49234e-07
2.13829e-06
2.66087e-07
2.13855e-06
2.82878e-07
2.13569e-06
2.99766e-07
2.13845e-06
3.16418e-07
2.13809e-06
3.33141e-07
2.14845e-06
3.49312e-07
2.15104e-06
3.65178e-07
2.17994e-06
3.80402e-07
2.17113e-06
3.93999e-07
2.23839e-06
2.18808e-06
-3.982e-07
2.17509e-06
-3.84357e-07
2.22425e-06
-3.68936e-07
2.15555e-06
-3.52867e-07
2.1637e-06
-3.3652e-07
2.13456e-06
-3.19613e-07
2.13151e-06
-3.0279e-07
2.12122e-06
-2.85729e-07
2.12138e-06
-2.68769e-07
2.11877e-06
-2.51745e-07
2.12155e-06
-2.34794e-07
2.12144e-06
-2.17855e-07
2.12514e-06
-2.00965e-07
2.12546e-06
-1.84107e-07
2.12884e-06
-1.67283e-07
2.129e-06
-1.50491e-07
2.13147e-06
-1.33724e-07
2.13139e-06
-1.16975e-07
2.13293e-06
-1.00239e-07
2.13262e-06
-8.35187e-08
2.13357e-06
-6.68048e-08
2.13321e-06
-5.00979e-08
2.13368e-06
-3.33932e-08
2.13341e-06
-1.66914e-08
2.1336e-06
9.95946e-12
2.13349e-06
1.6712e-08
2.13348e-06
3.34141e-08
2.13356e-06
5.01205e-08
2.13336e-06
6.68285e-08
2.13361e-06
8.35448e-08
2.13313e-06
1.00267e-07
2.13347e-06
1.17005e-07
2.13253e-06
1.33754e-07
2.13288e-06
1.50524e-07
2.1313e-06
1.67317e-07
2.1314e-06
1.84142e-07
2.12893e-06
2.00999e-07
2.12881e-06
2.17889e-07
2.1254e-06
2.34826e-07
2.12515e-06
2.51779e-07
2.12143e-06
2.68799e-07
2.12161e-06
2.85757e-07
2.11881e-06
3.02815e-07
2.12147e-06
3.19634e-07
2.12134e-06
3.36536e-07
2.13157e-06
3.52876e-07
2.13475e-06
3.68939e-07
2.1639e-06
3.84354e-07
2.15572e-06
3.98188e-07
2.22452e-06
2.17524e-06
-4.02387e-07
2.16206e-06
-3.88306e-07
2.21015e-06
-3.72693e-07
2.13996e-06
-3.56426e-07
2.14748e-06
-3.3991e-07
2.1181e-06
-3.22824e-07
2.11449e-06
-3.05835e-07
2.10431e-06
-2.88604e-07
2.10423e-06
-2.71479e-07
2.10172e-06
-2.54288e-07
2.10444e-06
-2.37168e-07
2.10441e-06
-2.2006e-07
2.10811e-06
-2.03001e-07
2.10847e-06
-1.85975e-07
2.11189e-06
-1.68982e-07
2.11208e-06
-1.5202e-07
2.11458e-06
-1.35083e-07
2.11451e-06
-1.18164e-07
2.11607e-06
-1.01259e-07
2.11578e-06
-8.43679e-08
2.11673e-06
-6.7484e-08
2.11638e-06
-5.06071e-08
2.11686e-06
-3.37326e-08
2.11659e-06
-1.68609e-08
2.11678e-06
1.03925e-11
2.11667e-06
1.68823e-08
2.11666e-06
3.37543e-08
2.11674e-06
5.06306e-08
2.11653e-06
6.75086e-08
2.11679e-06
8.43948e-08
2.1163e-06
1.01287e-07
2.11663e-06
1.18195e-07
2.11568e-06
1.35113e-07
2.11602e-06
1.52053e-07
2.11442e-06
1.69016e-07
2.1145e-06
1.86011e-07
2.11201e-06
2.03037e-07
2.11186e-06
2.20095e-07
2.1084e-06
2.37201e-07
2.10813e-06
2.54322e-07
2.1044e-06
2.7151e-07
2.10451e-06
2.88633e-07
2.10177e-06
3.05861e-07
2.10432e-06
3.22846e-07
2.10443e-06
3.39926e-07
2.1145e-06
3.56435e-07
2.1183e-06
3.72696e-07
2.14768e-06
3.88304e-07
2.14013e-06
4.02375e-07
2.21042e-06
2.1622e-06
-4.06574e-07
2.14882e-06
-3.92254e-07
2.19582e-06
-3.76448e-07
2.12418e-06
-3.59983e-07
2.13106e-06
-3.43297e-07
2.10148e-06
-3.26032e-07
2.0973e-06
-3.08878e-07
2.08723e-06
-2.91477e-07
2.08691e-06
-2.74186e-07
2.08452e-06
-2.56827e-07
2.08716e-06
-2.3954e-07
2.08723e-06
-2.22264e-07
2.09092e-06
-2.05037e-07
2.09131e-06
-1.87841e-07
2.09477e-06
-1.70679e-07
2.095e-06
-1.53548e-07
2.09751e-06
-1.36442e-07
2.09747e-06
-1.19352e-07
2.09904e-06
-1.02277e-07
2.09876e-06
-8.52168e-08
2.09973e-06
-6.8163e-08
2.09938e-06
-5.11163e-08
2.09987e-06
-3.40718e-08
2.0996e-06
-1.70303e-08
2.09979e-06
1.08352e-11
2.09968e-06
1.70526e-08
2.09967e-06
3.40944e-08
2.09975e-06
5.11406e-08
2.09954e-06
6.81884e-08
2.09979e-06
8.52446e-08
2.0993e-06
1.02307e-07
2.09963e-06
1.19385e-07
2.09866e-06
1.36473e-07
2.09899e-06
1.53582e-07
2.09738e-06
1.70715e-07
2.09744e-06
1.87878e-07
2.09492e-06
2.05073e-07
2.09475e-06
2.223e-07
2.09123e-06
2.39573e-07
2.09094e-06
2.56862e-07
2.08722e-06
2.74217e-07
2.08724e-06
2.91506e-07
2.08457e-06
3.08903e-07
2.087e-06
3.26055e-07
2.08736e-06
3.43314e-07
2.09726e-06
3.59992e-07
2.10169e-06
3.7645e-07
2.13127e-06
3.92251e-07
2.12435e-06
4.06562e-07
2.1961e-06
2.14895e-06
-4.10772e-07
2.13535e-06
-3.9621e-07
2.18124e-06
-3.80207e-07
2.10819e-06
-3.63539e-07
2.11443e-06
-3.46686e-07
2.08471e-06
-3.29248e-07
2.07994e-06
-3.11927e-07
2.07e-06
-2.94356e-07
2.06942e-06
-2.76898e-07
2.06715e-06
-2.59371e-07
2.06973e-06
-2.41916e-07
2.06988e-06
-2.24472e-07
2.07357e-06
-2.07076e-07
2.074e-06
-1.89711e-07
2.07749e-06
-1.72379e-07
2.07774e-06
-1.55078e-07
2.08029e-06
-1.37802e-07
2.08026e-06
-1.20542e-07
2.08184e-06
-1.03297e-07
2.08158e-06
-8.60663e-08
2.08255e-06
-6.88425e-08
2.08221e-06
-5.16257e-08
2.08271e-06
-3.44112e-08
2.08244e-06
-1.71998e-08
2.08263e-06
1.12811e-11
2.08253e-06
1.7223e-08
2.08252e-06
3.44347e-08
2.0826e-06
5.1651e-08
2.08238e-06
6.88688e-08
2.08263e-06
8.6095e-08
2.08213e-06
1.03328e-07
2.08245e-06
1.20576e-07
2.08147e-06
1.37834e-07
2.0818e-06
1.55113e-07
2.08016e-06
1.72415e-07
2.08021e-06
1.89748e-07
2.07767e-06
2.07112e-07
2.07747e-06
2.24509e-07
2.07392e-06
2.4195e-07
2.0736e-06
2.59406e-07
2.06988e-06
2.76929e-07
2.0698e-06
2.94385e-07
2.0672e-06
3.11953e-07
2.06952e-06
3.29267e-07
2.07013e-06
3.467e-07
2.07995e-06
3.63549e-07
2.08492e-06
3.80211e-07
2.11464e-06
3.96208e-07
2.10836e-06
4.1076e-07
2.18153e-06
2.13549e-06
-4.14962e-07
2.12167e-06
-4.00158e-07
2.16643e-06
-3.8396e-07
2.092e-06
-3.67094e-07
2.0976e-06
-3.5007e-07
2.06778e-06
-3.32454e-07
2.06241e-06
-3.14967e-07
2.0526e-06
-2.97227e-07
2.05177e-06
-2.79603e-07
2.04962e-06
-2.61908e-07
2.05212e-06
-2.44287e-07
2.05238e-06
-2.26676e-07
2.05606e-06
-2.09115e-07
2.05654e-06
-1.91585e-07
2.06005e-06
-1.74084e-07
2.06032e-06
-1.56613e-07
2.06289e-06
-1.39167e-07
2.06287e-06
-1.21737e-07
2.06448e-06
-1.04321e-07
2.06422e-06
-8.69192e-08
2.06522e-06
-6.95247e-08
2.06488e-06
-5.21373e-08
2.06538e-06
-3.47521e-08
2.06511e-06
-1.737e-08
2.06531e-06
1.17344e-11
2.06521e-06
1.73941e-08
2.06519e-06
3.47764e-08
2.06528e-06
5.21634e-08
2.06505e-06
6.95519e-08
2.0653e-06
8.69487e-08
2.0648e-06
1.04352e-07
2.06511e-06
1.21771e-07
2.06412e-06
1.39199e-07
2.06443e-06
1.56648e-07
2.06279e-06
1.74121e-07
2.06281e-06
1.91624e-07
2.06025e-06
2.09152e-07
2.06003e-06
2.26714e-07
2.05646e-06
2.44322e-07
2.05609e-06
2.61945e-07
2.05238e-06
2.79635e-07
2.0522e-06
2.97257e-07
2.04967e-06
3.14993e-07
2.05187e-06
3.32474e-07
2.05275e-06
3.50085e-07
2.06248e-06
3.67104e-07
2.068e-06
3.83965e-07
2.09782e-06
4.00156e-07
2.09218e-06
4.14951e-07
2.16672e-06
2.12181e-06
-4.19155e-07
2.10777e-06
-4.04108e-07
2.15137e-06
-3.87716e-07
2.07563e-06
-3.70649e-07
2.08057e-06
-3.53455e-07
2.05071e-06
-3.3566e-07
2.0447e-06
-3.18008e-07
2.03505e-06
-3.00098e-07
2.03396e-06
-2.82309e-07
2.03192e-06
-2.64447e-07
2.03435e-06
-2.46659e-07
2.03472e-06
-2.28881e-07
2.03839e-06
-2.11152e-07
2.03892e-06
-1.93454e-07
2.04244e-06
-1.75784e-07
2.04274e-06
-1.58143e-07
2.04533e-06
-1.40527e-07
2.04532e-06
-1.22927e-07
2.04695e-06
-1.05341e-07
2.04671e-06
-8.77693e-08
2.04771e-06
-7.02047e-08
2.04738e-06
-5.26472e-08
2.04789e-06
-3.50918e-08
2.04763e-06
-1.75396e-08
2.04783e-06
1.21932e-11
2.04772e-06
1.75646e-08
2.04771e-06
3.51171e-08
2.04779e-06
5.26742e-08
2.04756e-06
7.02328e-08
2.04781e-06
8.77997e-08
2.0473e-06
1.05373e-07
2.0476e-06
1.22962e-07
2.0466e-06
1.40561e-07
2.0469e-06
1.58179e-07
2.04524e-06
1.75821e-07
2.04525e-06
1.93493e-07
2.04266e-06
2.1119e-07
2.04242e-06
2.2892e-07
2.03885e-06
2.46694e-07
2.03842e-06
2.64484e-07
2.03472e-06
2.82341e-07
2.03443e-06
3.00128e-07
2.03198e-06
3.18034e-07
2.03406e-06
3.35681e-07
2.0352e-06
3.53471e-07
2.04482e-06
3.70659e-07
2.05093e-06
3.87721e-07
2.08079e-06
4.04107e-07
2.07581e-06
4.19145e-07
2.15166e-06
2.10791e-06
-4.2337e-07
2.09364e-06
-4.08076e-07
2.13606e-06
-3.91487e-07
2.05906e-06
-3.74216e-07
2.06335e-06
-3.56848e-07
2.0335e-06
-3.38871e-07
2.02682e-06
-3.21051e-07
2.01733e-06
-3.02971e-07
2.01597e-06
-2.85017e-07
2.01407e-06
-2.66987e-07
2.01642e-06
-2.49032e-07
2.0169e-06
-2.31088e-07
2.02055e-06
-2.13191e-07
2.02114e-06
-1.95324e-07
2.02468e-06
-1.77485e-07
2.02499e-06
-1.59675e-07
2.02761e-06
-1.41889e-07
2.02759e-06
-1.24119e-07
2.02926e-06
-1.06362e-07
2.02902e-06
-8.86205e-08
2.03005e-06
-7.08855e-08
2.02972e-06
-5.31577e-08
2.03024e-06
-3.5432e-08
2.02997e-06
-1.77095e-08
2.03018e-06
1.26584e-11
2.03007e-06
1.77354e-08
2.03006e-06
3.54582e-08
2.03014e-06
5.31856e-08
2.0299e-06
7.09145e-08
2.03015e-06
8.86516e-08
2.02963e-06
1.06395e-07
2.02993e-06
1.24155e-07
2.02891e-06
1.41923e-07
2.02921e-06
1.59711e-07
2.02752e-06
1.77523e-07
2.02753e-06
1.95363e-07
2.02491e-06
2.13229e-07
2.02464e-06
2.31128e-07
2.0211e-06
2.49068e-07
2.02059e-06
2.67025e-07
2.0169e-06
2.85049e-07
2.01651e-06
3.03002e-07
2.01413e-06
3.21078e-07
2.01608e-06
3.38892e-07
2.01749e-06
3.56863e-07
2.02697e-06
3.74225e-07
2.03369e-06
3.91492e-07
2.06357e-06
4.08074e-07
2.05924e-06
4.23359e-07
2.13636e-06
2.09379e-06
-4.27596e-07
2.07928e-06
-4.12055e-07
2.12051e-06
-3.95269e-07
2.04229e-06
-3.77794e-07
2.04592e-06
-3.60254e-07
2.01617e-06
-3.42098e-07
2.00876e-06
-3.24112e-07
1.99946e-06
-3.05861e-07
1.99782e-06
-2.8774e-07
1.99605e-06
-2.69541e-07
1.99832e-06
-2.51417e-07
1.99891e-06
-2.33305e-07
2.00254e-06
-2.15238e-07
2.00319e-06
-1.972e-07
2.00673e-06
-1.79191e-07
2.00706e-06
-1.6121e-07
2.0097e-06
-1.43253e-07
2.00966e-06
-1.25312e-07
2.01139e-06
-1.07385e-07
2.01118e-06
-8.94729e-08
2.01222e-06
-7.15674e-08
2.0119e-06
-5.36689e-08
2.01242e-06
-3.57727e-08
2.01216e-06
-1.78796e-08
2.01237e-06
1.31301e-11
2.01226e-06
1.79064e-08
2.01225e-06
3.57998e-08
2.01233e-06
5.36978e-08
2.01208e-06
7.15973e-08
2.01234e-06
8.95049e-08
2.01181e-06
1.07419e-07
2.0121e-06
1.25349e-07
2.01106e-06
1.43288e-07
2.01134e-06
1.61247e-07
2.0096e-06
1.7923e-07
2.00962e-06
1.9724e-07
2.00698e-06
2.15277e-07
2.0067e-06
2.33344e-07
2.00315e-06
2.51453e-07
2.00258e-06
2.69579e-07
1.99891e-06
2.87772e-07
1.99841e-06
3.05892e-07
1.99611e-06
3.24138e-07
1.99793e-06
3.4212e-07
1.99961e-06
3.6027e-07
2.00894e-06
3.77804e-07
2.01628e-06
3.95274e-07
2.04614e-06
4.12054e-07
2.04248e-06
4.27585e-07
2.12082e-06
2.07945e-06
-4.31832e-07
2.0647e-06
-4.16043e-07
2.10471e-06
-3.9906e-07
2.02533e-06
-3.81379e-07
2.02829e-06
-3.63667e-07
1.99865e-06
-3.45331e-07
1.99053e-06
-3.27178e-07
1.98143e-06
-3.08757e-07
1.97951e-06
-2.90469e-07
1.97787e-06
-2.72101e-07
1.98006e-06
-2.5381e-07
1.98075e-06
-2.35529e-07
1.98437e-06
-2.17293e-07
1.98508e-06
-1.99086e-07
1.98862e-06
-1.80906e-07
1.98896e-06
-1.62755e-07
1.99163e-06
-1.44627e-07
1.99153e-06
-1.26514e-07
1.99336e-06
-1.08415e-07
1.99317e-06
-9.03313e-08
1.99424e-06
-7.2254e-08
1.99392e-06
-5.41838e-08
1.99445e-06
-3.61158e-08
1.99419e-06
-1.80509e-08
1.9944e-06
1.36089e-11
1.99429e-06
1.80787e-08
1.99428e-06
3.61438e-08
1.99436e-06
5.42136e-08
1.99411e-06
7.22849e-08
1.99436e-06
9.03642e-08
1.99382e-06
1.0845e-07
1.9941e-06
1.26552e-07
1.99306e-06
1.44662e-07
1.99331e-06
1.62792e-07
1.99147e-06
1.80946e-07
1.99154e-06
1.99127e-07
1.98888e-06
2.17333e-07
1.9886e-06
2.3557e-07
1.98504e-06
2.53847e-07
1.98442e-06
2.7214e-07
1.98074e-06
2.90502e-07
1.98015e-06
3.08789e-07
1.97793e-06
3.27205e-07
1.97962e-06
3.45353e-07
1.98158e-06
3.63683e-07
1.99072e-06
3.81389e-07
1.99868e-06
3.99065e-07
2.02851e-06
4.16042e-07
2.02553e-06
4.31822e-07
2.10502e-06
2.06488e-06
-4.36081e-07
2.04988e-06
-4.20042e-07
2.08866e-06
-4.0286e-07
2.00817e-06
-3.84972e-07
2.01044e-06
-3.67078e-07
1.98075e-06
-3.48554e-07
1.97211e-06
-3.30235e-07
1.96324e-06
-3.11645e-07
1.96103e-06
-2.93191e-07
1.95953e-06
-2.74661e-07
1.96165e-06
-2.56209e-07
1.96241e-06
-2.3776e-07
1.96604e-06
-2.19354e-07
1.96679e-06
-2.00978e-07
1.97035e-06
-1.82627e-07
1.9707e-06
-1.64305e-07
1.9734e-06
-1.46004e-07
1.97321e-06
-1.27719e-07
1.97517e-06
-1.09448e-07
1.97502e-06
-9.11922e-08
1.9761e-06
-7.29427e-08
1.97578e-06
-5.47002e-08
1.97632e-06
-3.64599e-08
1.97606e-06
-1.82227e-08
1.97627e-06
1.40946e-11
1.97617e-06
1.82514e-08
1.97615e-06
3.64888e-08
1.97623e-06
5.47309e-08
1.97598e-06
7.29745e-08
1.97623e-06
9.12259e-08
1.97569e-06
1.09484e-07
1.97596e-06
1.27758e-07
1.9749e-06
1.46041e-07
1.97511e-06
1.64342e-07
1.97308e-06
1.82667e-07
1.9733e-06
2.01019e-07
1.97062e-06
2.19395e-07
1.97032e-06
2.37801e-07
1.96675e-06
2.56246e-07
1.96609e-06
2.747e-07
1.96241e-06
2.93224e-07
1.96174e-06
3.11677e-07
1.95959e-06
3.30263e-07
1.96114e-06
3.48577e-07
1.96339e-06
3.67095e-07
1.97232e-06
3.84983e-07
1.98087e-06
4.02866e-07
2.01067e-06
4.20041e-07
2.00838e-06
4.36071e-07
2.08898e-06
2.05011e-06
-4.40321e-07
2.03483e-06
-4.24031e-07
2.07236e-06
-4.06651e-07
1.99082e-06
-3.88555e-07
1.99239e-06
-3.70489e-07
1.96264e-06
-3.51787e-07
1.95354e-06
-3.33302e-07
1.94491e-06
-3.14541e-07
1.94241e-06
-2.9592e-07
1.94104e-06
-2.77221e-07
1.94309e-06
-2.58602e-07
1.9439e-06
-2.39985e-07
1.94754e-06
-2.21411e-07
1.94834e-06
-2.02864e-07
1.95191e-06
-1.84344e-07
1.95228e-06
-1.65851e-07
1.955e-06
-1.47379e-07
1.95473e-06
-1.28921e-07
1.95684e-06
-1.10479e-07
1.95672e-06
-9.20512e-08
1.95781e-06
-7.36298e-08
1.9575e-06
-5.52154e-08
1.95804e-06
-3.68033e-08
1.95778e-06
-1.83942e-08
1.95799e-06
1.45863e-11
1.95789e-06
1.84238e-08
1.95787e-06
3.68331e-08
1.95795e-06
5.52471e-08
1.9577e-06
7.36627e-08
1.95795e-06
9.20857e-08
1.95741e-06
1.10516e-07
1.95768e-06
1.28961e-07
1.9566e-06
1.47416e-07
1.95674e-06
1.6589e-07
1.95433e-06
1.84385e-07
1.9549e-06
2.02907e-07
1.9522e-06
2.21452e-07
1.95189e-06
2.40027e-07
1.9483e-06
2.58639e-07
1.94759e-06
2.77261e-07
1.94389e-06
2.95953e-07
1.94319e-06
3.14573e-07
1.94112e-06
3.3333e-07
1.94253e-06
3.5181e-07
1.94507e-06
3.70506e-07
1.95376e-06
3.88567e-07
1.96286e-06
4.06658e-07
1.99262e-06
4.2403e-07
1.99103e-06
4.40312e-07
2.07268e-06
2.03513e-06
-4.44575e-07
2.01954e-06
-4.28032e-07
2.05581e-06
-4.10454e-07
1.97327e-06
-3.9215e-07
1.97413e-06
-3.73908e-07
1.9444e-06
-3.55027e-07
1.93479e-06
-3.36375e-07
1.92643e-06
-3.17445e-07
1.92363e-06
-2.98656e-07
1.9224e-06
-2.79789e-07
1.92438e-06
-2.61002e-07
1.92522e-06
-2.42217e-07
1.92888e-06
-2.23473e-07
1.92973e-06
-2.04758e-07
1.93331e-06
-1.86066e-07
1.93369e-06
-1.67403e-07
1.93643e-06
-1.4876e-07
1.93626e-06
-1.30132e-07
1.93843e-06
-1.11517e-07
1.93831e-06
-9.29163e-08
1.93939e-06
-7.43218e-08
1.93908e-06
-5.57343e-08
1.9396e-06
-3.7149e-08
1.93934e-06
-1.85668e-08
1.93956e-06
1.50855e-11
1.93945e-06
1.85974e-08
1.93944e-06
3.71798e-08
1.93952e-06
5.57669e-08
1.93929e-06
7.43556e-08
1.93954e-06
9.29516e-08
1.93898e-06
1.11555e-07
1.93928e-06
1.30173e-07
1.93818e-06
1.48797e-07
1.93821e-06
1.67445e-07
1.93613e-06
1.86108e-07
1.93634e-06
2.048e-07
1.93361e-06
2.23515e-07
1.93328e-06
2.42259e-07
1.92968e-06
2.6104e-07
1.92893e-06
2.79829e-07
1.92522e-06
2.9869e-07
1.92447e-06
3.17477e-07
1.92249e-06
3.36404e-07
1.92375e-06
3.55049e-07
1.92659e-06
3.73925e-07
1.93502e-06
3.92162e-07
1.94467e-06
4.10461e-07
1.97436e-06
4.28031e-07
1.9735e-06
4.44565e-07
2.05613e-06
2.01996e-06
-4.48865e-07
2.00401e-06
-4.32062e-07
2.03898e-06
-4.14275e-07
1.9555e-06
-3.95765e-07
1.95568e-06
-3.77352e-07
1.92601e-06
-3.58282e-07
1.91586e-06
-3.39459e-07
1.90778e-06
-3.20358e-07
1.90469e-06
-3.01402e-07
1.90361e-06
-2.82367e-07
1.90551e-06
-2.63411e-07
1.90639e-06
-2.44457e-07
1.91006e-06
-2.25544e-07
1.91095e-06
-2.06658e-07
1.91455e-06
-1.87795e-07
1.91494e-06
-1.68961e-07
1.9177e-06
-1.50144e-07
1.91764e-06
-1.31342e-07
1.91998e-06
-1.12555e-07
1.91977e-06
-9.37815e-08
1.9208e-06
-7.5014e-08
1.92049e-06
-5.62533e-08
1.92099e-06
-3.74949e-08
1.92073e-06
-1.87395e-08
1.92095e-06
1.55913e-11
1.92084e-06
1.8771e-08
1.92083e-06
3.75267e-08
1.92091e-06
5.62869e-08
1.9207e-06
7.50488e-08
1.92096e-06
9.38176e-08
1.92039e-06
1.12594e-07
1.92075e-06
1.31384e-07
1.91964e-06
1.50181e-07
1.91951e-06
1.69003e-07
1.91757e-06
1.87838e-07
1.91762e-06
2.06701e-07
1.91486e-06
2.25586e-07
1.91452e-06
2.445e-07
1.9109e-06
2.63449e-07
1.91011e-06
2.82407e-07
1.90638e-06
3.01436e-07
1.9056e-06
3.2039e-07
1.9037e-06
3.39487e-07
1.90481e-06
3.58306e-07
1.90793e-06
3.7737e-07
1.91608e-06
3.95777e-07
1.92629e-06
4.14282e-07
1.95591e-06
4.32061e-07
1.95575e-06
4.48854e-07
2.03931e-06
2.00459e-06
-4.53183e-07
1.98824e-06
-4.3612e-07
2.0219e-06
-4.18119e-07
1.93754e-06
-3.99388e-07
1.93702e-06
-3.80797e-07
1.90747e-06
-3.61546e-07
1.89674e-06
-3.42558e-07
1.88898e-06
-3.23288e-07
1.88562e-06
-3.04165e-07
1.88467e-06
-2.84961e-07
1.88652e-06
-2.65837e-07
1.8874e-06
-2.46714e-07
1.8911e-06
-2.2763e-07
1.89203e-06
-2.08572e-07
1.89563e-06
-1.89537e-07
1.89604e-06
-1.70529e-07
1.89882e-06
-1.51536e-07
1.89884e-06
-1.32561e-07
1.9017e-06
-1.136e-07
1.90105e-06
-9.46529e-08
1.90202e-06
-7.57113e-08
1.90171e-06
-5.67761e-08
1.90219e-06
-3.78433e-08
1.90193e-06
-1.89134e-08
1.90215e-06
1.61045e-11
1.90204e-06
1.8946e-08
1.90202e-06
3.78761e-08
1.90211e-06
5.68106e-08
1.90193e-06
7.57469e-08
1.90218e-06
9.469e-08
1.90161e-06
1.1364e-07
1.90204e-06
1.32604e-07
1.90091e-06
1.51577e-07
1.90065e-06
1.70573e-07
1.89877e-06
1.8958e-07
1.89874e-06
2.08616e-07
1.89596e-06
2.27673e-07
1.8956e-06
2.46757e-07
1.89197e-06
2.65876e-07
1.89114e-06
2.85002e-07
1.88739e-06
3.042e-07
1.8866e-06
3.23321e-07
1.88477e-06
3.42587e-07
1.88574e-06
3.61569e-07
1.88914e-06
3.80815e-07
1.89697e-06
3.994e-07
1.90774e-06
4.18127e-07
1.93725e-06
4.3612e-07
1.93782e-06
4.5317e-07
2.02223e-06
1.98898e-06
-4.57495e-07
1.97222e-06
-4.40173e-07
2.00456e-06
-4.21974e-07
1.9194e-06
-4.03041e-07
1.9182e-06
-3.84274e-07
1.88877e-06
-3.64841e-07
1.87745e-06
-3.45677e-07
1.87001e-06
-3.26226e-07
1.86638e-06
-3.06935e-07
1.8656e-06
-2.87561e-07
1.86736e-06
-2.68267e-07
1.86828e-06
-2.48974e-07
1.87199e-06
-2.29719e-07
1.87294e-06
-2.1049e-07
1.87654e-06
-1.91282e-07
1.87697e-06
-1.72101e-07
1.87976e-06
-1.52933e-07
1.87984e-06
-1.33792e-07
1.88212e-06
-1.14655e-07
1.88192e-06
-9.55317e-08
1.88297e-06
-7.64145e-08
1.88266e-06
-5.73034e-08
1.88316e-06
-3.81946e-08
1.88291e-06
-1.90888e-08
1.88313e-06
1.66243e-11
1.88302e-06
1.91224e-08
1.883e-06
3.82287e-08
1.88309e-06
5.73387e-08
1.88288e-06
7.64509e-08
1.88313e-06
9.55699e-08
1.88256e-06
1.14694e-07
1.88292e-06
1.33829e-07
1.88177e-06
1.52975e-07
1.88162e-06
1.72145e-07
1.87975e-06
1.91326e-07
1.87968e-06
2.10534e-07
1.87689e-06
2.29763e-07
1.87652e-06
2.49018e-07
1.87289e-06
2.68307e-07
1.87204e-06
2.87602e-07
1.86827e-06
3.0697e-07
1.86743e-06
3.26259e-07
1.86568e-06
3.45706e-07
1.86651e-06
3.64865e-07
1.87017e-06
3.84293e-07
1.87768e-06
4.03053e-07
1.88903e-06
4.21982e-07
1.91843e-06
4.40173e-07
1.91972e-06
4.57495e-07
2.00488e-06
1.97284e-06
-4.61839e-07
1.95596e-06
-4.44253e-07
1.98696e-06
-4.25844e-07
1.90113e-06
-4.067e-07
1.89927e-06
-3.87753e-07
1.86989e-06
-3.68134e-07
1.85798e-06
-3.48802e-07
1.85087e-06
-3.2918e-07
1.84701e-06
-3.0972e-07
1.84639e-06
-2.90177e-07
1.84805e-06
-2.70713e-07
1.84903e-06
-2.51249e-07
1.85275e-06
-2.31821e-07
1.85371e-06
-2.12419e-07
1.8573e-06
-1.93037e-07
1.85775e-06
-1.73681e-07
1.86056e-06
-1.54336e-07
1.86066e-06
-1.35021e-07
1.86269e-06
-1.15708e-07
1.86257e-06
-9.641e-08
1.86369e-06
-7.71174e-08
1.86339e-06
-5.78303e-08
1.86393e-06
-3.85458e-08
1.86367e-06
-1.92641e-08
1.8639e-06
1.71477e-11
1.86379e-06
1.92988e-08
1.86377e-06
3.8581e-08
1.86385e-06
5.78666e-08
1.86361e-06
7.71545e-08
1.86386e-06
9.64492e-08
1.86329e-06
1.15748e-07
1.86359e-06
1.35058e-07
1.86243e-06
1.5438e-07
1.86242e-06
1.73726e-07
1.86056e-06
1.93082e-07
1.86048e-06
2.12464e-07
1.85767e-06
2.31865e-07
1.85729e-06
2.51293e-07
1.85368e-06
2.70754e-07
1.85282e-06
2.90219e-07
1.84903e-06
3.09756e-07
1.84811e-06
3.29214e-07
1.84645e-06
3.48832e-07
1.84714e-06
3.68159e-07
1.85102e-06
3.87772e-07
1.85821e-06
4.06712e-07
1.87014e-06
4.25852e-07
1.89949e-06
4.44253e-07
1.90146e-06
4.61837e-07
1.98727e-06
1.95643e-06
-4.66201e-07
1.93945e-06
-4.4835e-07
1.96909e-06
-4.29735e-07
1.88281e-06
-4.10381e-07
1.88033e-06
-3.91251e-07
1.85082e-06
-3.71445e-07
1.83831e-06
-3.51944e-07
1.83154e-06
-3.32149e-07
1.82746e-06
-3.12519e-07
1.82701e-06
-2.92806e-07
1.82856e-06
-2.7317e-07
1.82964e-06
-2.53534e-07
1.83336e-06
-2.33934e-07
1.83431e-06
-2.14358e-07
1.83788e-06
-1.94801e-07
1.83835e-06
-1.7527e-07
1.84117e-06
-1.55749e-07
1.84129e-06
-1.36257e-07
1.84321e-06
-1.16768e-07
1.84309e-06
-9.72937e-08
1.84424e-06
-7.78244e-08
1.84394e-06
-5.83605e-08
1.84451e-06
-3.88991e-08
1.84425e-06
-1.94406e-08
1.84448e-06
1.76752e-11
1.84437e-06
1.94762e-08
1.84435e-06
3.89354e-08
1.84443e-06
5.83977e-08
1.84417e-06
7.78625e-08
1.84442e-06
9.73337e-08
1.84383e-06
1.16809e-07
1.84411e-06
1.36296e-07
1.84295e-06
1.55795e-07
1.84305e-06
1.75316e-07
1.84118e-06
1.94847e-07
1.8411e-06
2.14404e-07
1.83827e-06
2.33979e-07
1.83788e-06
2.53579e-07
1.83431e-06
2.73211e-07
1.83349e-06
2.92848e-07
1.82963e-06
3.12556e-07
1.82861e-06
3.32183e-07
1.82706e-06
3.51975e-07
1.8276e-06
3.71471e-07
1.8317e-06
3.9127e-07
1.83854e-06
4.10392e-07
1.85107e-06
4.29743e-07
1.88055e-06
4.4835e-07
1.88305e-06
4.66198e-07
1.96939e-06
1.93982e-06
-4.70593e-07
1.9227e-06
-4.52479e-07
1.95098e-06
-4.33662e-07
1.86469e-06
-4.14096e-07
1.86045e-06
-3.94783e-07
1.83164e-06
-3.74795e-07
1.81847e-06
-3.55122e-07
1.81203e-06
-3.35151e-07
1.80772e-06
-3.1535e-07
1.80744e-06
-2.95463e-07
1.80889e-06
-2.75653e-07
1.81007e-06
-2.55843e-07
1.81378e-06
-2.36068e-07
1.81472e-06
-2.16317e-07
1.81829e-06
-1.96583e-07
1.81878e-06
-1.76875e-07
1.82162e-06
-1.57175e-07
1.82174e-06
-1.37505e-07
1.82362e-06
-1.17838e-07
1.82348e-06
-9.81851e-08
1.82464e-06
-7.85375e-08
1.82434e-06
-5.88952e-08
1.82492e-06
-3.92554e-08
1.82467e-06
-1.96184e-08
1.82489e-06
1.82056e-11
1.82479e-06
1.96551e-08
1.82477e-06
3.92927e-08
1.82485e-06
5.89334e-08
1.82457e-06
7.85767e-08
1.82482e-06
9.8226e-08
1.82423e-06
1.17879e-07
1.82451e-06
1.37545e-07
1.82334e-06
1.57222e-07
1.82351e-06
1.76921e-07
1.82163e-06
1.96629e-07
1.82155e-06
2.16363e-07
1.8187e-06
2.36114e-07
1.81829e-06
2.55888e-07
1.81474e-06
2.75694e-07
1.814e-06
2.95505e-07
1.81006e-06
3.15387e-07
1.80894e-06
3.35186e-07
1.80748e-06
3.55153e-07
1.80786e-06
3.7482e-07
1.81219e-06
3.94803e-07
1.8187e-06
4.14107e-07
1.83188e-06
4.3367e-07
1.86067e-06
4.52479e-07
1.86443e-06
4.70589e-07
1.95126e-06
1.923e-06
-4.75044e-07
1.90569e-06
-4.56654e-07
1.93259e-06
-4.37621e-07
1.84501e-06
-4.17839e-07
1.8406e-06
-3.98355e-07
1.81231e-06
-3.78178e-07
1.79843e-06
-3.58331e-07
1.79233e-06
-3.38183e-07
1.78774e-06
-3.18209e-07
1.78764e-06
-2.98147e-07
1.78901e-06
-2.78162e-07
1.79023e-06
-2.58178e-07
1.79392e-06
-2.38227e-07
1.7949e-06
-2.18299e-07
1.79851e-06
-1.98386e-07
1.79902e-06
-1.78499e-07
1.80188e-06
-1.5862e-07
1.802e-06
-1.38769e-07
1.80388e-06
-1.18922e-07
1.80371e-06
-9.90881e-08
1.80488e-06
-7.926e-08
1.80459e-06
-5.94369e-08
1.80517e-06
-3.96164e-08
1.80492e-06
-1.97987e-08
1.80514e-06
1.87395e-11
1.80504e-06
1.98364e-08
1.80502e-06
3.96547e-08
1.8051e-06
5.94761e-08
1.80482e-06
7.93001e-08
1.80507e-06
9.91299e-08
1.80448e-06
1.18964e-07
1.80475e-06
1.3881e-07
1.80358e-06
1.58667e-07
1.80379e-06
1.78546e-07
1.80189e-06
1.98433e-07
1.80181e-06
2.18346e-07
1.79893e-06
2.38273e-07
1.79852e-06
2.58223e-07
1.7949e-06
2.78203e-07
1.79405e-06
2.9819e-07
1.79022e-06
3.18246e-07
1.78908e-06
3.38218e-07
1.78769e-06
3.58362e-07
1.78789e-06
3.78204e-07
1.7925e-06
3.98375e-07
1.79867e-06
4.17851e-07
1.81255e-06
4.3763e-07
1.84083e-06
4.56659e-07
1.84527e-06
4.7504e-07
1.93287e-06
1.90597e-06
-4.795e-07
1.88843e-06
-4.60837e-07
1.91392e-06
-4.41597e-07
1.82549e-06
-4.216e-07
1.82062e-06
-4.01929e-07
1.79278e-06
-3.81561e-07
1.77819e-06
-3.6154e-07
1.77243e-06
-3.41216e-07
1.76756e-06
-3.21069e-07
1.76763e-06
-3.00833e-07
1.76893e-06
-2.80673e-07
1.77019e-06
-2.60514e-07
1.77385e-06
-2.40387e-07
1.77489e-06
-2.20281e-07
1.77854e-06
-2.0019e-07
1.77906e-06
-1.80124e-07
1.78195e-06
-1.60065e-07
1.78208e-06
-1.40034e-07
1.78395e-06
-1.20006e-07
1.78379e-06
-9.99921e-08
1.78496e-06
-7.99833e-08
1.78466e-06
-5.99793e-08
1.78525e-06
-3.99778e-08
1.785e-06
-1.99792e-08
1.78522e-06
1.92747e-11
1.78512e-06
2.00178e-08
1.7851e-06
4.00172e-08
1.78518e-06
6.00194e-08
1.7849e-06
8.00245e-08
1.78514e-06
1.00035e-07
1.78455e-06
1.20049e-07
1.78484e-06
1.40076e-07
1.78365e-06
1.60113e-07
1.78388e-06
1.80172e-07
1.78196e-06
2.00238e-07
1.78188e-06
2.20329e-07
1.77897e-06
2.40434e-07
1.77854e-06
2.6056e-07
1.77485e-06
2.80714e-07
1.7739e-06
3.00876e-07
1.77018e-06
3.21107e-07
1.76902e-06
3.41252e-07
1.7677e-06
3.61572e-07
1.76771e-06
3.81588e-07
1.77262e-06
4.01949e-07
1.77844e-06
4.21612e-07
1.79303e-06
4.41606e-07
1.82086e-06
4.60843e-07
1.82588e-06
4.79497e-07
1.9142e-06
1.88869e-06
-4.83994e-07
1.8709e-06
-4.65058e-07
1.89499e-06
-4.45607e-07
1.80593e-06
-4.25391e-07
1.80047e-06
-4.05533e-07
1.77307e-06
-3.84973e-07
1.75776e-06
-3.64777e-07
1.75236e-06
-3.44274e-07
1.74718e-06
-3.23953e-07
1.74744e-06
-3.03542e-07
1.74867e-06
-2.83206e-07
1.75e-06
-2.6287e-07
1.75359e-06
-2.42565e-07
1.75469e-06
-2.22281e-07
1.75839e-06
-2.0201e-07
1.75891e-06
-1.81763e-07
1.76184e-06
-1.61523e-07
1.76196e-06
-1.4131e-07
1.76385e-06
-1.211e-07
1.76369e-06
-1.00904e-07
1.76486e-06
-8.07129e-08
1.76457e-06
-6.05264e-08
1.76515e-06
-4.03425e-08
1.7649e-06
-2.01612e-08
1.76513e-06
1.98125e-11
1.76502e-06
2.02009e-08
1.765e-06
4.03828e-08
1.76508e-06
6.05676e-08
1.7648e-06
8.07552e-08
1.76505e-06
1.00948e-07
1.76445e-06
1.21144e-07
1.76474e-06
1.41353e-07
1.76355e-06
1.61572e-07
1.76379e-06
1.81812e-07
1.76185e-06
2.02058e-07
1.76176e-06
2.22329e-07
1.75882e-06
2.42613e-07
1.75839e-06
2.62916e-07
1.75463e-06
2.83247e-07
1.75363e-06
3.03585e-07
1.74998e-06
3.23992e-07
1.74877e-06
3.44311e-07
1.74753e-06
3.64809e-07
1.74735e-06
3.85e-07
1.75256e-06
4.05553e-07
1.75802e-06
4.25404e-07
1.77331e-06
4.45617e-07
1.80071e-06
4.65064e-07
1.80632e-06
4.83992e-07
1.89526e-06
1.87117e-06
-4.88529e-07
1.8531e-06
-4.69318e-07
1.87578e-06
-4.49654e-07
1.78623e-06
-4.29219e-07
1.78012e-06
-4.09176e-07
1.75317e-06
-3.88427e-07
1.73715e-06
-3.68053e-07
1.73211e-06
-3.47369e-07
1.72662e-06
-3.26869e-07
1.72707e-06
-3.06279e-07
1.72823e-06
-2.85764e-07
1.72963e-06
-2.65248e-07
1.73318e-06
-2.44764e-07
1.73431e-06
-2.243e-07
1.73806e-06
-2.03847e-07
1.73858e-06
-1.83418e-07
1.74154e-06
-1.62995e-07
1.74166e-06
-1.42598e-07
1.74356e-06
-1.22205e-07
1.74341e-06
-1.01825e-07
1.74459e-06
-8.14494e-08
1.7443e-06
-6.10787e-08
1.74488e-06
-4.07105e-08
1.74462e-06
-2.0345e-08
1.74485e-06
2.03529e-11
1.74475e-06
2.03857e-08
1.74473e-06
4.07519e-08
1.74481e-06