/*--------------------------------*- C++ -*----------------------------------*\
| =========                 |                                                 |
| \\      /  F ield         | OpenFOAM: The Open Source CFD Toolbox           |
|  \\    /   O peration     | Version:  dev                                   |
|   \\  /    A nd           | Web:      www.OpenFOAM.org                      |
|    \\/     M anipulation  |                                                 |
\*---------------------------------------------------------------------------*/
FoamFile
{
    version     2.0;
    format      ascii;
    class       volScalarField;
    location    "0.175";
    object      A2R5-;
}
// * * * * * * * * * * * * * * * * * * * * * * * * * * * * * * * * * * * * * //

dimensions      [0 0 0 0 0 0 0];

internalField   nonuniform List<scalar> 
250
(
3.88906e-09
3.92121e-09
3.87732e-09
3.96388e-09
3.85232e-09
4.14925e-09
4.11445e-09
5.69187e-09
6.83567e-09
1.20524e-08
3.53958e-09
3.57227e-09
3.52998e-09
3.61366e-09
3.50915e-09
3.78578e-09
3.74553e-09
5.18405e-09
6.21723e-09
1.07703e-08
3.56379e-09
5.83333e-09
4.14594e-09
3.55318e-09
3.29312e-09
3.24703e-09
3.23683e-09
3.22493e-09
3.23269e-09
3.22609e-09
3.20907e-09
3.24156e-09
3.20096e-09
3.28166e-09
3.18371e-09
3.44175e-09
3.39463e-09
4.70764e-09
5.60185e-09
9.61717e-09
3.5285e-09
5.1741e-09
3.71715e-09
3.21237e-09
2.97615e-09
2.935e-09
2.92488e-09
2.91181e-09
2.91874e-09
2.91115e-09
2.89587e-09
2.92748e-09
2.88876e-09
2.96629e-09
2.87455e-09
3.11455e-09
3.0604e-09
4.24931e-09
4.96264e-09
8.57797e-09
3.43314e-09
4.51619e-09
3.31228e-09
2.88697e-09
2.67396e-09
2.63762e-09
2.6276e-09
2.61391e-09
2.62044e-09
2.61201e-09
2.59835e-09
2.62853e-09
2.5919e-09
2.66602e-09
2.58019e-09
2.80295e-09
2.74151e-09
3.80923e-09
4.39274e-09
7.56922e-09
3.2774e-09
3.96252e-09
2.93014e-09
2.57551e-09
2.38548e-09
2.35352e-09
2.3435e-09
2.32985e-09
2.33624e-09
2.32718e-09
2.31501e-09
2.3433e-09
2.30898e-09
2.37947e-09
2.29925e-09
2.50587e-09
2.4368e-09
3.38708e-09
3.82013e-09
6.60333e-09
3.06449e-09
3.42951e-09
2.56898e-09
2.27699e-09
2.10972e-09
2.08167e-09
2.0714e-09
2.05853e-09
2.06494e-09
2.05551e-09
2.04467e-09
2.07066e-09
2.0389e-09
2.10546e-09
2.03066e-09
2.22284e-09
2.14537e-09
2.98322e-09
3.30995e-09
5.72496e-09
2.80354e-09
2.94598e-09
2.22745e-09
1.99081e-09
1.84637e-09
1.82163e-09
1.81062e-09
1.79954e-09
1.80601e-09
1.79654e-09
1.78685e-09
1.80992e-09
1.78124e-09
1.84296e-09
1.77397e-09
1.93282e-09
1.86676e-09
2.59839e-09
2.82411e-09
4.90246e-09
2.50629e-09
2.49832e-09
1.90259e-09
1.71743e-09
1.58621e-09
1.56586e-09
1.5613e-09
1.54352e-09
1.55023e-09
1.53978e-09
1.53203e-09
1.56106e-09
1.52698e-09
1.58648e-09
1.5217e-09
1.67245e-09
1.60195e-09
2.2341e-09
2.37925e-09
4.11178e-09
2.18636e-09
2.08694e-09
1.60064e-09
1.45819e-09
1.3469e-09
1.32962e-09
1.3248e-09
1.30904e-09
1.31568e-09
1.30562e-09
1.29887e-09
1.32513e-09
1.29402e-09
1.34798e-09
1.28935e-09
1.42461e-09
1.35218e-09
1.89295e-09
1.94124e-09
3.44295e-09
1.85805e-09
1.71267e-09
1.32183e-09
1.21513e-09
1.12216e-09
1.10785e-09
1.10315e-09
1.08932e-09
1.09575e-09
1.08629e-09
1.08046e-09
1.10398e-09
1.07587e-09
1.12448e-09
1.07171e-09
1.19129e-09
1.11954e-09
1.54867e-09
1.57147e-09
2.82336e-09
1.53544e-09
1.377e-09
1.06892e-09
9.9108e-10
9.14901e-10
9.03362e-10
8.99092e-10
8.8713e-10
8.93176e-10
8.84543e-10
8.7957e-10
9.00269e-10
8.75317e-10
9.18262e-10
8.71623e-10
9.75246e-10
9.0701e-10
1.25827e-09
1.24461e-09
2.26161e-09
1.23158e-09
1.08176e-09
8.44472e-10
7.89294e-10
7.28312e-10
7.19282e-10
7.1561e-10
7.05483e-10
7.10967e-10
7.03342e-10
6.99186e-10
7.16967e-10
6.95362e-10
7.3231e-10
6.92132e-10
7.79669e-10
7.17516e-10
9.98719e-10
9.62719e-10
1.76391e-09
5.41853e-10
5.56686e-10
5.38532e-10
5.69358e-10
5.35782e-10
6.07546e-10
5.53415e-10
7.72857e-10
7.26393e-10
1.33593e-09
)
;

boundaryField
{
    fuel
    {
        type            fixedValue;
        value           nonuniform 0();
    }
    wall
    {
        type            zeroGradient;
    }
    outlet
    {
        type            zeroGradient;
    }
    frontAndBack
    {
        type            empty;
    }
    procBoundary0to1
    {
        type            processor;
        value           nonuniform List<scalar> 
21
(
9.57373e-10
8.28496e-10
6.50511e-10
6.12671e-10
5.65154e-10
5.58315e-10
5.55293e-10
5.46951e-10
5.51738e-10
5.45236e-10
5.45236e-10
4.08945e-10
4.20926e-10
4.0617e-10
4.31065e-10
4.03906e-10
4.60837e-10
4.15772e-10
5.8222e-10
5.34228e-10
9.80845e-10
)
;
    }
    procBoundary0to2
    {
        type            processor;
        value           nonuniform List<scalar> 
12
(
3.90997e-09
3.54775e-09
6.474e-09
4.59984e-09
3.91077e-09
3.62641e-09
3.57525e-09
3.5651e-09
3.55485e-09
3.56402e-09
3.55849e-09
3.55849e-09
)
;
    }
    procBoundary0to3
    {
        type            processor;
        value           nonuniform List<scalar> 10(4.25907e-09 4.29003e-09 4.24454e-09 4.33398e-09 4.21473e-09 4.53118e-09 4.50264e-09 6.20807e-09 7.55491e-09 1.34674e-08);
    }
}


// ************************************************************************* //
