/*--------------------------------*- C++ -*----------------------------------*\
| =========                 |                                                 |
| \\      /  F ield         | OpenFOAM: The Open Source CFD Toolbox           |
|  \\    /   O peration     | Version:  dev                                   |
|   \\  /    A nd           | Web:      www.OpenFOAM.org                      |
|    \\/     M anipulation  |                                                 |
\*---------------------------------------------------------------------------*/
FoamFile
{
    version     2.0;
    format      ascii;
    class       volScalarField;
    location    "0.175";
    object      A3;
}
// * * * * * * * * * * * * * * * * * * * * * * * * * * * * * * * * * * * * * //

dimensions      [0 0 0 0 0 0 0];

internalField   nonuniform List<scalar> 
50
(
1.29113e-12
1.27728e-12
8.75149e-13
5.54659e-13
3.49385e-13
2.2303e-13
1.46544e-13
9.94876e-14
7.01102e-14
5.12811e-14
3.90145e-14
3.07752e-14
2.50788e-14
2.08958e-14
1.77061e-14
1.51716e-14
1.30837e-14
1.13159e-14
9.7907e-15
8.47254e-15
7.31593e-15
6.29833e-15
5.39889e-15
4.61937e-15
3.9371e-15
3.34785e-15
2.83412e-15
2.39264e-15
2.01869e-15
1.6974e-15
1.42421e-15
1.1954e-15
1.00142e-15
8.3746e-16
6.99864e-16
5.84621e-16
4.88265e-16
4.07816e-16
3.40728e-16
2.84837e-16
2.38311e-16
1.99604e-16
1.67413e-16
1.40646e-16
1.18386e-16
9.9862e-17
8.44267e-17
7.15343e-17
6.07224e-17
5.15968e-17
)
;

boundaryField
{
    wall
    {
        type            zeroGradient;
    }
    fuel
    {
        type            fixedValue;
        value           uniform 0;
    }
    outlet
    {
        type            inletOutlet;
        inletValue      nonuniform 0();
        value           nonuniform 0();
    }
    procBoundary0to1
    {
        type            processor;
        value           uniform 4.39666e-17;
    }
}


// ************************************************************************* //
