/*--------------------------------*- C++ -*----------------------------------*\
| =========                 |                                                 |
| \\      /  F ield         | OpenFOAM: The Open Source CFD Toolbox           |
|  \\    /   O peration     | Version:  dev                                   |
|   \\  /    A nd           | Web:      www.OpenFOAM.org                      |
|    \\/     M anipulation  |                                                 |
\*---------------------------------------------------------------------------*/
FoamFile
{
    version     2.0;
    format      ascii;
    class       volScalarField;
    location    "0.175";
    object      C2H5;
}
// * * * * * * * * * * * * * * * * * * * * * * * * * * * * * * * * * * * * * //

dimensions      [0 0 0 0 0 0 0];

internalField   nonuniform List<scalar> 
250
(
2.03317e-08
2.03588e-08
2.03725e-08
2.04233e-08
2.04486e-08
2.05062e-08
2.08302e-08
1.98576e-08
1.59706e-08
1.1169e-08
1.90387e-08
1.90723e-08
1.90717e-08
1.91342e-08
1.91634e-08
1.92187e-08
1.95763e-08
1.87566e-08
1.54929e-08
1.00652e-08
2.16467e-08
1.81684e-08
1.85109e-08
1.78808e-08
1.83057e-08
1.75998e-08
1.79805e-08
1.75928e-08
1.78038e-08
1.76118e-08
1.76846e-08
1.77229e-08
1.77117e-08
1.77837e-08
1.7816e-08
1.78695e-08
1.82579e-08
1.75785e-08
1.49421e-08
9.51044e-09
1.97121e-08
1.67775e-08
1.71309e-08
1.64704e-08
1.69079e-08
1.61791e-08
1.65718e-08
1.61687e-08
1.63947e-08
1.61938e-08
1.62693e-08
1.63104e-08
1.62922e-08
1.63714e-08
1.64062e-08
1.64578e-08
1.68722e-08
1.6319e-08
1.42344e-08
9.21958e-09
1.77568e-08
1.54032e-08
1.56925e-08
1.49998e-08
1.54515e-08
1.4702e-08
1.51049e-08
1.46896e-08
1.49292e-08
1.47211e-08
1.47988e-08
1.48402e-08
1.48184e-08
1.49026e-08
1.4939e-08
1.49887e-08
1.54217e-08
1.49811e-08
1.33482e-08
9.01509e-09
1.58014e-08
1.38951e-08
1.42035e-08
1.34827e-08
1.39485e-08
1.31827e-08
1.35911e-08
1.31692e-08
1.34204e-08
1.32079e-08
1.32867e-08
1.33259e-08
1.33037e-08
1.33905e-08
1.34275e-08
1.34755e-08
1.39165e-08
1.35767e-08
1.24374e-08
8.78596e-09
1.38723e-08
1.22625e-08
1.26815e-08
1.19406e-08
1.24216e-08
1.1645e-08
1.20511e-08
1.16305e-08
1.1891e-08
1.16782e-08
1.17566e-08
1.17905e-08
1.17714e-08
1.18573e-08
1.18945e-08
1.19412e-08
1.23761e-08
1.21276e-08
1.13715e-08
8.45996e-09
1.20064e-08
1.08178e-08
1.11556e-08
1.04053e-08
1.07799e-08
1.01231e-08
1.05162e-08
1.01072e-08
1.03741e-08
1.01665e-08
1.02428e-08
1.02672e-08
1.02558e-08
1.03347e-08
1.03734e-08
1.04201e-08
1.08309e-08
1.06682e-08
1.02465e-08
8.00426e-09
1.02351e-08
9.40298e-09
9.66472e-09
8.92387e-09
9.28343e-09
8.6623e-09
9.02953e-09
8.64451e-09
8.86335e-09
8.66509e-09
8.73501e-09
8.79984e-09
8.74379e-09
8.83243e-09
8.86145e-09
8.88932e-09
9.32306e-09
9.20662e-09
9.06328e-09
7.41779e-09
8.64131e-09
7.97052e-09
8.16824e-09
7.54875e-09
7.87853e-09
7.316e-09
7.64491e-09
7.29771e-09
7.50175e-09
7.32255e-09
7.38537e-09
7.44173e-09
7.39246e-09
7.46886e-09
7.49676e-09
7.52171e-09
7.90748e-09
7.73218e-09
7.87362e-09
6.73048e-09
7.18779e-09
6.74676e-09
6.88733e-09
6.33995e-09
6.6247e-09
6.14384e-09
6.4225e-09
6.12709e-09
6.30522e-09
6.1525e-09
6.2058e-09
6.25186e-09
6.21117e-09
6.27471e-09
6.29838e-09
6.31937e-09
6.64494e-09
6.5198e-09
6.74884e-09
5.9989e-09
6.0381e-09
5.71061e-09
5.80801e-09
5.36225e-09
5.58771e-09
5.2098e-09
5.42644e-09
5.1962e-09
5.33701e-09
5.21798e-09
5.2595e-09
5.29388e-09
5.26309e-09
5.31192e-09
5.33002e-09
5.34631e-09
5.60119e-09
5.51671e-09
5.76314e-09
5.30012e-09
5.15623e-09
4.93425e-09
5.00029e-09
4.68547e-09
4.83873e-09
4.5827e-09
4.72541e-09
4.57291e-09
4.66584e-09
4.58745e-09
4.61516e-09
4.6364e-09
4.61683e-09
4.64896e-09
4.66084e-09
4.6721e-09
4.84732e-09
4.79595e-09
4.99848e-09
4.72584e-09
4.35128e-09
4.35769e-09
4.35084e-09
4.3644e-09
4.36969e-09
4.37584e-09
4.46327e-09
4.4401e-09
4.54534e-09
4.37931e-09
)
;

boundaryField
{
    fuel
    {
        type            fixedValue;
        value           nonuniform 0();
    }
    wall
    {
        type            zeroGradient;
    }
    outlet
    {
        type            zeroGradient;
    }
    frontAndBack
    {
        type            empty;
    }
    procBoundary0to1
    {
        type            processor;
        value           nonuniform List<scalar> 
21
(
4.61342e-09
4.49471e-09
4.54497e-09
4.38803e-09
4.45811e-09
4.34104e-09
4.39736e-09
4.33516e-09
4.36999e-09
4.33941e-09
4.33941e-09
4.56812e-09
4.55774e-09
4.56523e-09
4.55861e-09
4.55705e-09
4.55813e-09
4.54897e-09
4.5506e-09
4.50993e-09
4.3773e-09
)
;
    }
    procBoundary0to2
    {
        type            processor;
        value           nonuniform List<scalar> 
12
(
2.02655e-08
2.34825e-08
1.9647e-08
1.98284e-08
1.92306e-08
1.96386e-08
1.89591e-08
1.9327e-08
1.89566e-08
1.91516e-08
1.89691e-08
1.89691e-08
)
;
    }
    procBoundary0to3
    {
        type            processor;
        value           nonuniform List<scalar> 10(2.15679e-08 2.15875e-08 2.16041e-08 2.16552e-08 2.16764e-08 2.17361e-08 2.20249e-08 2.10054e-08 1.63944e-08 1.34169e-08);
    }
}


// ************************************************************************* //
