/*--------------------------------*- C++ -*----------------------------------*\
| =========                 |                                                 |
| \\      /  F ield         | OpenFOAM: The Open Source CFD Toolbox           |
|  \\    /   O peration     | Version:  dev                                   |
|   \\  /    A nd           | Web:      www.OpenFOAM.org                      |
|    \\/     M anipulation  |                                                 |
\*---------------------------------------------------------------------------*/
FoamFile
{
    version     2.0;
    format      ascii;
    class       volScalarField;
    location    "0.175";
    object      H2O2;
}
// * * * * * * * * * * * * * * * * * * * * * * * * * * * * * * * * * * * * * //

dimensions      [0 0 0 0 0 0 0];

internalField   nonuniform List<scalar> 
250
(
4.73876e-11
4.77566e-11
4.73118e-11
4.81522e-11
4.70785e-11
4.91519e-11
4.60766e-11
4.65613e-11
3.25106e-11
6.94447e-11
4.3855e-11
4.42446e-11
4.37755e-11
4.46754e-11
4.35617e-11
4.57251e-11
4.26602e-11
4.35814e-11
3.09404e-11
7.10889e-11
9.00482e-11
2.94418e-11
3.78205e-11
4.11329e-11
4.06715e-11
4.06095e-11
4.05431e-11
4.03475e-11
4.0456e-11
4.03217e-11
4.01682e-11
4.05731e-11
4.00831e-11
4.10339e-11
3.98859e-11
4.21416e-11
3.90899e-11
4.05415e-11
2.91636e-11
7.1418e-11
5.86629e-11
2.75072e-11
3.47481e-11
3.74753e-11
3.68885e-11
3.68212e-11
3.6748e-11
3.65367e-11
3.66502e-11
3.65031e-11
3.63524e-11
3.67657e-11
3.6261e-11
3.725e-11
3.60782e-11
3.84072e-11
3.53898e-11
3.73537e-11
2.7051e-11
6.98856e-11
3.99873e-11
2.53985e-11
3.14936e-11
3.36883e-11
3.30024e-11
3.29307e-11
3.28507e-11
3.26318e-11
3.27507e-11
3.25938e-11
3.24468e-11
3.28596e-11
3.23499e-11
3.33601e-11
3.218e-11
3.45553e-11
3.15963e-11
3.40244e-11
2.49142e-11
6.60887e-11
2.88112e-11
2.33584e-11
2.80955e-11
2.98174e-11
2.9067e-11
2.89916e-11
2.8903e-11
2.86878e-11
2.8811e-11
2.86487e-11
2.85067e-11
2.89076e-11
2.84058e-11
2.94163e-11
2.82475e-11
3.06366e-11
2.77602e-11
3.05729e-11
2.24605e-11
6.01901e-11
2.19582e-11
2.106e-11
2.46093e-11
2.59258e-11
2.5152e-11
2.50735e-11
2.49714e-11
2.47751e-11
2.49003e-11
2.47379e-11
2.46022e-11
2.49774e-11
2.44997e-11
2.54854e-11
2.43516e-11
2.67215e-11
2.39465e-11
2.70389e-11
2.00184e-11
5.3107e-11
1.75147e-11
1.86507e-11
2.11065e-11
2.20915e-11
2.1341e-11
2.12588e-11
2.11358e-11
2.09766e-11
2.11005e-11
2.09443e-11
2.08164e-11
2.11486e-11
2.07148e-11
2.16409e-11
2.0575e-11
2.25524e-11
2.02308e-11
2.34826e-11
1.74553e-11
4.54457e-11
1.43566e-11
1.61269e-11
1.76433e-11
1.84038e-11
1.757e-11
1.75058e-11
1.74845e-11
1.72191e-11
1.73415e-11
1.71769e-11
1.70741e-11
1.75077e-11
1.69838e-11
1.78708e-11
1.68756e-11
1.8817e-11
1.67087e-11
1.99839e-11
1.4924e-11
3.76655e-11
1.18622e-11
1.35773e-11
1.4387e-11
1.496e-11
1.42035e-11
1.41424e-11
1.41117e-11
1.38861e-11
1.4e-11
1.38499e-11
1.376e-11
1.41429e-11
1.36774e-11
1.446e-11
1.35821e-11
1.53229e-11
1.34626e-11
1.66361e-11
1.2258e-11
3.1142e-11
9.72303e-12
1.11043e-11
1.14159e-11
1.18438e-11
1.11837e-11
1.11292e-11
1.10948e-11
1.09084e-11
1.10105e-11
1.08783e-11
1.0802e-11
1.11295e-11
1.07288e-11
1.1403e-11
1.06473e-11
1.21535e-11
1.05636e-11
1.31981e-11
9.92545e-12
2.53028e-11
7.81649e-12
8.80787e-12
8.80814e-12
9.12053e-12
8.56733e-12
8.52118e-12
8.48856e-12
8.33806e-12
8.42592e-12
8.31383e-12
8.25115e-12
8.5222e-12
8.18869e-12
8.74992e-12
8.12129e-12
9.37622e-12
8.06504e-12
1.03633e-11
7.82017e-12
2.02484e-11
6.11889e-12
6.77092e-12
6.60671e-12
6.82872e-12
6.38364e-12
6.3465e-12
6.31871e-12
6.20019e-12
6.2729e-12
6.18125e-12
6.13181e-12
6.34846e-12
6.08058e-12
6.53047e-12
6.02687e-12
7.03215e-12
5.99057e-12
7.90756e-12
5.99297e-12
1.59706e-11
4.43784e-12
4.60466e-12
4.39757e-12
4.74429e-12
4.3564e-12
5.13006e-12
4.3336e-12
5.8628e-12
4.46976e-12
1.24369e-11
)
;

boundaryField
{
    fuel
    {
        type            fixedValue;
        value           nonuniform 0();
    }
    wall
    {
        type            zeroGradient;
    }
    outlet
    {
        type            zeroGradient;
    }
    frontAndBack
    {
        type            empty;
    }
    procBoundary0to1
    {
        type            processor;
        value           nonuniform List<scalar> 
21
(
4.64923e-12
5.04578e-12
4.82048e-12
4.97441e-12
4.63098e-12
4.60246e-12
4.58034e-12
4.48975e-12
4.54749e-12
4.47542e-12
4.47542e-12
3.13515e-12
3.25918e-12
3.10468e-12
3.36254e-12
3.07435e-12
3.6474e-12
3.06081e-12
4.22786e-12
3.25669e-12
9.58413e-12
)
;
    }
    procBoundary0to2
    {
        type            processor;
        value           nonuniform List<scalar> 
12
(
4.75492e-11
1.44966e-10
3.13821e-11
4.06867e-11
4.46277e-11
4.43145e-11
4.42578e-11
4.4199e-11
4.40257e-11
4.41305e-11
4.40118e-11
4.40118e-11
)
;
    }
    procBoundary0to3
    {
        type            processor;
        value           nonuniform List<scalar> 10(5.07542e-11 5.10998e-11 5.06793e-11 5.14584e-11 5.04226e-11 5.23928e-11 4.93376e-11 4.93435e-11 3.40933e-11 6.40112e-11);
    }
}


// ************************************************************************* //
