/*--------------------------------*- C++ -*----------------------------------*\
| =========                 |                                                 |
| \\      /  F ield         | OpenFOAM: The Open Source CFD Toolbox           |
|  \\    /   O peration     | Version:  dev                                   |
|   \\  /    A nd           | Web:      www.OpenFOAM.org                      |
|    \\/     M anipulation  |                                                 |
\*---------------------------------------------------------------------------*/
FoamFile
{
    version     2.0;
    format      ascii;
    class       volScalarField;
    location    "0.175";
    object      HCCO;
}
// * * * * * * * * * * * * * * * * * * * * * * * * * * * * * * * * * * * * * //

dimensions      [0 0 0 0 0 0 0];

internalField   nonuniform List<scalar> 
250
(
6.28394e-07
6.33145e-07
6.27115e-07
6.38667e-07
6.23712e-07
6.55655e-07
6.21855e-07
6.72453e-07
5.14908e-07
5.84089e-07
5.80484e-07
5.8544e-07
5.79291e-07
5.91191e-07
5.76292e-07
6.07978e-07
5.74697e-07
6.24983e-07
4.82894e-07
5.29884e-07
3.37607e-07
4.56309e-07
5.34523e-07
5.53964e-07
5.40342e-07
5.37916e-07
5.36897e-07
5.34619e-07
5.35939e-07
5.3446e-07
5.32296e-07
5.37375e-07
5.31138e-07
5.43316e-07
5.28483e-07
5.60054e-07
5.27164e-07
5.78639e-07
4.49442e-07
4.82454e-07
3.11295e-07
4.29462e-07
4.91052e-07
5.06102e-07
4.92099e-07
4.89816e-07
4.88734e-07
4.86256e-07
4.87581e-07
4.85937e-07
4.83883e-07
4.88998e-07
4.82727e-07
4.95082e-07
4.80364e-07
5.11734e-07
4.79328e-07
5.31966e-07
4.12691e-07
4.40009e-07
2.90467e-07
3.98195e-07
4.46523e-07
4.57789e-07
4.43643e-07
4.41508e-07
4.40363e-07
4.37778e-07
4.39136e-07
4.37356e-07
4.35414e-07
4.40468e-07
4.34244e-07
4.46641e-07
4.32127e-07
4.63159e-07
4.31346e-07
4.8491e-07
3.77903e-07
3.98346e-07
2.72343e-07
3.67486e-07
4.01182e-07
4.09261e-07
3.95287e-07
3.93292e-07
3.92061e-07
3.89498e-07
3.90895e-07
3.89023e-07
3.87193e-07
3.92074e-07
3.86008e-07
3.9828e-07
3.84095e-07
4.14618e-07
3.83505e-07
4.37504e-07
3.40312e-07
3.5758e-07
2.54527e-07
3.33151e-07
3.55413e-07
3.6093e-07
3.47495e-07
3.45624e-07
3.44253e-07
3.41876e-07
3.43303e-07
3.41397e-07
3.39679e-07
3.44253e-07
3.38487e-07
3.50421e-07
3.36738e-07
3.66595e-07
3.36229e-07
3.89986e-07
3.04397e-07
3.19551e-07
2.35355e-07
2.97583e-07
3.0976e-07
3.13366e-07
3.00894e-07
2.99119e-07
2.97515e-07
2.9553e-07
2.96963e-07
2.95089e-07
2.93485e-07
2.97581e-07
2.92302e-07
3.03566e-07
2.9067e-07
3.15724e-07
2.90069e-07
3.42785e-07
2.67729e-07
2.82902e-07
2.13944e-07
2.6067e-07
2.64566e-07
2.67301e-07
2.54391e-07
2.52955e-07
2.52558e-07
2.49275e-07
2.50722e-07
2.48706e-07
2.47406e-07
2.52744e-07
2.46339e-07
2.57261e-07
2.45079e-07
2.6971e-07
2.45846e-07
2.9655e-07
2.31951e-07
2.46482e-07
1.90233e-07
2.23452e-07
2.21582e-07
2.23608e-07
2.12032e-07
2.1074e-07
2.10236e-07
2.07376e-07
2.08762e-07
2.06869e-07
2.0572e-07
2.10529e-07
2.04721e-07
2.14558e-07
2.03599e-07
2.25988e-07
2.043e-07
2.52108e-07
1.94383e-07
2.14545e-07
1.6484e-07
1.87087e-07
1.8154e-07
1.83097e-07
1.72982e-07
1.71859e-07
1.71317e-07
1.68875e-07
1.70162e-07
1.68437e-07
1.67441e-07
1.71675e-07
1.66528e-07
1.75243e-07
1.65546e-07
1.85362e-07
1.66155e-07
2.06064e-07
1.61068e-07
1.8371e-07
1.38823e-07
1.52723e-07
1.45307e-07
1.46497e-07
1.37902e-07
1.36959e-07
1.36442e-07
1.3439e-07
1.35547e-07
1.34022e-07
1.3318e-07
1.36816e-07
1.3237e-07
1.3989e-07
1.31532e-07
1.48565e-07
1.32048e-07
1.67067e-07
1.30333e-07
1.54334e-07
1.13414e-07
1.21367e-07
1.13462e-07
1.1435e-07
1.07264e-07
1.06499e-07
1.06045e-07
1.04354e-07
1.05361e-07
1.04051e-07
1.03362e-07
1.06399e-07
1.02666e-07
1.0896e-07
1.0197e-07
1.16157e-07
1.02398e-07
1.32134e-07
1.02807e-07
1.26767e-07
7.8165e-08
8.06234e-08
7.75891e-08
8.26839e-08
7.70305e-08
8.84515e-08
7.73701e-08
1.0176e-07
7.89091e-08
1.01502e-07
)
;

boundaryField
{
    fuel
    {
        type            fixedValue;
        value           nonuniform 0();
    }
    wall
    {
        type            zeroGradient;
    }
    outlet
    {
        type            zeroGradient;
    }
    frontAndBack
    {
        type            empty;
    }
    procBoundary0to1
    {
        type            processor;
        value           nonuniform List<scalar> 
21
(
8.97389e-08
9.37435e-08
8.62933e-08
8.69443e-08
8.12914e-08
8.06908e-08
8.0313e-08
7.89541e-08
7.97991e-08
7.87126e-08
7.87126e-08
5.75132e-08
5.94398e-08
5.70532e-08
6.10447e-08
5.66206e-08
6.5496e-08
5.68877e-08
7.61473e-08
5.88747e-08
7.89497e-08
)
;
    }
    procBoundary0to2
    {
        type            processor;
        value           nonuniform List<scalar> 
12
(
6.30833e-07
3.74333e-07
4.79108e-07
5.76798e-07
6.0121e-07
5.8821e-07
5.8564e-07
5.847e-07
5.82701e-07
5.84061e-07
5.82775e-07
5.82775e-07
)
;
    }
    procBoundary0to3
    {
        type            processor;
        value           nonuniform List<scalar> 10(6.76059e-07 6.80551e-07 6.7463e-07 6.8584e-07 6.70755e-07 7.02834e-07 6.68794e-07 7.18818e-07 5.516e-07 6.42323e-07);
    }
}


// ************************************************************************* //
