/*--------------------------------*- C++ -*----------------------------------*\
| =========                 |                                                 |
| \\      /  F ield         | OpenFOAM: The Open Source CFD Toolbox           |
|  \\    /   O peration     | Version:  dev                                   |
|   \\  /    A nd           | Web:      www.OpenFOAM.org                      |
|    \\/     M anipulation  |                                                 |
\*---------------------------------------------------------------------------*/
FoamFile
{
    version     2.0;
    format      ascii;
    class       volScalarField;
    location    "0.175";
    object      HCCOH;
}
// * * * * * * * * * * * * * * * * * * * * * * * * * * * * * * * * * * * * * //

dimensions      [0 0 0 0 0 0 0];

internalField   nonuniform List<scalar> 
250
(
6.29108e-06
6.29482e-06
6.29969e-06
6.31127e-06
6.31713e-06
6.34378e-06
6.49258e-06
6.54692e-06
6.43333e-06
4.10408e-06
6.01087e-06
6.01618e-06
6.01864e-06
6.03129e-06
6.03794e-06
6.0633e-06
6.20979e-06
6.27022e-06
6.23149e-06
4.31796e-06
6.82468e-06
6.36967e-06
6.19469e-06
5.84843e-06
5.88116e-06
5.71498e-06
5.79479e-06
5.71292e-06
5.75459e-06
5.71502e-06
5.73091e-06
5.73741e-06
5.73767e-06
5.7516e-06
5.75889e-06
5.78293e-06
5.92683e-06
5.9909e-06
6.02081e-06
4.47215e-06
6.41055e-06
6.0318e-06
5.88763e-06
5.55897e-06
5.59699e-06
5.43235e-06
5.51165e-06
5.42945e-06
5.47282e-06
5.43273e-06
5.44864e-06
5.45592e-06
5.45458e-06
5.46965e-06
5.47743e-06
5.50014e-06
5.64115e-06
5.7067e-06
5.77868e-06
4.56214e-06
6.00126e-06
5.7087e-06
5.57694e-06
5.26459e-06
5.30837e-06
5.14448e-06
5.22382e-06
5.14091e-06
5.18626e-06
5.14547e-06
5.16143e-06
5.16909e-06
5.16672e-06
5.18277e-06
5.19093e-06
5.21234e-06
5.3501e-06
5.41536e-06
5.50544e-06
4.5871e-06
5.59845e-06
5.36379e-06
5.26034e-06
4.96261e-06
5.01299e-06
4.84875e-06
4.92854e-06
4.8446e-06
4.89232e-06
4.85067e-06
4.86672e-06
4.87441e-06
4.87148e-06
4.88835e-06
4.8968e-06
4.91702e-06
5.051e-06
5.11486e-06
5.24285e-06
4.54929e-06
5.20149e-06
4.99497e-06
4.93552e-06
4.65057e-06
4.70911e-06
4.54276e-06
4.62328e-06
4.53803e-06
4.58863e-06
4.546e-06
4.56216e-06
4.56954e-06
4.5665e-06
4.58389e-06
4.59264e-06
4.61193e-06
4.74128e-06
4.80323e-06
4.951e-06
4.45096e-06
4.80903e-06
4.65641e-06
4.60058e-06
4.32629e-06
4.37391e-06
4.22454e-06
4.30587e-06
4.21921e-06
4.27343e-06
4.22977e-06
4.24607e-06
4.25255e-06
4.25009e-06
4.26723e-06
4.27669e-06
4.29545e-06
4.41876e-06
4.47919e-06
4.64676e-06
4.2958e-06
4.41783e-06
4.30685e-06
4.25414e-06
3.98891e-06
4.04312e-06
3.89293e-06
3.97494e-06
3.88692e-06
3.93631e-06
3.89115e-06
3.90725e-06
3.92209e-06
3.91054e-06
3.93114e-06
3.93914e-06
3.95402e-06
4.082e-06
4.13507e-06
4.32043e-06
4.08774e-06
4.03227e-06
3.92346e-06
3.87689e-06
3.63786e-06
3.69735e-06
3.5476e-06
3.63009e-06
3.54115e-06
3.59331e-06
3.54735e-06
3.56348e-06
3.57787e-06
3.56655e-06
3.5866e-06
3.59504e-06
3.60904e-06
3.73072e-06
3.7557e-06
3.97203e-06
3.83134e-06
3.63119e-06
3.54656e-06
3.50223e-06
3.27406e-06
3.33734e-06
3.1895e-06
3.27206e-06
3.18291e-06
3.23694e-06
3.19052e-06
3.20657e-06
3.22064e-06
3.20941e-06
3.22913e-06
3.23747e-06
3.25031e-06
3.36554e-06
3.38705e-06
3.60369e-06
3.53195e-06
3.24203e-06
3.15868e-06
3.11367e-06
2.9007e-06
2.96462e-06
2.82135e-06
2.90287e-06
2.81463e-06
2.86955e-06
2.82309e-06
2.83895e-06
2.85259e-06
2.84157e-06
2.86074e-06
2.86873e-06
2.88023e-06
2.98836e-06
3.00517e-06
3.21766e-06
3.19574e-06
2.83774e-06
2.76967e-06
2.70941e-06
2.52572e-06
2.58125e-06
2.44861e-06
2.5261e-06
2.44056e-06
2.49524e-06
2.44907e-06
2.4648e-06
2.47763e-06
2.46718e-06
2.48525e-06
2.49278e-06
2.50273e-06
2.60274e-06
2.61494e-06
2.81732e-06
2.82947e-06
2.09053e-06
2.10142e-06
2.09257e-06
2.10834e-06
2.11544e-06
2.12349e-06
2.21375e-06
2.22326e-06
2.40572e-06
2.43911e-06
)
;

boundaryField
{
    fuel
    {
        type            fixedValue;
        value           nonuniform 0();
    }
    wall
    {
        type            zeroGradient;
    }
    outlet
    {
        type            zeroGradient;
    }
    frontAndBack
    {
        type            empty;
    }
    procBoundary0to1
    {
        type            processor;
        value           nonuniform List<scalar> 
21
(
2.44003e-06
2.37173e-06
2.30774e-06
2.14602e-06
2.19703e-06
2.07453e-06
2.14798e-06
2.06656e-06
2.11955e-06
2.07502e-06
2.07502e-06
1.72379e-06
1.73325e-06
1.72555e-06
1.73925e-06
1.74563e-06
1.75199e-06
1.83172e-06
1.83775e-06
1.99996e-06
2.04483e-06
)
;
    }
    procBoundary0to2
    {
        type            processor;
        value           nonuniform List<scalar> 
12
(
6.27512e-06
7.24671e-06
6.73962e-06
6.50049e-06
6.13552e-06
6.16338e-06
5.99502e-06
6.07594e-06
5.99404e-06
6.03418e-06
5.99496e-06
5.99496e-06
)
;
    }
    procBoundary0to3
    {
        type            processor;
        value           nonuniform List<scalar> 10(6.57385e-06 6.57579e-06 6.58168e-06 6.59387e-06 6.59878e-06 6.62682e-06 6.77768e-06 6.85249e-06 6.62274e-06 3.82964e-06);
    }
}


// ************************************************************************* //
