/*--------------------------------*- C++ -*----------------------------------*\
| =========                 |                                                 |
| \\      /  F ield         | OpenFOAM: The Open Source CFD Toolbox           |
|  \\    /   O peration     | Version:  dev                                   |
|   \\  /    A nd           | Web:      www.OpenFOAM.org                      |
|    \\/     M anipulation  |                                                 |
\*---------------------------------------------------------------------------*/
FoamFile
{
    version     2.0;
    format      ascii;
    class       volScalarField;
    location    "0.175";
    object      l-C6H4;
}
// * * * * * * * * * * * * * * * * * * * * * * * * * * * * * * * * * * * * * //

dimensions      [0 0 0 0 0 0 0];

internalField   nonuniform List<scalar> 
250
(
3.25778e-08
3.25588e-08
3.26216e-08
3.2655e-08
3.26897e-08
3.30308e-08
3.49376e-08
4.11535e-08
7.27844e-08
8.52537e-08
3.15626e-08
3.15501e-08
3.16028e-08
3.1629e-08
3.16662e-08
3.1986e-08
3.37295e-08
3.92728e-08
6.62544e-08
7.8781e-08
1.6524e-07
6.46701e-08
3.94482e-08
3.26336e-08
3.15616e-08
3.07418e-08
3.09776e-08
3.07187e-08
3.08076e-08
3.06995e-08
3.07589e-08
3.07512e-08
3.07946e-08
3.08156e-08
3.08539e-08
3.11529e-08
3.27417e-08
3.76748e-08
6.0684e-08
7.33394e-08
1.58172e-07
6.13558e-08
3.8079e-08
3.18698e-08
3.08404e-08
3.01422e-08
3.03197e-08
3.01151e-08
3.01799e-08
3.00963e-08
3.01454e-08
3.01407e-08
3.01773e-08
3.01937e-08
3.0232e-08
3.0511e-08
3.19546e-08
3.63362e-08
5.55682e-08
6.84994e-08
1.48575e-07
5.82185e-08
3.68963e-08
3.12781e-08
3.02938e-08
2.97062e-08
2.98325e-08
2.96758e-08
2.97186e-08
2.9657e-08
2.96965e-08
2.96933e-08
2.97253e-08
2.97379e-08
2.97758e-08
3.00356e-08
3.13448e-08
3.52316e-08
5.10256e-08
6.40807e-08
1.37165e-07
5.49451e-08
3.58799e-08
3.08303e-08
2.98953e-08
2.94041e-08
2.94873e-08
2.93711e-08
2.9395e-08
2.93521e-08
2.9383e-08
2.93806e-08
2.94091e-08
2.94191e-08
2.94563e-08
2.96987e-08
3.0884e-08
3.43332e-08
4.76556e-08
6.0053e-08
1.24688e-07
5.15885e-08
3.50082e-08
3.04977e-08
2.96184e-08
2.92064e-08
2.92548e-08
2.91717e-08
2.91803e-08
2.91528e-08
2.91762e-08
2.91734e-08
2.91997e-08
2.92081e-08
2.92447e-08
2.94721e-08
3.05423e-08
3.3609e-08
4.47751e-08
5.64213e-08
1.11873e-07
4.87684e-08
3.42675e-08
3.02602e-08
2.94239e-08
2.90943e-08
2.9113e-08
2.90591e-08
2.90546e-08
2.9041e-08
2.90575e-08
2.90524e-08
2.90786e-08
2.90852e-08
2.9121e-08
2.93364e-08
3.02964e-08
3.3037e-08
4.24989e-08
5.32193e-08
9.93867e-08
4.61779e-08
3.36621e-08
3.01251e-08
2.93346e-08
2.90781e-08
2.90639e-08
2.90439e-08
2.90195e-08
2.90229e-08
2.90311e-08
2.90248e-08
2.90495e-08
2.90538e-08
2.90875e-08
2.929e-08
3.01469e-08
3.26052e-08
4.06779e-08
5.04833e-08
8.81795e-08
4.37856e-08
3.32037e-08
3.01538e-08
2.93816e-08
2.9226e-08
2.91605e-08
2.91944e-08
2.91392e-08
2.91707e-08
2.91671e-08
2.91526e-08
2.91826e-08
2.91786e-08
2.92088e-08
2.94001e-08
3.01415e-08
3.23497e-08
3.93031e-08
4.8272e-08
7.82481e-08
4.20745e-08
3.30833e-08
3.05032e-08
2.96973e-08
2.97057e-08
2.95461e-08
2.96787e-08
2.95614e-08
2.96456e-08
2.96218e-08
2.95927e-08
2.96337e-08
2.9612e-08
2.96353e-08
2.98147e-08
3.04151e-08
3.2467e-08
3.84538e-08
4.67054e-08
7.09284e-08
4.12179e-08
3.35305e-08
3.14848e-08
3.05556e-08
3.08453e-08
3.05117e-08
3.0826e-08
3.05892e-08
3.07713e-08
3.0712e-08
3.06562e-08
3.07189e-08
3.06631e-08
3.0674e-08
3.08411e-08
3.12465e-08
3.32158e-08
3.83495e-08
4.60286e-08
6.62513e-08
4.17431e-08
3.50284e-08
3.36691e-08
3.24659e-08
3.32431e-08
3.25933e-08
3.3235e-08
3.27778e-08
3.31375e-08
3.30159e-08
3.29122e-08
3.30155e-08
3.28979e-08
3.2888e-08
3.30424e-08
3.31538e-08
3.51388e-08
3.94433e-08
4.67144e-08
3.7605e-08
3.74143e-08
3.75927e-08
3.73653e-08
3.732e-08
3.74613e-08
3.70944e-08
3.92427e-08
4.26041e-08
4.96574e-08
)
;

boundaryField
{
    fuel
    {
        type            fixedValue;
        value           nonuniform 0();
    }
    wall
    {
        type            zeroGradient;
    }
    outlet
    {
        type            zeroGradient;
    }
    frontAndBack
    {
        type            empty;
    }
    procBoundary0to1
    {
        type            processor;
        value           nonuniform List<scalar> 
21
(
6.5149e-08
4.45744e-08
3.84612e-08
3.81154e-08
3.63693e-08
3.80109e-08
3.67812e-08
3.80176e-08
3.71548e-08
3.78377e-08
3.78377e-08
4.66203e-08
4.62643e-08
4.65867e-08
4.61566e-08
4.60492e-08
4.61751e-08
4.49586e-08
4.75195e-08
4.95481e-08
5.66137e-08
)
;
    }
    procBoundary0to2
    {
        type            processor;
        value           nonuniform List<scalar> 
12
(
3.24967e-08
1.69282e-07
6.83616e-08
4.10248e-08
3.35938e-08
3.24798e-08
3.15308e-08
3.18308e-08
3.15129e-08
3.16267e-08
3.14924e-08
3.14924e-08
)
;
    }
    procBoundary0to3
    {
        type            processor;
        value           nonuniform List<scalar> 10(3.38228e-08 3.37963e-08 3.38615e-08 3.3912e-08 3.39421e-08 3.43054e-08 3.6383e-08 4.35747e-08 8.0189e-08 9.35085e-08);
    }
}


// ************************************************************************* //
