/*--------------------------------*- C++ -*----------------------------------*\
| =========                 |                                                 |
| \\      /  F ield         | OpenFOAM: The Open Source CFD Toolbox           |
|  \\    /   O peration     | Version:  dev                                   |
|   \\  /    A nd           | Web:      www.OpenFOAM.org                      |
|    \\/     M anipulation  |                                                 |
\*---------------------------------------------------------------------------*/
FoamFile
{
    version     2.0;
    format      ascii;
    class       surfaceScalarField;
    location    "0.175";
    object      phi;
}
// * * * * * * * * * * * * * * * * * * * * * * * * * * * * * * * * * * * * * //

dimensions      [1 0 -1 0 0 0 0];

internalField   nonuniform List<scalar> 
466
(
1.71665e-07
6.17439e-06
3.20835e-07
6.13965e-06
4.69976e-07
6.123e-06
6.17209e-07
6.15597e-06
7.64351e-07
6.16957e-06
9.13512e-07
6.07525e-06
1.05234e-06
6.61002e-06
1.21152e-06
6.49522e-06
1.35766e-06
7.73622e-06
7.81761e-06
1.76227e-07
6.02155e-06
3.30397e-07
5.98535e-06
4.84596e-07
5.96887e-06
6.36835e-07
6.00367e-06
7.89367e-07
6.01704e-06
9.43099e-07
5.92128e-06
1.08924e-06
6.46278e-06
1.25657e-06
6.32507e-06
1.41376e-06
7.56779e-06
7.60976e-06
-1.58748e-06
5.96464e-06
-1.28812e-06
9.42236e-06
-1.13353e-06
5.90328e-06
-9.38225e-07
6.54706e-06
-7.81515e-07
6.18126e-06
-6.12934e-07
5.74556e-06
-4.59492e-07
6.12745e-06
-2.95196e-07
5.67086e-06
-1.39971e-07
6.00614e-06
2.25108e-08
5.74944e-06
1.80872e-07
5.86341e-06
3.40025e-07
5.82602e-06
4.99227e-07
5.8099e-06
6.56477e-07
5.84631e-06
8.14376e-07
5.8591e-06
9.72688e-07
5.7627e-06
1.12602e-06
6.30824e-06
1.30089e-06
6.14742e-06
1.469e-06
7.38783e-06
7.39781e-06
-1.63959e-06
5.9142e-06
-1.33242e-06
9.14683e-06
-1.17253e-06
5.74107e-06
-9.70936e-07
6.35064e-06
-8.07955e-07
6.01615e-06
-6.34581e-07
5.57367e-06
-4.74963e-07
5.96742e-06
-3.06115e-07
5.5022e-06
-1.45234e-07
5.84553e-06
2.19797e-08
5.58229e-06
1.85608e-07
5.70001e-06
3.49735e-07
5.66166e-06
5.13894e-07
5.64599e-06
6.76169e-07
5.68387e-06
8.39415e-07
5.69579e-06
1.00233e-06
5.59946e-06
1.16273e-06
6.14654e-06
1.3446e-06
5.96292e-06
1.52345e-06
7.19688e-06
7.18172e-06
-1.69007e-06
5.8522e-06
-1.37563e-06
8.86196e-06
-1.21081e-06
5.57255e-06
-1.00311e-06
6.14879e-06
-8.34109e-07
5.84464e-06
-6.55983e-07
5.39725e-06
-4.90252e-07
5.80112e-06
-3.16855e-07
5.32892e-06
-1.50349e-07
5.67931e-06
2.15715e-08
5.4104e-06
1.90439e-07
5.53138e-06
3.59548e-07
5.49227e-06
5.28626e-07
5.47715e-06
6.95951e-07
5.51629e-06
8.64526e-07
5.5271e-06
1.03207e-06
5.43156e-06
1.19944e-06
5.97776e-06
1.38788e-06
5.77208e-06
1.57726e-06
6.99544e-06
6.96145e-06
-1.73973e-06
5.77621e-06
-1.41826e-06
8.56619e-06
-1.24854e-06
5.39756e-06
-1.03492e-06
5.94176e-06
-8.60074e-07
5.66689e-06
-6.77212e-07
5.21632e-06
-5.05409e-07
5.62859e-06
-3.27461e-07
5.15102e-06
-1.55339e-07
5.5075e-06
2.12743e-08
5.23378e-06
1.95369e-07
5.35754e-06
3.69476e-07
5.31786e-06
5.43455e-07
5.30339e-06
7.15873e-07
5.34345e-06
8.89762e-07
5.35305e-06
1.06197e-06
5.25893e-06
1.23623e-06
5.80199e-06
1.43066e-06
5.57554e-06
1.63035e-06
6.78381e-06
6.73673e-06
-1.78917e-06
5.68469e-06
-1.46061e-06
8.26062e-06
-1.28594e-06
5.21588e-06
-1.06652e-06
5.72977e-06
-8.85951e-07
5.48299e-06
-6.9837e-07
5.03095e-06
-5.2051e-07
5.44989e-06
-3.37982e-07
4.96854e-06
-1.60233e-07
5.33009e-06
2.10741e-08
5.05241e-06
2.00402e-07
5.17848e-06
3.79539e-07
5.13837e-06
5.58421e-07
5.12471e-06
7.35995e-07
5.16509e-06
9.15189e-07
5.17364e-06
1.09211e-06
5.08152e-06
1.27322e-06
5.61925e-06
1.4733e-06
5.3737e-06
1.68304e-06
6.56247e-06
6.50741e-06
-1.8382e-06
5.5766e-06
-1.50228e-06
7.94811e-06
-1.32326e-06
5.02776e-06
-1.09833e-06
5.51321e-06
-9.12118e-07
5.29252e-06
-7.19569e-07
4.84093e-06
-5.35638e-07
5.26516e-06
-3.48481e-07
4.78158e-06
-1.65067e-07
5.14705e-06
2.09553e-08
4.86627e-06
2.05546e-07
4.99417e-06
3.89762e-07
4.95375e-06
5.73575e-07
4.94109e-06
7.56395e-07
4.9806e-06
9.40892e-07
4.98887e-06
1.12259e-06
4.89926e-06
1.31053e-06
5.42957e-06
1.51584e-06
5.16702e-06
1.73538e-06
6.33158e-06
6.27314e-06
-1.88756e-06
5.45327e-06
-1.54382e-06
7.62943e-06
-1.36079e-06
4.83288e-06
-1.13014e-06
5.29196e-06
-9.38289e-07
5.09584e-06
-7.40937e-07
4.64646e-06
-5.50889e-07
5.07447e-06
-3.59076e-07
4.59022e-06
-1.69921e-07
4.95839e-06
2.09072e-08
4.67529e-06
2.10829e-07
4.80463e-06
4.00239e-07
4.76387e-06
5.89097e-07
4.75255e-06
7.77316e-07
4.79306e-06
9.67238e-07
4.79871e-06
1.15371e-06
4.71211e-06
1.34847e-06
5.23296e-06
1.55871e-06
4.95623e-06
1.78767e-06
6.09158e-06
6.03363e-06
-1.93802e-06
5.3114e-06
-1.58598e-06
7.2988e-06
-1.39923e-06
4.63375e-06
-1.16235e-06
5.06565e-06
-9.6487e-07
4.89288e-06
-7.62623e-07
4.44749e-06
-5.66374e-07
4.87772e-06
-3.6978e-07
4.3943e-06
-1.7477e-07
4.76394e-06
2.09029e-08
4.47939e-06
2.16248e-07
4.60971e-06
4.10903e-07
4.56867e-06
6.04868e-07
4.55892e-06
7.98581e-07
4.59926e-06
9.93897e-07
4.60309e-06
1.18534e-06
4.5199e-06
1.38756e-06
5.02876e-06
1.60256e-06
4.74032e-06
1.84024e-06
5.84316e-06
5.78855e-06
-1.98954e-06
5.14683e-06
-1.62812e-06
6.96077e-06
-1.43835e-06
4.4286e-06
-1.19524e-06
4.83441e-06
-9.92085e-07
4.68354e-06
-7.84807e-07
4.24392e-06
-5.82223e-07
4.67461e-06
-3.80726e-07
4.19359e-06
-1.79699e-07
4.56355e-06
2.09306e-08
4.27845e-06
2.21837e-07
4.40927e-06
4.21874e-07
4.36799e-06
6.21085e-07
4.36006e-06
8.20463e-07
4.39939e-06
1.02127e-06
4.4019e-06
1.21783e-06
4.32247e-06
1.42717e-06
4.8173e-06
1.64681e-06
4.52019e-06
1.89345e-06
5.58608e-06
5.5375e-06
-2.04238e-06
4.9645e-06
-1.67153e-06
6.61588e-06
-1.47877e-06
4.21781e-06
-1.22914e-06
4.59809e-06
-1.0202e-06
4.46765e-06
-8.07707e-07
4.03558e-06
-5.98593e-07
4.46485e-06
-3.92035e-07
3.98779e-06
-1.84767e-07
4.35701e-06
2.0974e-08
4.07231e-06
2.27635e-07
4.20314e-06
4.33236e-07
4.16164e-06
6.37887e-07
4.1558e-06
8.4315e-07
4.19343e-06
1.04959e-06
4.19499e-06
1.25147e-06
4.11962e-06
1.46813e-06
4.59836e-06
1.69236e-06
4.29591e-06
1.94778e-06
5.32047e-06
5.28003e-06
-2.09772e-06
-1.71686e-06
-1.5209e-06
-1.26443e-06
-1.04956e-06
-8.3159e-07
-6.15678e-07
-4.03858e-07
-1.90047e-07
2.10181e-08
2.33693e-07
3.99106e-06
4.45095e-07
3.94937e-06
6.55453e-07
3.94588e-06
8.6688e-07
3.98116e-06
1.07915e-06
3.98215e-06
1.28663e-06
3.91107e-06
1.51088e-06
4.37168e-06
1.73973e-06
4.06746e-06
2.00383e-06
5.04637e-06
5.01566e-06
2.40085e-07
4.57595e-07
6.74014e-07
8.91957e-07
1.11033e-06
1.32378e-06
1.55597e-06
1.7896e-06
2.06237e-06
)
;

boundaryField
{
    fuel
    {
        type            calculated;
        value           nonuniform 0();
    }
    wall
    {
        type            calculated;
        value           nonuniform 0();
    }
    outlet
    {
        type            calculated;
        value           nonuniform List<scalar> 
25
(
1.70596e-06
1.76647e-06
1.8252e-06
1.88283e-06
1.94001e-06
1.99739e-06
2.05578e-06
2.11593e-06
2.17842e-06
2.24231e-06
2.30866e-06
1.50784e-06
1.57129e-06
1.63422e-06
1.69663e-06
1.75854e-06
1.82001e-06
1.88116e-06
1.94213e-06
2.00315e-06
2.06453e-06
2.12667e-06
2.19009e-06
2.25545e-06
2.3236e-06
)
;
    }
    frontAndBack
    {
        type            empty;
        value           nonuniform 0();
    }
    procBoundary0to1
    {
        type            processor;
        value           nonuniform List<scalar> 
21
(
4.75575e-06
6.26342e-06
4.00117e-06
4.35651e-06
4.24498e-06
3.82228e-06
4.2481e-06
3.77666e-06
4.14403e-06
3.86074e-06
-2.10492e-08
3.77273e-06
3.73084e-06
3.72997e-06
3.76225e-06
3.76309e-06
3.69645e-06
4.13691e-06
3.83471e-06
4.76369e-06
4.74383e-06
)
;
    }
    procBoundary0to2
    {
        type            processor;
        value           nonuniform List<scalar> 
12
(
-2.39691e-08
-6.0068e-06
-9.68502e-06
-6.05879e-06
-6.73778e-06
-6.33977e-06
-5.91283e-06
-6.28117e-06
-5.83492e-06
-6.16111e-06
-2.31727e-08
-5.91183e-06
)
;
    }
    procBoundary0to3
    {
        type            processor;
        value           nonuniform List<scalar> 10(-6.32188e-06 -6.28886e-06 -6.27281e-06 -6.30324e-06 -6.31668e-06 -6.22461e-06 -6.74987e-06 -6.65721e-06 -7.89278e-06 -8.02133e-06);
    }
}


// ************************************************************************* //
