/*--------------------------------*- C++ -*----------------------------------*\
| =========                 |                                                 |
| \\      /  F ield         | OpenFOAM: The Open Source CFD Toolbox           |
|  \\    /   O peration     | Version:  dev                                   |
|   \\  /    A nd           | Web:      www.OpenFOAM.org                      |
|    \\/     M anipulation  |                                                 |
\*---------------------------------------------------------------------------*/
FoamFile
{
    version     2.0;
    format      ascii;
    class       volScalarField;
    location    "0.175";
    object      T;
}
// * * * * * * * * * * * * * * * * * * * * * * * * * * * * * * * * * * * * * //

dimensions      [0 0 0 1 0 0 0];

internalField   nonuniform List<scalar> 
250
(
2008.54
2008.74
2008.71
2009.05
2009.15
2009.07
2008.82
1996.56
1948.33
1814.52
2001.1
2001.34
2001.26
2001.67
2001.81
2001.75
2001.97
1990.86
1948.68
1834.6
1929.46
1963.16
1987.8
1991.46
1995.85
1991.94
1994.33
1991.9
1993.29
1992.06
1992.5
1992.78
1992.65
1993.14
1993.32
1993.31
1994.02
1984.05
1947.71
1850.86
1919.95
1955.78
1979.33
1981.84
1986.47
1981.91
1984.64
1981.85
1983.49
1982.06
1982.57
1982.89
1982.72
1983.3
1983.51
1983.55
1984.79
1975.91
1945.05
1863.31
1910.34
1947.55
1969.49
1970.71
1975.64
1970.35
1973.46
1970.27
1972.18
1970.55
1971.13
1971.48
1971.27
1971.95
1972.2
1972.28
1974.07
1966.25
1940.29
1871.96
1900.38
1937.46
1958.08
1957.87
1963.14
1957.04
1960.56
1956.92
1959.16
1957.29
1957.96
1958.34
1958.1
1958.88
1959.17
1959.3
1961.66
1954.84
1933.86
1876.8
1889.73
1925.12
1944.83
1943.04
1948.74
1941.72
1945.7
1941.56
1944.19
1942.06
1942.82
1943.22
1942.96
1943.83
1944.17
1944.37
1947.3
1941.44
1924.87
1877.78
1877.99
1911.86
1929.48
1925.96
1931.27
1924.14
1928.61
1923.93
1927
1924.58
1925.45
1925.85
1925.59
1926.53
1926.94
1927.22
1930.71
1925.78
1913.48
1874.83
1864.68
1896.26
1911.69
1906.34
1912.09
1904
1909
1903.74
1906.86
1904.1
1905.05
1905.96
1905.19
1906.4
1906.78
1906.96
1911.59
1907.25
1899.16
1867.81
1849.44
1876.99
1890.28
1883.87
1890.07
1881
1886.56
1880.68
1884.28
1881.18
1882.25
1883.22
1882.39
1883.69
1884.14
1884.38
1889.63
1884.73
1881.58
1856.56
1831.07
1855.29
1866.45
1858.18
1864.87
1854.79
1860.96
1854.42
1858.53
1855.07
1856.25
1857.29
1856.4
1857.81
1858.31
1858.6
1864.48
1860.16
1860.43
1840.87
1810.14
1829.89
1839.03
1828.89
1836.09
1824.99
1831.81
1824.6
1829.21
1825.38
1826.68
1827.8
1826.84
1828.36
1828.9
1829.25
1835.75
1831.89
1835.33
1820.48
1785.14
1800.34
1807.57
1795.59
1803.32
1791.2
1798.72
1790.8
1795.94
1791.71
1793.13
1794.34
1793.31
1794.94
1795.52
1795.9
1803.01
1799.51
1805.86
1795.06
1755.17
1756.46
1755.35
1757.09
1757.7
1758.1
1765.8
1762.57
1771.55
1764.25
)
;

boundaryField
{
    fuel
    {
        type            fixedValue;
        value           nonuniform 0();
    }
    wall
    {
        type            fixedValue;
        value           nonuniform 0();
    }
    outlet
    {
        type            inletOutlet;
        inletValue      uniform 353;
        value           nonuniform List<scalar> 
25
(
1928.56
1919.04
1909.46
1899.57
1889.02
1877.38
1864.14
1849.01
1830.79
1809.94
1785.13
1815.16
1835.22
1851.45
1863.86
1872.47
1877.27
1878.2
1875.2
1868.13
1856.84
1841.11
1820.68
1795.23
1764.39
)
;
    }
    frontAndBack
    {
        type            empty;
    }
    procBoundary0to1
    {
        type            processor;
        value           nonuniform List<scalar> 
21
(
1755.81
1766.12
1771.59
1757.82
1766.1
1752.97
1761.22
1752.58
1758.24
1753.61
1753.61
1712.29
1713.68
1712.49
1714.32
1714.96
1715.38
1723.62
1720.56
1731.91
1727.62
)
;
    }
    procBoundary0to2
    {
        type            processor;
        value           nonuniform List<scalar> 
12
(
2008.22
1938.97
1970.13
1995.13
1999.77
2003.95
2000.62
2002.71
2000.61
2001.78
2000.72
2000.72
)
;
    }
    procBoundary0to3
    {
        type            processor;
        value           nonuniform List<scalar> 10(2015 2015.15 2015.14 2015.43 2015.51 2015.39 2014.72 2001.67 1946.9 1790.64);
    }
}


// ************************************************************************* //
