/*--------------------------------*- C++ -*----------------------------------*\
| =========                 |                                                 |
| \\      /  F ield         | OpenFOAM: The Open Source CFD Toolbox           |
|  \\    /   O peration     | Version:  dev                                   |
|   \\  /    A nd           | Web:      www.OpenFOAM.org                      |
|    \\/     M anipulation  |                                                 |
\*---------------------------------------------------------------------------*/
FoamFile
{
    version     2.0;
    format      ascii;
    class       volVectorField;
    location    "0.175";
    object      U;
}
// * * * * * * * * * * * * * * * * * * * * * * * * * * * * * * * * * * * * * //

dimensions      [0 1 -1 0 0 0 0];

internalField   nonuniform List<vector> 
12
(
(4.8046e-14 -4.8046e-14 0.018401)
(1.17363e-13 -1.17363e-13 0.027489)
(1.85259e-13 -1.85259e-13 0.0322718)
(2.51967e-13 -2.51967e-13 0.0343034)
(2.8079e-13 -2.8079e-13 0.0346086)
(3.09342e-13 -3.09342e-13 0.0337348)
(3.40048e-13 -3.40048e-13 0.0324424)
(3.70605e-13 -3.70605e-13 0.0313716)
(4.01468e-13 -4.01468e-13 0.03111)
(4.32619e-13 -4.32619e-13 0.0317367)
(4.62415e-13 -4.62415e-13 0.0333148)
(4.95136e-13 -4.95136e-13 0.0355623)
)
;

boundaryField
{
    wall
    {
        type            zeroGradient;
    }
    fuel
    {
        type            fixedValue;
        value           uniform (0 0 0.01055);
    }
    outlet
    {
        type            pressureInletOutletVelocity;
        value           nonuniform 0();
    }
    procBoundary0to1
    {
        type            processor;
        value           uniform (5.22326e-13 -5.22326e-13 0.038098);
    }
}


// ************************************************************************* //
