/*--------------------------------*- C++ -*----------------------------------*\
| =========                 |                                                 |
| \\      /  F ield         | OpenFOAM: The Open Source CFD Toolbox           |
|  \\    /   O peration     | Version:  dev                                   |
|   \\  /    A nd           | Web:      www.OpenFOAM.org                      |
|    \\/     M anipulation  |                                                 |
\*---------------------------------------------------------------------------*/
FoamFile
{
    version     2.0;
    format      ascii;
    class       volScalarField;
    location    "0.1";
    object      A2C2HA;
}
// * * * * * * * * * * * * * * * * * * * * * * * * * * * * * * * * * * * * * //

dimensions      [0 0 0 0 0 0 0];

internalField   nonuniform List<scalar> 
100
(
1.69897e-11
4.65082e-12
1.30365e-12
3.89396e-13
1.26689e-13
4.86119e-14
2.22628e-14
1.21917e-14
7.70377e-15
5.30211e-15
3.90919e-15
2.99769e-15
2.36884e-15
1.906e-15
1.54694e-15
1.25808e-15
1.02095e-15
8.24835e-16
6.62793e-16
5.29687e-16
4.21259e-16
3.33755e-16
2.63787e-16
2.08276e-16
1.64385e-16
1.30432e-16
1.04663e-16
8.46137e-17
6.91281e-17
5.72497e-17
4.82178e-17
4.16626e-17
3.68972e-17
3.36308e-17
3.16554e-17
3.08325e-17
3.10836e-17
3.23808e-17
3.47349e-17
3.81749e-17
4.28408e-17
4.88102e-17
5.615e-17
6.46592e-17
7.46995e-17
8.64545e-17
1.0012e-16
1.14841e-16
1.31185e-16
1.49489e-16
1.68923e-16
1.8977e-16
2.1207e-16
2.36407e-16
2.61743e-16
2.8662e-16
3.11996e-16
3.37493e-16
3.62748e-16
3.8738e-16
4.10979e-16
4.33115e-16
4.53344e-16
4.71223e-16
4.86309e-16
4.98173e-16
5.06415e-16
5.1068e-16
5.10679e-16
5.06196e-16
4.96946e-16
4.83134e-16
4.64755e-16
4.42006e-16
4.15179e-16
3.8408e-16
3.51142e-16
3.1606e-16
2.7882e-16
2.4257e-16
2.069e-16
1.73171e-16
1.41925e-16
1.13441e-16
8.82132e-17
6.77345e-17
5.09465e-17
3.76903e-17
2.75856e-17
2.0147e-17
1.48544e-17
1.12043e-17
8.74632e-18
7.10032e-18
5.95451e-18
5.0574e-18
4.22294e-18
3.33505e-18
2.33027e-18
1.16826e-18
)
;

boundaryField
{
    wall
    {
        type            zeroGradient;
    }
    fuel
    {
        type            fixedValue;
        value           uniform 0;
    }
    outlet
    {
        type            inletOutlet;
        inletValue      uniform 0;
        value           uniform 1.16826e-18;
    }
}


// ************************************************************************* //
