/*--------------------------------*- C++ -*----------------------------------*\
| =========                 |                                                 |
| \\      /  F ield         | OpenFOAM: The Open Source CFD Toolbox           |
|  \\    /   O peration     | Version:  dev                                   |
|   \\  /    A nd           | Web:      www.OpenFOAM.org                      |
|    \\/     M anipulation  |                                                 |
\*---------------------------------------------------------------------------*/
FoamFile
{
    version     2.0;
    format      ascii;
    class       volScalarField;
    location    "0.1";
    object      C2H4;
}
// * * * * * * * * * * * * * * * * * * * * * * * * * * * * * * * * * * * * * //

dimensions      [0 0 0 0 0 0 0];

internalField   nonuniform List<scalar> 
100
(
0.0319862
0.00759557
0.00191435
0.000493146
0.000126307
3.29359e-05
8.63356e-06
2.33892e-06
6.8707e-07
2.2233e-07
8.51549e-08
3.81962e-08
1.97779e-08
1.13078e-08
6.88457e-09
4.36793e-09
2.85567e-09
1.91288e-09
1.30866e-09
9.12675e-10
6.48344e-10
4.69321e-10
3.46794e-10
2.6234e-10
2.03807e-10
1.62609e-10
1.33377e-10
1.12499e-10
9.73775e-11
8.61852e-11
7.76371e-11
7.10799e-11
6.56991e-11
6.11509e-11
5.72202e-11
5.37805e-11
5.07655e-11
4.81452e-11
4.5908e-11
4.40528e-11
4.25527e-11
4.14427e-11
4.07443e-11
4.04689e-11
4.05781e-11
4.10816e-11
4.20114e-11
4.33278e-11
4.50846e-11
4.73655e-11
5.00768e-11
5.33102e-11
5.71923e-11
6.19849e-11
6.77021e-11
7.41998e-11
8.19162e-11
9.10587e-11
1.01907e-10
1.14821e-10
1.30258e-10
1.48798e-10
1.71176e-10
1.98333e-10
2.31465e-10
2.72103e-10
3.22225e-10
3.84472e-10
4.62345e-10
5.59647e-10
6.79947e-10
8.24592e-10
9.9912e-10
1.20706e-09
1.45094e-09
1.73322e-09
2.03234e-09
2.35287e-09
2.69021e-09
3.00846e-09
3.30235e-09
3.54959e-09
3.7357e-09
3.8511e-09
3.88701e-09
3.84375e-09
3.73029e-09
3.55809e-09
3.34091e-09
3.09251e-09
2.82486e-09
2.54724e-09
2.26631e-09
1.98667e-09
1.71123e-09
1.44105e-09
1.17426e-09
9.04835e-10
6.22096e-10
3.09967e-10
)
;

boundaryField
{
    wall
    {
        type            zeroGradient;
    }
    fuel
    {
        type            fixedValue;
        value           uniform 0.116;
    }
    outlet
    {
        type            inletOutlet;
        inletValue      uniform 0;
        value           uniform 3.09967e-10;
    }
}


// ************************************************************************* //
