/*--------------------------------*- C++ -*----------------------------------*\
| =========                 |                                                 |
| \\      /  F ield         | OpenFOAM: The Open Source CFD Toolbox           |
|  \\    /   O peration     | Version:  dev                                   |
|   \\  /    A nd           | Web:      www.OpenFOAM.org                      |
|    \\/     M anipulation  |                                                 |
\*---------------------------------------------------------------------------*/
FoamFile
{
    version     2.0;
    format      ascii;
    class       volScalarField;
    location    "0.1";
    object      CH2;
}
// * * * * * * * * * * * * * * * * * * * * * * * * * * * * * * * * * * * * * //

dimensions      [0 0 0 0 0 0 0];

internalField   nonuniform List<scalar> 
100
(
0.000112843
9.32206e-05
6.21842e-05
3.92083e-05
2.43244e-05
1.53686e-05
9.82275e-06
6.40213e-06
4.28986e-06
2.91192e-06
2.02245e-06
1.41223e-06
9.92316e-07
6.98082e-07
4.89692e-07
3.4163e-07
2.36752e-07
1.63004e-07
1.11642e-07
7.62358e-08
5.2066e-08
3.57071e-08
2.47086e-08
1.73423e-08
1.24016e-08
9.05489e-09
6.77664e-09
5.18828e-09
4.0574e-09
3.23073e-09
2.60765e-09
2.13831e-09
1.76451e-09
1.46182e-09
1.21398e-09
1.00985e-09
8.41454e-10
7.02701e-10
5.88691e-10
4.95518e-10
4.1841e-10
3.55568e-10
3.05032e-10
2.65768e-10
2.34084e-10
2.08371e-10
1.87514e-10
1.71676e-10
1.59212e-10
1.49375e-10
1.41871e-10
1.36116e-10
1.3182e-10
1.28575e-10
1.26262e-10
1.24706e-10
1.23613e-10
1.22808e-10
1.22129e-10
1.2143e-10
1.20582e-10
1.19478e-10
1.18026e-10
1.16154e-10
1.13804e-10
1.10936e-10
1.07526e-10
1.03561e-10
9.9029e-11
9.393e-11
8.82975e-11
8.23155e-11
7.59708e-11
6.93236e-11
6.24582e-11
5.53565e-11
4.8473e-11
4.16929e-11
3.49857e-11
2.88671e-11
2.32176e-11
1.81861e-11
1.38047e-11
1.00877e-11
7.03625e-12
4.76519e-12
3.0884e-12
1.9283e-12
1.18977e-12
7.77491e-13
6.05193e-13
5.98896e-13
6.94526e-13
8.33724e-13
9.63753e-13
1.04345e-12
1.05118e-12
9.83724e-13
8.27463e-13
4.98376e-13
)
;

boundaryField
{
    wall
    {
        type            zeroGradient;
    }
    fuel
    {
        type            fixedValue;
        value           uniform 0;
    }
    outlet
    {
        type            inletOutlet;
        inletValue      uniform 0;
        value           uniform 4.98376e-13;
    }
}


// ************************************************************************* //
