/*--------------------------------*- C++ -*----------------------------------*\
| =========                 |                                                 |
| \\      /  F ield         | OpenFOAM: The Open Source CFD Toolbox           |
|  \\    /   O peration     | Version:  dev                                   |
|   \\  /    A nd           | Web:      www.OpenFOAM.org                      |
|    \\/     M anipulation  |                                                 |
\*---------------------------------------------------------------------------*/
FoamFile
{
    version     2.0;
    format      ascii;
    class       volScalarField;
    location    "0.1";
    object      CH2OH;
}
// * * * * * * * * * * * * * * * * * * * * * * * * * * * * * * * * * * * * * //

dimensions      [0 0 0 0 0 0 0];

internalField   nonuniform List<scalar> 
100
(
3.36252e-06
2.45201e-06
1.49193e-06
8.84214e-07
5.28117e-07
3.26948e-07
2.06896e-07
1.34289e-07
8.98418e-08
6.09265e-08
4.22648e-08
2.94583e-08
2.06485e-08
1.44834e-08
1.01266e-08
7.04007e-09
4.86108e-09
3.33447e-09
2.2753e-09
1.54798e-09
1.05339e-09
7.19904e-10
4.96507e-10
3.47396e-10
2.47695e-10
1.80363e-10
1.34681e-10
1.02905e-10
8.03308e-11
6.38651e-11
5.1484e-11
4.21818e-11
3.4793e-11
2.88265e-11
2.3955e-11
1.99538e-11
1.6662e-11
1.39569e-11
1.17399e-11
9.93272e-12
8.44106e-12
7.22908e-12
6.25806e-12
5.50731e-12
4.90503e-12
4.42012e-12
4.03134e-12
3.74142e-12
3.51918e-12
3.35091e-12
3.23045e-12
3.14714e-12
3.09586e-12
3.07043e-12
3.06839e-12
3.08508e-12
3.11703e-12
3.16121e-12
3.21491e-12
3.2757e-12
3.34147e-12
3.41042e-12
3.48098e-12
3.55178e-12
3.62161e-12
3.68949e-12
3.75469e-12
3.81673e-12
3.87495e-12
3.9279e-12
3.97566e-12
4.01735e-12
4.05323e-12
4.08283e-12
4.10567e-12
4.12221e-12
4.13212e-12
4.13853e-12
4.14628e-12
4.16497e-12
4.20734e-12
4.30004e-12
4.48329e-12
4.82455e-12
5.47293e-12
6.61183e-12
8.64728e-12
1.2221e-11
1.83213e-11
2.8251e-11
4.3314e-11
6.41101e-11
8.95625e-11
1.16106e-10
1.37659e-10
1.47001e-10
1.38794e-10
1.12984e-10
7.58001e-11
3.5607e-11
)
;

boundaryField
{
    wall
    {
        type            zeroGradient;
    }
    fuel
    {
        type            fixedValue;
        value           uniform 0;
    }
    outlet
    {
        type            inletOutlet;
        inletValue      uniform 0;
        value           uniform 3.5607e-11;
    }
}


// ************************************************************************* //
