/*--------------------------------*- C++ -*----------------------------------*\
| =========                 |                                                 |
| \\      /  F ield         | OpenFOAM: The Open Source CFD Toolbox           |
|  \\    /   O peration     | Version:  dev                                   |
|   \\  /    A nd           | Web:      www.OpenFOAM.org                      |
|    \\/     M anipulation  |                                                 |
\*---------------------------------------------------------------------------*/
FoamFile
{
    version     2.0;
    format      ascii;
    class       volScalarField;
    location    "0.1";
    object      CH4;
}
// * * * * * * * * * * * * * * * * * * * * * * * * * * * * * * * * * * * * * //

dimensions      [0 0 0 0 0 0 0];

internalField   nonuniform List<scalar> 
100
(
0.000263279
0.000272758
0.000235566
0.000192159
0.000148633
0.000110648
7.94727e-05
5.61411e-05
3.98065e-05
2.8251e-05
2.03865e-05
1.4779e-05
1.07917e-05
7.90604e-06
5.79041e-06
4.22922e-06
3.07691e-06
2.23012e-06
1.61229e-06
1.16528e-06
8.44562e-07
6.16264e-07
4.54873e-07
3.41372e-07
2.6165e-07
2.05187e-07
1.65235e-07
1.36399e-07
1.15205e-07
9.92075e-08
8.67061e-08
7.68807e-08
6.86536e-08
6.15971e-08
5.54432e-08
5.00287e-08
4.52573e-08
4.10704e-08
3.74273e-08
3.43013e-08
3.16158e-08
2.9383e-08
2.76003e-08
2.62823e-08
2.53379e-08
2.47467e-08
2.45081e-08
2.46214e-08
2.50745e-08
2.58923e-08
2.70273e-08
2.85122e-08
3.03876e-08
3.2753e-08
3.55693e-08
3.87072e-08
4.23205e-08
4.64199e-08
5.10195e-08
5.61329e-08
6.17706e-08
6.79382e-08
7.46371e-08
8.18632e-08
8.96054e-08
9.78466e-08
1.06569e-07
1.1577e-07
1.25484e-07
1.35716e-07
1.46342e-07
1.57088e-07
1.68073e-07
1.79279e-07
1.90696e-07
2.02298e-07
2.13257e-07
2.24115e-07
2.34977e-07
2.45053e-07
2.5458e-07
2.63243e-07
2.709e-07
2.77429e-07
2.82558e-07
2.85803e-07
2.87143e-07
2.86341e-07
2.83185e-07
2.77485e-07
2.69069e-07
2.57776e-07
2.43455e-07
2.25948e-07
2.05089e-07
1.80691e-07
1.52548e-07
1.20393e-07
8.38192e-08
4.1927e-08
)
;

boundaryField
{
    wall
    {
        type            zeroGradient;
    }
    fuel
    {
        type            fixedValue;
        value           uniform 0;
    }
    outlet
    {
        type            inletOutlet;
        inletValue      uniform 0;
        value           uniform 4.1927e-08;
    }
}


// ************************************************************************* //
