/*--------------------------------*- C++ -*----------------------------------*\
| =========                 |                                                 |
| \\      /  F ield         | OpenFOAM: The Open Source CFD Toolbox           |
|  \\    /   O peration     | Version:  dev                                   |
|   \\  /    A nd           | Web:      www.OpenFOAM.org                      |
|    \\/     M anipulation  |                                                 |
\*---------------------------------------------------------------------------*/
FoamFile
{
    version     2.0;
    format      ascii;
    class       volScalarField;
    location    "0.1";
    object      CO2;
}
// * * * * * * * * * * * * * * * * * * * * * * * * * * * * * * * * * * * * * //

dimensions      [0 0 0 0 0 0 0];

internalField   nonuniform List<scalar> 
100
(
0.0234866
0.0309288
0.0320794
0.031707
0.031086
0.0305752
0.0302113
0.0299772
0.0298357
0.0297483
0.0296949
0.0296588
0.0296329
0.0296126
0.0295956
0.029581
0.0295681
0.0295566
0.0295461
0.0295362
0.0295269
0.0295178
0.0295089
0.0295
0.0294911
0.0294822
0.0294731
0.0294639
0.0294545
0.0294452
0.0294362
0.029428
0.0294203
0.029413
0.0294062
0.0293999
0.0293942
0.029389
0.0293844
0.0293803
0.0293766
0.0293735
0.0293711
0.0293693
0.0293678
0.0293665
0.0293654
0.0293642
0.0293627
0.0293605
0.0293571
0.0293517
0.0293438
0.029332
0.0293156
0.0292946
0.029267
0.0292312
0.0291859
0.0291293
0.0290597
0.0289752
0.028874
0.028754
0.0286135
0.0284506
0.0282633
0.0280493
0.0278051
0.0275282
0.0272193
0.0268839
0.0265158
0.026113
0.025675
0.0251917
0.0246864
0.0241447
0.0235505
0.0229394
0.0222904
0.0216123
0.0208984
0.0201385
0.01933
0.018516
0.0176633
0.0167726
0.0158422
0.0148697
0.0138526
0.0127878
0.0116712
0.0104977
0.00926122
0.00795415
0.00656693
0.00508589
0.00348892
0.00172785
)
;

boundaryField
{
    wall
    {
        type            zeroGradient;
    }
    fuel
    {
        type            fixedValue;
        value           uniform 0;
    }
    outlet
    {
        type            inletOutlet;
        inletValue      uniform 0;
        value           uniform 0.00172785;
    }
}


// ************************************************************************* //
