/*--------------------------------*- C++ -*----------------------------------*\
| =========                 |                                                 |
| \\      /  F ield         | OpenFOAM: The Open Source CFD Toolbox           |
|  \\    /   O peration     | Version:  dev                                   |
|   \\  /    A nd           | Web:      www.OpenFOAM.org                      |
|    \\/     M anipulation  |                                                 |
\*---------------------------------------------------------------------------*/
FoamFile
{
    version     2.0;
    format      ascii;
    class       volScalarField;
    location    "0.1";
    object      H2C4O;
}
// * * * * * * * * * * * * * * * * * * * * * * * * * * * * * * * * * * * * * //

dimensions      [0 0 0 0 0 0 0];

internalField   nonuniform List<scalar> 
100
(
4.02998e-06
2.27159e-06
9.74138e-07
3.77215e-07
1.37272e-07
4.95993e-08
1.77314e-08
6.4493e-09
2.47118e-09
9.86822e-10
4.25301e-10
1.92756e-10
9.19696e-11
4.54889e-11
2.29693e-11
1.16999e-11
5.96609e-12
3.03452e-12
1.53889e-12
7.79819e-13
3.96587e-13
2.03712e-13
1.06581e-13
5.73726e-14
3.21067e-14
1.87826e-14
1.1531e-14
7.4522e-15
5.0591e-15
3.58526e-15
2.6279e-15
1.99183e-15
1.536e-15
1.19843e-15
9.42572e-16
7.45912e-16
5.93889e-16
4.7657e-16
3.86885e-16
3.19889e-16
2.71295e-16
2.40028e-16
2.25706e-16
2.2829e-16
2.48149e-16
2.87215e-16
3.48206e-16
4.27999e-16
5.29319e-16
6.53806e-16
7.93496e-16
9.46471e-16
1.10761e-15
1.27404e-15
1.43029e-15
1.56063e-15
1.6645e-15
1.73458e-15
1.76589e-15
1.75608e-15
1.70569e-15
1.61806e-15
1.49896e-15
1.35598e-15
1.19771e-15
1.03292e-15
8.69725e-16
7.14756e-16
5.72633e-16
4.46582e-16
3.39392e-16
2.53157e-16
1.84831e-16
1.32178e-16
9.26042e-17
6.29858e-17
4.27662e-17
2.85519e-17
1.85828e-17
1.21075e-17
7.77259e-18
4.93602e-18
3.09775e-18
1.90665e-18
1.14273e-18
6.87483e-19
4.078e-19
2.39569e-19
1.40243e-19
8.24725e-20
4.92568e-20
3.03065e-20
1.95286e-20
1.33644e-20
9.74964e-21
7.48625e-21
5.87364e-21
4.49753e-21
3.11109e-21
1.55984e-21
)
;

boundaryField
{
    wall
    {
        type            zeroGradient;
    }
    fuel
    {
        type            fixedValue;
        value           uniform 0;
    }
    outlet
    {
        type            inletOutlet;
        inletValue      uniform 0;
        value           uniform 1.55984e-21;
    }
}


// ************************************************************************* //
