/*--------------------------------*- C++ -*----------------------------------*\
| =========                 |                                                 |
| \\      /  F ield         | OpenFOAM: The Open Source CFD Toolbox           |
|  \\    /   O peration     | Version:  dev                                   |
|   \\  /    A nd           | Web:      www.OpenFOAM.org                      |
|    \\/     M anipulation  |                                                 |
\*---------------------------------------------------------------------------*/
FoamFile
{
    version     2.0;
    format      ascii;
    class       volScalarField;
    location    "0.1";
    object      i-C4H3;
}
// * * * * * * * * * * * * * * * * * * * * * * * * * * * * * * * * * * * * * //

dimensions      [0 0 0 0 0 0 0];

internalField   nonuniform List<scalar> 
100
(
2.14495e-06
1.23203e-06
5.32782e-07
2.05698e-07
7.44008e-08
2.67806e-08
9.58087e-09
3.50778e-09
1.3612e-09
5.53613e-10
2.43823e-10
1.13066e-10
5.51352e-11
2.7808e-11
1.42836e-11
7.38568e-12
3.81703e-12
1.96543e-12
1.00824e-12
5.16557e-13
2.6552e-13
1.37833e-13
7.28799e-14
3.96557e-14
2.24384e-14
1.32762e-14
8.24756e-15
5.39574e-15
3.70967e-15
2.66383e-15
1.97984e-15
1.5225e-15
1.19235e-15
9.45811e-16
7.57245e-16
6.10931e-16
4.96818e-16
4.08171e-16
3.40324e-16
2.9022e-16
2.55445e-16
2.36363e-16
2.34223e-16
2.50541e-16
2.88367e-16
3.5282e-16
4.5095e-16
5.81713e-16
7.54248e-16
9.77841e-16
1.24606e-15
1.56416e-15
1.93127e-15
2.35508e-15
2.81315e-15
3.27069e-15
3.73268e-15
4.17947e-15
4.59093e-15
4.94734e-15
5.23066e-15
5.42591e-15
5.52237e-15
5.51455e-15
5.40277e-15
5.19325e-15
4.89768e-15
4.53117e-15
4.1088e-15
3.64618e-15
3.17032e-15
2.71177e-15
2.27862e-15
1.88167e-15
1.5265e-15
1.20937e-15
9.51794e-16
7.36955e-16
5.58025e-16
4.20227e-16
3.11026e-16
2.26827e-16
1.62708e-16
1.14055e-16
7.76731e-17
5.24673e-17
3.45877e-17
2.22401e-17
1.39331e-17
8.49306e-18
5.0308e-18
2.89327e-18
1.61607e-18
8.79098e-19
4.68583e-19
2.46838e-19
1.29228e-19
6.68642e-20
3.34193e-20
1.41276e-20
)
;

boundaryField
{
    wall
    {
        type            zeroGradient;
    }
    fuel
    {
        type            fixedValue;
        value           uniform 0;
    }
    outlet
    {
        type            inletOutlet;
        inletValue      uniform 0;
        value           uniform 1.41276e-20;
    }
}


// ************************************************************************* //
