/*--------------------------------*- C++ -*----------------------------------*\
| =========                 |                                                 |
| \\      /  F ield         | OpenFOAM: The Open Source CFD Toolbox           |
|  \\    /   O peration     | Version:  dev                                   |
|   \\  /    A nd           | Web:      www.OpenFOAM.org                      |
|    \\/     M anipulation  |                                                 |
\*---------------------------------------------------------------------------*/
FoamFile
{
    version     2.0;
    format      ascii;
    class       volScalarField;
    location    "0.1";
    object      O2;
}
// * * * * * * * * * * * * * * * * * * * * * * * * * * * * * * * * * * * * * //

dimensions      [0 0 0 0 0 0 0];

internalField   nonuniform List<scalar> 
100
(
0.0559337
0.0144329
0.00409566
0.00123758
0.000389843
0.000134683
5.29162e-05
2.65279e-05
1.78171e-05
1.46165e-05
1.32425e-05
1.2412e-05
1.17494e-05
1.11297e-05
1.0518e-05
9.9081e-06
9.30236e-06
8.70508e-06
8.12053e-06
7.5525e-06
7.00424e-06
6.47846e-06
5.97717e-06
5.50141e-06
5.05061e-06
4.62795e-06
4.23352e-06
3.86276e-06
3.51634e-06
3.19452e-06
2.89663e-06
2.63011e-06
2.38472e-06
2.15951e-06
1.95324e-06
1.76463e-06
1.59243e-06
1.43538e-06
1.29225e-06
1.16216e-06
1.04199e-06
9.32249e-07
8.33044e-07
7.46325e-07
6.67534e-07
5.95395e-07
5.29122e-07
4.71968e-07
4.20573e-07
3.73598e-07
3.32279e-07
2.95389e-07
2.62145e-07
2.31283e-07
2.03709e-07
1.8018e-07
1.59092e-07
1.40262e-07
1.23479e-07
1.08539e-07
9.52572e-08
8.34699e-08
7.30294e-08
6.38007e-08
5.56611e-08
4.85001e-08
4.22152e-08
3.67052e-08
3.18617e-08
2.75947e-08
2.38763e-08
2.07178e-08
1.79988e-08
1.5658e-08
1.36388e-08
1.18687e-08
1.04221e-08
9.18199e-09
8.10026e-09
7.21301e-09
6.45556e-09
5.81758e-09
5.2753e-09
4.80433e-09
4.39013e-09
4.04003e-09
3.7254e-09
3.43758e-09
3.16863e-09
2.91212e-09
2.66309e-09
2.4177e-09
2.17303e-09
1.92681e-09
1.67727e-09
1.42285e-09
1.16188e-09
8.91765e-10
6.07847e-10
3.00019e-10
)
;

boundaryField
{
    wall
    {
        type            zeroGradient;
    }
    fuel
    {
        type            fixedValue;
        value           uniform 0.1914;
    }
    outlet
    {
        type            inletOutlet;
        inletValue      uniform 0;
        value           uniform 3.00019e-10;
    }
}


// ************************************************************************* //
