/*--------------------------------*- C++ -*----------------------------------*\
| =========                 |                                                 |
| \\      /  F ield         | OpenFOAM: The Open Source CFD Toolbox           |
|  \\    /   O peration     | Version:  dev                                   |
|   \\  /    A nd           | Web:      www.OpenFOAM.org                      |
|    \\/     M anipulation  |                                                 |
\*---------------------------------------------------------------------------*/
FoamFile
{
    version     2.0;
    format      ascii;
    class       volScalarField;
    location    "0.1";
    object      p_rgh;
}
// * * * * * * * * * * * * * * * * * * * * * * * * * * * * * * * * * * * * * //

dimensions      [1 -1 -2 0 0 0 0];

internalField   nonuniform List<scalar> 
100
(
99979
99978.9
99978.9
99978.9
99978.9
99978.9
99979
99979
99979
99979.1
99979.1
99979.1
99979.2
99979.3
99979.3
99979.4
99979.4
99979.5
99979.6
99979.7
99979.8
99979.9
99979.9
99980.1
99980.2
99980.3
99980.5
99980.8
99981
99981.2
99981.5
99981.7
99982
99982.2
99982.5
99982.7
99983
99983.2
99983.5
99983.8
99984.1
99984.4
99984.6
99984.9
99985.2
99985.5
99985.8
99986.2
99986.5
99986.8
99987.1
99987.4
99987.6
99987.9
99988.2
99988.5
99988.8
99989.1
99989.4
99989.7
99990
99990.4
99990.7
99991
99991.3
99991.7
99992
99992.4
99992.7
99993.1
99993.5
99993.8
99994.2
99994.6
99994.9
99995.3
99995.7
99996
99996.4
99996.8
99997.2
99997.5
99997.9
99998.3
99998.6
99999
99999.4
99999.7
100000
100000
100001
100001
100001
100002
100002
100002
100002
100002
100002
100001
)
;

boundaryField
{
    wall
    {
        type            fixedFluxPressure;
        gradient        uniform 0;
        value           nonuniform List<scalar> 
400
(
99979
99978.9
99978.9
99978.9
99978.9
99978.9
99979
99979
99979
99979.1
99979.1
99979.1
99979.2
99979.3
99979.3
99979.4
99979.4
99979.5
99979.6
99979.7
99979.8
99979.9
99979.9
99980.1
99980.2
99980.3
99980.5
99980.8
99981
99981.2
99981.5
99981.7
99982
99982.2
99982.5
99982.7
99983
99983.2
99983.5
99983.8
99984.1
99984.4
99984.6
99984.9
99985.2
99985.5
99985.8
99986.2
99986.5
99986.8
99987.1
99987.4
99987.6
99987.9
99988.2
99988.5
99988.8
99989.1
99989.4
99989.7
99990
99990.4
99990.7
99991
99991.3
99991.7
99992
99992.4
99992.7
99993.1
99993.5
99993.8
99994.2
99994.6
99994.9
99995.3
99995.7
99996
99996.4
99996.8
99997.2
99997.5
99997.9
99998.3
99998.6
99999
99999.4
99999.7
100000
100000
100001
100001
100001
100002
100002
100002
100002
100002
100002
100001
99979
99978.9
99978.9
99978.9
99978.9
99978.9
99979
99979
99979
99979.1
99979.1
99979.1
99979.2
99979.3
99979.3
99979.4
99979.4
99979.5
99979.6
99979.7
99979.8
99979.9
99979.9
99980.1
99980.2
99980.3
99980.5
99980.8
99981
99981.2
99981.5
99981.7
99982
99982.2
99982.5
99982.7
99983
99983.2
99983.5
99983.8
99984.1
99984.4
99984.6
99984.9
99985.2
99985.5
99985.8
99986.2
99986.5
99986.8
99987.1
99987.4
99987.6
99987.9
99988.2
99988.5
99988.8
99989.1
99989.4
99989.7
99990
99990.4
99990.7
99991
99991.3
99991.7
99992
99992.4
99992.7
99993.1
99993.5
99993.8
99994.2
99994.6
99994.9
99995.3
99995.7
99996
99996.4
99996.8
99997.2
99997.5
99997.9
99998.3
99998.6
99999
99999.4
99999.7
100000
100000
100001
100001
100001
100002
100002
100002
100002
100002
100002
100001
99979
99978.9
99978.9
99978.9
99978.9
99978.9
99979
99979
99979
99979.1
99979.1
99979.1
99979.2
99979.3
99979.3
99979.4
99979.4
99979.5
99979.6
99979.7
99979.8
99979.9
99979.9
99980.1
99980.2
99980.3
99980.5
99980.8
99981
99981.2
99981.5
99981.7
99982
99982.2
99982.5
99982.7
99983
99983.2
99983.5
99983.8
99984.1
99984.4
99984.6
99984.9
99985.2
99985.5
99985.8
99986.2
99986.5
99986.8
99987.1
99987.4
99987.6
99987.9
99988.2
99988.5
99988.8
99989.1
99989.4
99989.7
99990
99990.4
99990.7
99991
99991.3
99991.7
99992
99992.4
99992.7
99993.1
99993.5
99993.8
99994.2
99994.6
99994.9
99995.3
99995.7
99996
99996.4
99996.8
99997.2
99997.5
99997.9
99998.3
99998.6
99999
99999.4
99999.7
100000
100000
100001
100001
100001
100002
100002
100002
100002
100002
100002
100001
99979
99978.9
99978.9
99978.9
99978.9
99978.9
99979
99979
99979
99979.1
99979.1
99979.1
99979.2
99979.3
99979.3
99979.4
99979.4
99979.5
99979.6
99979.7
99979.8
99979.9
99979.9
99980.1
99980.2
99980.3
99980.5
99980.8
99981
99981.2
99981.5
99981.7
99982
99982.2
99982.5
99982.7
99983
99983.2
99983.5
99983.8
99984.1
99984.4
99984.6
99984.9
99985.2
99985.5
99985.8
99986.2
99986.5
99986.8
99987.1
99987.4
99987.6
99987.9
99988.2
99988.5
99988.8
99989.1
99989.4
99989.7
99990
99990.4
99990.7
99991
99991.3
99991.7
99992
99992.4
99992.7
99993.1
99993.5
99993.8
99994.2
99994.6
99994.9
99995.3
99995.7
99996
99996.4
99996.8
99997.2
99997.5
99997.9
99998.3
99998.6
99999
99999.4
99999.7
100000
100000
100001
100001
100001
100002
100002
100002
100002
100002
100002
100001
)
;
    }
    fuel
    {
        type            fixedFluxPressure;
        gradient        uniform 0;
        value           uniform 99979;
    }
    outlet
    {
        type            fixedFluxPressure;
        gradient        uniform 0;
        value           uniform 100000;
    }
}


// ************************************************************************* //
