/*--------------------------------*- C++ -*----------------------------------*\
| =========                 |                                                 |
| \\      /  F ield         | OpenFOAM: The Open Source CFD Toolbox           |
|  \\    /   O peration     | Version:  dev                                   |
|   \\  /    A nd           | Web:      www.OpenFOAM.org                      |
|    \\/     M anipulation  |                                                 |
\*---------------------------------------------------------------------------*/
FoamFile
{
    version     2.0;
    format      ascii;
    class       volScalarField;
    location    "0.1";
    object      T;
}
// * * * * * * * * * * * * * * * * * * * * * * * * * * * * * * * * * * * * * //

dimensions      [0 0 0 1 0 0 0];

internalField   nonuniform List<scalar> 
100
(
2214.28
2511.76
2591.37
2613.44
2615.87
2609.96
2599.8
2587.55
2574.59
2561.31
2548.46
2535.85
2523.67
2511.86
2500.31
2488.9
2477.57
2466.23
2454.85
2443.4
2431.86
2420.23
2408.49
2396.64
2384.66
2372.53
2360.24
2347.76
2335.11
2322.29
2309.28
2296.39
2283.33
2270.08
2256.66
2243.04
2229.23
2215.2
2200.94
2186.47
2171.55
2156.27
2140.73
2125.33
2109.64
2093.49
2076.81
2060.4
2043.74
2026.6
2009.39
1991.85
1974.03
1955.37
1936.36
1917.69
1898.64
1879.23
1859.47
1839.34
1818.84
1797.96
1776.69
1755.02
1732.95
1710.47
1687.55
1664.12
1640.1
1615.45
1590.18
1564.72
1538.73
1512.12
1484.9
1456.5
1428.05
1398.88
1368.21
1337.55
1305.97
1273.64
1240.34
1205.86
1169.74
1133.66
1096.36
1057.83
1017.97
976.669
933.791
889.138
842.482
793.552
742.031
687.541
629.642
567.736
500.697
427.018
)
;

boundaryField
{
    wall
    {
        type            zeroGradient;
    }
    fuel
    {
        type            fixedValue;
        value           uniform 1300;
    }
    outlet
    {
        type            inletOutlet;
        inletValue      uniform 353;
        value           uniform 422.467;
    }
}


// ************************************************************************* //
