/*--------------------------------*- C++ -*----------------------------------*\
| =========                 |                                                 |
| \\      /  F ield         | OpenFOAM: The Open Source CFD Toolbox           |
|  \\    /   O peration     | Version:  dev                                   |
|   \\  /    A nd           | Web:      www.OpenFOAM.org                      |
|    \\/     M anipulation  |                                                 |
\*---------------------------------------------------------------------------*/
FoamFile
{
    version     2.0;
    format      ascii;
    class       volScalarField;
    location    "0.005";
    object      A4;
}
// * * * * * * * * * * * * * * * * * * * * * * * * * * * * * * * * * * * * * //

dimensions      [0 0 0 0 0 0 0];

internalField   nonuniform List<scalar> 
250
(
8.61686e-16
2.05462e-15
3.75647e-15
5.22853e-15
6.34738e-15
6.80483e-15
7.09293e-15
7.2466e-15
7.39716e-15
7.44041e-15
4.05152e-16
9.43663e-16
1.7335e-15
2.40996e-15
2.91538e-15
3.11918e-15
3.25149e-15
3.3179e-15
3.38749e-15
3.40653e-15
3.42059e-15
3.39284e-15
3.3326e-15
3.27404e-15
3.14843e-15
2.93992e-15
2.43043e-15
1.74393e-15
9.48862e-16
4.07389e-16
1.84919e-16
4.47332e-16
7.78082e-16
1.06557e-15
1.30131e-15
1.39039e-15
1.45045e-15
1.47948e-15
1.51089e-15
1.51904e-15
1.52475e-15
1.5112e-15
1.48359e-15
1.45804e-15
1.40153e-15
1.31112e-15
1.07407e-15
7.82371e-16
4.50018e-16
1.85702e-16
8.33732e-17
1.98525e-16
3.66693e-16
4.65027e-16
5.60191e-16
5.94077e-16
6.19491e-16
6.31131e-16
6.44018e-16
6.4723e-16
6.49375e-16
6.44013e-16
6.31769e-16
6.22356e-16
5.98359e-16
5.63659e-16
4.68546e-16
3.68575e-16
1.99554e-16
8.37688e-17
3.62051e-17
8.80686e-17
1.61594e-16
2.11657e-16
2.56885e-16
2.7262e-16
2.84972e-16
2.90213e-16
2.96451e-16
2.97919e-16
2.98854e-16
2.96537e-16
2.90302e-16
2.86324e-16
2.74446e-16
2.58371e-16
2.13369e-16
1.62375e-16
8.84834e-17
3.63783e-17
1.48937e-17
3.6363e-17
7.04078e-17
9.18324e-17
1.08697e-16
1.14295e-16
1.196e-16
1.2191e-16
1.2433e-16
1.24943e-16
1.25276e-16
1.24158e-16
1.21663e-16
1.20062e-16
1.14929e-16
1.09386e-16
9.24533e-17
7.07343e-17
3.6516e-17
1.49614e-17
5.67304e-18
1.43482e-17
2.75643e-17
3.69736e-17
4.50124e-17
4.74797e-17
5.00963e-17
5.10715e-17
5.22008e-17
5.24562e-17
5.25838e-17
5.20542e-17
5.0888e-17
5.01806e-17
4.77436e-17
4.53035e-17
3.72089e-17
2.76791e-17
1.44049e-17
5.6957e-18
1.97365e-18
5.2929e-18
9.75304e-18
1.34428e-17
1.60557e-17
1.69774e-17
1.80117e-17
1.83675e-17
1.88216e-17
1.89098e-17
1.89467e-17
1.87308e-17
1.82474e-17
1.79877e-17
1.70469e-17
1.61562e-17
1.35237e-17
9.79237e-18
5.30835e-18
1.98016e-18
6.34511e-19
1.79414e-18
3.28969e-18
4.56787e-18
5.3569e-18
5.66305e-18
5.99845e-18
6.11175e-18
6.26373e-18
6.29084e-18
6.30069e-18
6.22758e-18
6.05855e-18
5.97679e-18
5.68212e-18
5.38604e-18
4.59526e-18
3.30201e-18
1.79845e-18
6.36248e-19
1.89285e-19
5.58006e-19
1.02881e-18
1.43458e-18
1.6575e-18
1.75074e-18
1.855e-18
1.88977e-18
1.93791e-18
1.94605e-18
1.94803e-18
1.92418e-18
1.86714e-18
1.8431e-18
1.75552e-18
1.66573e-18
1.44262e-18
1.03229e-18
5.59137e-19
1.89712e-19
5.17481e-20
1.57006e-19
2.91096e-19
4.06634e-19
4.64192e-19
4.88251e-19
5.17245e-19
5.26486e-19
5.39709e-19
5.41807e-19
5.42189e-19
5.35582e-19
5.19163e-19
5.13051e-19
4.89206e-19
4.66501e-19
4.08692e-19
2.92031e-19
1.57212e-19
5.18383e-20
1.27773e-20
3.91855e-20
7.27029e-20
1.01595e-19
1.14804e-19
1.20161e-19
1.27167e-19
1.29299e-19
1.32454e-19
1.32902e-19
1.32975e-19
1.31369e-19
1.27334e-19
1.25979e-19
1.20321e-19
1.15306e-19
1.02043e-19
7.29198e-20
3.9215e-20
1.27952e-20
3.1787e-21
9.58674e-21
1.77696e-20
2.50397e-20
2.8147e-20
2.91055e-20
3.09337e-20
3.14464e-20
3.22225e-20
3.23485e-20
3.23279e-20
3.1903e-20
3.08146e-20
3.05266e-20
2.91728e-20
2.82527e-20
2.5125e-20
1.78163e-20
9.5894e-21
3.18225e-21
)
;

boundaryField
{
    fuel
    {
        type            fixedValue;
        value           nonuniform 0();
    }
    wall
    {
        type            zeroGradient;
    }
    outlet
    {
        type            zeroGradient;
    }
    frontAndBack
    {
        type            empty;
    }
    procBoundary1to0
    {
        type            processor;
        value           nonuniform List<scalar> 
21
(
1.7756e-15
4.31724e-15
8.00127e-15
1.10546e-14
1.35345e-14
1.45658e-14
1.51925e-14
1.5538e-14
1.58615e-14
1.59593e-14
7.47296e-15
7.47296e-15
7.41612e-15
7.28757e-15
7.15519e-15
6.87826e-15
6.40653e-15
5.27649e-15
3.77876e-15
2.06588e-15
8.66509e-16
)
;
    }
}


// ************************************************************************* //
