/*--------------------------------*- C++ -*----------------------------------*\
| =========                 |                                                 |
| \\      /  F ield         | OpenFOAM: The Open Source CFD Toolbox           |
|  \\    /   O peration     | Version:  dev                                   |
|   \\  /    A nd           | Web:      www.OpenFOAM.org                      |
|    \\/     M anipulation  |                                                 |
\*---------------------------------------------------------------------------*/
FoamFile
{
    version     2.0;
    format      ascii;
    class       volScalarField;
    location    "0.005";
    object      AC3H4;
}
// * * * * * * * * * * * * * * * * * * * * * * * * * * * * * * * * * * * * * //

dimensions      [0 0 0 0 0 0 0];

internalField   nonuniform List<scalar> 
250
(
1.65682e-09
3.95028e-09
5.64651e-09
6.11347e-09
7.20158e-09
7.95344e-09
8.36775e-09
8.62364e-09
8.65185e-09
8.72991e-09
8.93581e-10
2.23823e-09
3.34119e-09
3.6453e-09
4.30051e-09
4.71113e-09
4.96111e-09
5.09411e-09
5.11852e-09
5.15499e-09
5.16047e-09
5.12008e-09
5.09754e-09
4.96088e-09
4.70584e-09
4.29368e-09
3.64751e-09
3.34585e-09
2.2441e-09
8.96703e-10
4.74546e-10
1.25286e-09
1.96533e-09
2.09891e-09
2.50536e-09
2.72588e-09
2.88081e-09
2.94761e-09
2.96695e-09
2.9823e-09
2.98629e-09
2.96896e-09
2.95049e-09
2.88063e-09
2.72324e-09
2.50294e-09
2.10119e-09
1.96885e-09
1.25636e-09
4.76165e-10
2.47053e-10
6.87588e-10
1.15495e-09
1.2433e-09
1.42853e-09
1.5261e-09
1.61576e-09
1.64736e-09
1.6585e-09
1.66392e-09
1.66634e-09
1.66005e-09
1.64932e-09
1.61557e-09
1.52475e-09
1.4277e-09
1.24485e-09
1.15739e-09
6.89629e-10
2.47899e-10
1.25352e-10
3.66791e-10
6.47757e-10
6.96552e-10
8.31263e-10
8.86574e-10
9.48058e-10
9.63642e-10
9.72564e-10
9.73944e-10
9.75459e-10
9.7367e-10
9.64845e-10
9.47863e-10
8.85712e-10
8.30812e-10
6.97779e-10
6.49316e-10
3.67959e-10
1.2579e-10
6.14481e-11
1.87543e-10
3.4733e-10
3.81324e-10
4.58915e-10
4.81359e-10
5.13661e-10
5.20394e-10
5.24945e-10
5.24395e-10
5.25356e-10
5.25717e-10
5.21104e-10
5.13531e-10
4.80838e-10
4.58808e-10
3.82007e-10
3.48319e-10
1.88191e-10
6.16674e-11
2.89246e-11
9.09851e-11
1.70118e-10
1.90803e-10
2.3658e-10
2.50343e-10
2.71201e-10
2.73932e-10
2.77377e-10
2.76472e-10
2.77057e-10
2.7787e-10
2.74339e-10
2.71077e-10
2.50022e-10
2.3656e-10
1.91218e-10
1.70675e-10
9.13239e-11
2.90296e-11
1.30213e-11
4.19178e-11
7.95465e-11
8.87279e-11
1.09607e-10
1.15351e-10
1.2562e-10
1.26479e-10
1.28404e-10
1.27677e-10
1.28001e-10
1.28684e-10
1.26699e-10
1.2554e-10
1.1521e-10
1.09645e-10
8.8951e-11
7.9835e-11
4.20844e-11
1.30693e-11
5.56906e-12
1.82348e-11
3.52101e-11
3.90745e-11
4.82035e-11
5.03118e-11
5.47326e-11
5.49087e-11
5.57877e-11
5.53645e-11
5.55193e-11
5.59244e-11
5.50129e-11
5.46913e-11
5.02551e-11
4.82364e-11
3.91867e-11
3.535e-11
1.83117e-11
5.58989e-12
2.23857e-12
7.41169e-12
1.45696e-11
1.61046e-11
1.98696e-11
2.05669e-11
2.23948e-11
2.23719e-11
2.27573e-11
2.25222e-11
2.25946e-11
2.28219e-11
2.24183e-11
2.23718e-11
2.05438e-11
1.98898e-11
1.61568e-11
1.46325e-11
7.44466e-12
2.24711e-12
8.3112e-13
2.77915e-12
5.54539e-12
6.1184e-12
7.54745e-12
7.74663e-12
8.42416e-12
8.38567e-12
8.53476e-12
8.42899e-12
8.45844e-12
8.56098e-12
8.40389e-12
8.41434e-12
7.73828e-12
7.55727e-12
6.1405e-12
5.57126e-12
2.79216e-12
8.3437e-13
2.63808e-13
9.78132e-13
1.92044e-12
2.12257e-12
2.60826e-12
2.66026e-12
2.88076e-12
2.86285e-12
2.91098e-12
2.87406e-12
2.88412e-12
2.91999e-12
2.86939e-12
2.87705e-12
2.65757e-12
2.61218e-12
2.13102e-12
1.93007e-12
9.82932e-13
2.64869e-13
9.23734e-14
3.58155e-13
6.89505e-13
7.68275e-13
9.48713e-13
9.52472e-13
1.03452e-12
1.01795e-12
1.03947e-12
1.01757e-12
1.02246e-12
1.04373e-12
1.02043e-12
1.03307e-12
9.51659e-13
9.51052e-13
7.7169e-13
6.93209e-13
3.60006e-13
9.2761e-14
)
;

boundaryField
{
    fuel
    {
        type            fixedValue;
        value           nonuniform 0();
    }
    wall
    {
        type            zeroGradient;
    }
    outlet
    {
        type            zeroGradient;
    }
    frontAndBack
    {
        type            empty;
    }
    procBoundary1to0
    {
        type            processor;
        value           nonuniform List<scalar> 
21
(
3.01853e-09
6.84351e-09
9.32913e-09
1.00816e-08
1.19097e-08
1.32893e-08
1.40138e-08
1.44933e-08
1.45229e-08
1.46765e-08
8.72817e-09
8.72817e-09
8.64256e-09
8.61813e-09
8.35847e-09
7.93448e-09
7.17991e-09
6.10884e-09
5.64697e-09
3.95613e-09
1.66041e-09
)
;
    }
}


// ************************************************************************* //
