/*--------------------------------*- C++ -*----------------------------------*\
| =========                 |                                                 |
| \\      /  F ield         | OpenFOAM: The Open Source CFD Toolbox           |
|  \\    /   O peration     | Version:  dev                                   |
|   \\  /    A nd           | Web:      www.OpenFOAM.org                      |
|    \\/     M anipulation  |                                                 |
\*---------------------------------------------------------------------------*/
FoamFile
{
    version     2.0;
    format      ascii;
    class       volScalarField;
    location    "0.005";
    object      c-C6H4;
}
// * * * * * * * * * * * * * * * * * * * * * * * * * * * * * * * * * * * * * //

dimensions      [0 0 0 0 0 0 0];

internalField   nonuniform List<scalar> 
250
(
2.88328e-11
9.25115e-11
1.91358e-10
2.85105e-10
3.67208e-10
4.02045e-10
4.22432e-10
4.27909e-10
4.2991e-10
4.28765e-10
1.86431e-11
6.04013e-11
1.23633e-10
1.82373e-10
2.32813e-10
2.52843e-10
2.65368e-10
2.68054e-10
2.69535e-10
2.68506e-10
2.68908e-10
2.69948e-10
2.68105e-10
2.6488e-10
2.52273e-10
2.32496e-10
1.82593e-10
1.23824e-10
6.05172e-11
1.86838e-11
1.16992e-11
3.86425e-11
7.94632e-11
1.14086e-10
1.45883e-10
1.57567e-10
1.65669e-10
1.66939e-10
1.68038e-10
1.67218e-10
1.67497e-10
1.68337e-10
1.67016e-10
1.65373e-10
1.57247e-10
1.45763e-10
1.1426e-10
7.96089e-11
3.87275e-11
1.17272e-11
7.06505e-12
2.39401e-11
5.0846e-11
7.31883e-11
9.02429e-11
9.59902e-11
1.01036e-10
1.01582e-10
1.02226e-10
1.01627e-10
1.01812e-10
1.02433e-10
1.01657e-10
1.00866e-10
9.58205e-11
9.01968e-11
7.33084e-11
5.09531e-11
2.39993e-11
7.08328e-12
4.07122e-12
1.42013e-11
3.09977e-11
4.45127e-11
5.66688e-11
6.03033e-11
6.40498e-11
6.42786e-11
6.48169e-11
6.43692e-11
6.44923e-11
6.49575e-11
6.43307e-11
6.39424e-11
6.01957e-11
5.66377e-11
4.46038e-11
3.10698e-11
1.42398e-11
4.08234e-12
2.21456e-12
7.93833e-12
1.79479e-11
2.62932e-11
3.37113e-11
3.54497e-11
3.7611e-11
3.76706e-11
3.7965e-11
3.76408e-11
3.7722e-11
3.80564e-11
3.77048e-11
3.7547e-11
3.5383e-11
3.37031e-11
2.63424e-11
1.79952e-11
7.96196e-12
2.22091e-12
1.12937e-12
4.13217e-12
9.41691e-12
1.41075e-11
1.86414e-11
1.97997e-11
2.1319e-11
2.13142e-11
2.15538e-11
2.1336e-11
2.13877e-11
2.16104e-11
2.13356e-11
2.12782e-11
1.9758e-11
1.8639e-11
1.41369e-11
9.44472e-12
4.14553e-12
1.13274e-12
5.37751e-13
2.00251e-12
4.63351e-12
6.9501e-12
9.20208e-12
9.74977e-12
1.05647e-11
1.05413e-11
1.06849e-11
1.05579e-11
1.05877e-11
1.07163e-11
1.05541e-11
1.05425e-11
9.72927e-12
9.20396e-12
6.96618e-12
4.64849e-12
2.00947e-12
5.39415e-13
2.37458e-13
8.97047e-13
2.11496e-12
3.18491e-12
4.24082e-12
4.47168e-12
4.85169e-12
4.82924e-12
4.89928e-12
4.83412e-12
4.84903e-12
4.91469e-12
4.83571e-12
4.84079e-12
4.46236e-12
4.24273e-12
3.19316e-12
2.12243e-12
9.00378e-13
2.38219e-13
9.62246e-14
3.67146e-13
8.82903e-13
1.33792e-12
1.79553e-12
1.88397e-12
2.05125e-12
2.03539e-12
2.0678e-12
2.03558e-12
2.04269e-12
2.075e-12
2.03842e-12
2.04605e-12
1.87994e-12
1.7968e-12
1.3418e-12
8.86297e-13
3.68597e-13
9.65449e-14
3.51879e-14
1.35375e-13
3.31136e-13
5.06134e-13
6.84597e-13
7.14537e-13
7.79126e-13
7.71102e-13
7.84029e-13
7.70476e-13
7.73391e-13
7.86907e-13
7.72307e-13
7.77019e-13
7.12993e-13
6.85235e-13
5.07766e-13
3.32517e-13
1.35945e-13
3.53104e-14
1.06567e-14
4.5589e-14
1.10009e-13
1.70036e-13
2.30899e-13
2.40174e-13
2.61479e-13
2.58598e-13
2.6275e-13
2.58228e-13
2.59211e-13
2.63709e-13
2.59026e-13
2.60731e-13
2.3966e-13
2.3115e-13
1.70643e-13
1.10506e-13
4.57929e-14
1.06958e-14
3.48105e-15
1.54805e-14
3.67112e-14
5.76052e-14
7.92295e-14
8.12653e-14
8.90059e-14
8.71895e-14
8.90155e-14
8.67289e-14
8.71817e-14
8.94313e-14
8.73453e-14
8.87399e-14
8.11015e-14
7.93935e-14
5.78388e-14
3.68916e-14
1.5555e-14
3.49478e-15
)
;

boundaryField
{
    fuel
    {
        type            fixedValue;
        value           nonuniform 0();
    }
    wall
    {
        type            zeroGradient;
    }
    outlet
    {
        type            zeroGradient;
    }
    frontAndBack
    {
        type            empty;
    }
    procBoundary1to0
    {
        type            processor;
        value           nonuniform List<scalar> 
21
(
4.33556e-11
1.38507e-10
2.9257e-10
4.44867e-10
5.80475e-10
6.43181e-10
6.78674e-10
6.89525e-10
6.92286e-10
6.9119e-10
4.29295e-10
4.29295e-10
4.30413e-10
4.27827e-10
4.2156e-10
4.00961e-10
3.66534e-10
2.85309e-10
1.91559e-10
9.26477e-11
2.88831e-11
)
;
    }
}


// ************************************************************************* //
