/*--------------------------------*- C++ -*----------------------------------*\
| =========                 |                                                 |
| \\      /  F ield         | OpenFOAM: The Open Source CFD Toolbox           |
|  \\    /   O peration     | Version:  dev                                   |
|   \\  /    A nd           | Web:      www.OpenFOAM.org                      |
|    \\/     M anipulation  |                                                 |
\*---------------------------------------------------------------------------*/
FoamFile
{
    version     2.0;
    format      ascii;
    class       volScalarField;
    location    "0.005";
    object      C2O;
}
// * * * * * * * * * * * * * * * * * * * * * * * * * * * * * * * * * * * * * //

dimensions      [0 0 0 0 0 0 0];

internalField   nonuniform List<scalar> 
25
(
2.22012e-07
1.40867e-07
8.20367e-08
4.34299e-08
1.98101e-08
7.19136e-09
2.02265e-09
4.52352e-10
8.38989e-11
1.46013e-11
2.8668e-12
6.99007e-13
2.19317e-13
5.97832e-14
2.02409e-14
9.6299e-15
5.03892e-15
2.49555e-15
1.02739e-15
3.6407e-16
1.69435e-16
6.32088e-17
1.47878e-17
3.13917e-18
6.21698e-19
)
;

boundaryField
{
    wall
    {
        type            zeroGradient;
    }
    fuel
    {
        type            fixedValue;
        value           nonuniform 0();
    }
    outlet
    {
        type            inletOutlet;
        inletValue      nonuniform 0();
        value           nonuniform 0();
    }
    procBoundary1to0
    {
        type            processor;
        value           uniform 3.19296e-07;
    }
    procBoundary1to2
    {
        type            processor;
        value           uniform 1.25699e-19;
    }
}


// ************************************************************************* //
