/*--------------------------------*- C++ -*----------------------------------*\
| =========                 |                                                 |
| \\      /  F ield         | OpenFOAM: The Open Source CFD Toolbox           |
|  \\    /   O peration     | Version:  dev                                   |
|   \\  /    A nd           | Web:      www.OpenFOAM.org                      |
|    \\/     M anipulation  |                                                 |
\*---------------------------------------------------------------------------*/
FoamFile
{
    version     2.0;
    format      ascii;
    class       volScalarField;
    location    "0.005";
    object      C6H5OH;
}
// * * * * * * * * * * * * * * * * * * * * * * * * * * * * * * * * * * * * * //

dimensions      [0 0 0 0 0 0 0];

internalField   nonuniform List<scalar> 
250
(
7.1581e-10
1.23774e-09
1.73031e-09
2.06478e-09
2.34721e-09
2.4695e-09
2.54678e-09
2.58009e-09
2.61011e-09
2.61462e-09
3.93768e-10
6.79484e-10
9.68205e-10
1.15651e-09
1.31397e-09
1.38051e-09
1.42457e-09
1.44231e-09
1.45981e-09
1.46222e-09
1.465e-09
1.45931e-09
1.44203e-09
1.42567e-09
1.38454e-09
1.3184e-09
1.16141e-09
9.71271e-10
6.81728e-10
3.95229e-10
2.10526e-10
3.80677e-10
5.23135e-10
6.22792e-10
7.13183e-10
7.48533e-10
7.7363e-10
7.83243e-10
7.93227e-10
7.9448e-10
7.95563e-10
7.91808e-10
7.81837e-10
7.72992e-10
7.49839e-10
7.15004e-10
6.25073e-10
5.2446e-10
3.82006e-10
2.11074e-10
1.10133e-10
2.00332e-10
2.92353e-10
3.29672e-10
3.73265e-10
3.89364e-10
4.02502e-10
4.07262e-10
4.12243e-10
4.12812e-10
4.1315e-10
4.1144e-10
4.05865e-10
4.02002e-10
3.89812e-10
3.73798e-10
3.30736e-10
2.92985e-10
2.00866e-10
1.1044e-10
5.53402e-11
1.0428e-10
1.52912e-10
1.77933e-10
2.03491e-10
2.1256e-10
2.20425e-10
2.23048e-10
2.26092e-10
2.26436e-10
2.26574e-10
2.25668e-10
2.22146e-10
2.20157e-10
2.12745e-10
2.03746e-10
1.78564e-10
1.53209e-10
1.04524e-10
5.54942e-11
2.63146e-11
5.0641e-11
7.83295e-11
9.11922e-11
1.0255e-10
1.06385e-10
1.10505e-10
1.11942e-10
1.13367e-10
1.13557e-10
1.1358e-10
1.12978e-10
1.11278e-10
1.10279e-10
1.06394e-10
1.02732e-10
9.14368e-11
7.84757e-11
5.07471e-11
2.63845e-11
1.16304e-11
2.33524e-11
3.61917e-11
4.32839e-11
4.99146e-11
5.19618e-11
5.43931e-11
5.51221e-11
5.59584e-11
5.606e-11
5.60605e-11
5.56996e-11
5.47192e-11
5.418e-11
5.19803e-11
5.00127e-11
4.33948e-11
3.62502e-11
2.33984e-11
1.16576e-11
4.73912e-12
1.01364e-11
1.52713e-11
1.85955e-11
2.11656e-11
2.20838e-11
2.3216e-11
2.35355e-11
2.39435e-11
2.3986e-11
2.39767e-11
2.37955e-11
2.33052e-11
2.30694e-11
2.20694e-11
2.12063e-11
1.86403e-11
1.52972e-11
1.01504e-11
4.74846e-12
1.7953e-12
4.07467e-12
6.13223e-12
7.47141e-12
8.40712e-12
8.7705e-12
9.20716e-12
9.32769e-12
9.49069e-12
9.50579e-12
9.49914e-12
9.42559e-12
9.22033e-12
9.13313e-12
8.76156e-12
8.41907e-12
7.48964e-12
6.14216e-12
4.07935e-12
1.79834e-12
6.32747e-13
1.50713e-12
2.28685e-12
2.77985e-12
3.10155e-12
3.23276e-12
3.39565e-12
3.43974e-12
3.50225e-12
3.5078e-12
3.50374e-12
3.47434e-12
3.39114e-12
3.36074e-12
3.22833e-12
3.10534e-12
2.78585e-12
2.29019e-12
1.50859e-12
6.33653e-13
2.04753e-13
5.05682e-13
7.74654e-13
9.38257e-13
1.04024e-12
1.0801e-12
1.13481e-12
1.14876e-12
1.16955e-12
1.17118e-12
1.16951e-12
1.15957e-12
1.13078e-12
1.12159e-12
1.07816e-12
1.0416e-12
9.39895e-13
7.75767e-13
5.0593e-13
2.04978e-13
6.01284e-14
1.51663e-13
2.34041e-13
2.82258e-13
3.11193e-13
3.21811e-13
3.37824e-13
3.41714e-13
3.47745e-13
3.48092e-13
3.47553e-13
3.44575e-13
3.36015e-13
3.33552e-13
3.21118e-13
3.11445e-13
2.82619e-13
2.34343e-13
1.51674e-13
6.0179e-14
1.81661e-14
4.58464e-14
7.12121e-14
8.61283e-14
9.47637e-14
9.70451e-14
1.02212e-13
1.0341e-13
1.05268e-13
1.05431e-13
1.05154e-13
1.04135e-13
1.01241e-13
1.00585e-13
9.69216e-14
9.47959e-14
8.6175e-14
7.12837e-14
4.58316e-14
1.81766e-14
)
;

boundaryField
{
    fuel
    {
        type            fixedValue;
        value           nonuniform 0();
    }
    wall
    {
        type            zeroGradient;
    }
    outlet
    {
        type            zeroGradient;
    }
    frontAndBack
    {
        type            empty;
    }
    procBoundary1to0
    {
        type            processor;
        value           nonuniform List<scalar> 
21
(
1.26177e-09
2.17442e-09
3.02125e-09
3.58292e-09
4.09595e-09
4.32156e-09
4.45836e-09
4.5201e-09
4.57164e-09
4.58009e-09
2.61601e-09
2.61601e-09
2.60745e-09
2.57818e-09
2.54817e-09
2.47534e-09
2.35294e-09
2.07127e-09
1.73347e-09
1.24006e-09
7.17421e-10
)
;
    }
}


// ************************************************************************* //
