/*--------------------------------*- C++ -*----------------------------------*\
| =========                 |                                                 |
| \\      /  F ield         | OpenFOAM: The Open Source CFD Toolbox           |
|  \\    /   O peration     | Version:  dev                                   |
|   \\  /    A nd           | Web:      www.OpenFOAM.org                      |
|    \\/     M anipulation  |                                                 |
\*---------------------------------------------------------------------------*/
FoamFile
{
    version     2.0;
    format      ascii;
    class       volScalarField;
    location    "0.005";
    object      CH;
}
// * * * * * * * * * * * * * * * * * * * * * * * * * * * * * * * * * * * * * //

dimensions      [0 0 0 0 0 0 0];

internalField   nonuniform List<scalar> 
25
(
7.96912e-08
6.27899e-08
4.31432e-08
2.40825e-08
9.58487e-09
2.43635e-09
4.07135e-10
4.91941e-11
4.61777e-12
3.58687e-13
2.45634e-14
1.55218e-15
9.66895e-17
4.48295e-18
1.84952e-19
1.28722e-20
1.4379e-21
2.86284e-22
7.52902e-23
2.03679e-23
7.90204e-24
2.28165e-24
3.60257e-25
4.96353e-26
6.33741e-27
)
;

boundaryField
{
    wall
    {
        type            zeroGradient;
    }
    fuel
    {
        type            fixedValue;
        value           nonuniform 0();
    }
    outlet
    {
        type            inletOutlet;
        inletValue      nonuniform 0();
        value           nonuniform 0();
    }
    procBoundary1to0
    {
        type            processor;
        value           uniform 9.08928e-08;
    }
    procBoundary1to2
    {
        type            processor;
        value           uniform 8.22093e-28;
    }
}


// ************************************************************************* //
