/*--------------------------------*- C++ -*----------------------------------*\
| =========                 |                                                 |
| \\      /  F ield         | OpenFOAM: The Open Source CFD Toolbox           |
|  \\    /   O peration     | Version:  dev                                   |
|   \\  /    A nd           | Web:      www.OpenFOAM.org                      |
|    \\/     M anipulation  |                                                 |
\*---------------------------------------------------------------------------*/
FoamFile
{
    version     2.0;
    format      ascii;
    class       volScalarField;
    location    "0.005";
    object      CH2O;
}
// * * * * * * * * * * * * * * * * * * * * * * * * * * * * * * * * * * * * * //

dimensions      [0 0 0 0 0 0 0];

internalField   nonuniform List<scalar> 
25
(
5.26431e-05
8.75424e-05
0.000144421
0.000225849
0.000323824
0.000418253
0.00048307
0.000499653
0.000469846
0.000410246
0.000337827
0.000265177
0.00020493
0.000134139
8.71662e-05
5.83356e-05
3.72651e-05
2.09359e-05
9.94019e-06
4.38089e-06
2.49151e-06
1.25279e-06
4.79439e-07
1.80125e-07
6.65212e-08
)
;

boundaryField
{
    wall
    {
        type            zeroGradient;
    }
    fuel
    {
        type            fixedValue;
        value           nonuniform 0();
    }
    outlet
    {
        type            inletOutlet;
        inletValue      nonuniform 0();
        value           nonuniform 0();
    }
    procBoundary1to0
    {
        type            processor;
        value           uniform 3.27029e-05;
    }
    procBoundary1to2
    {
        type            processor;
        value           uniform 2.66851e-08;
    }
}


// ************************************************************************* //
