/*--------------------------------*- C++ -*----------------------------------*\
| =========                 |                                                 |
| \\      /  F ield         | OpenFOAM: The Open Source CFD Toolbox           |
|  \\    /   O peration     | Version:  dev                                   |
|   \\  /    A nd           | Web:      www.OpenFOAM.org                      |
|    \\/     M anipulation  |                                                 |
\*---------------------------------------------------------------------------*/
FoamFile
{
    version     2.0;
    format      ascii;
    class       volScalarField;
    location    "0.005";
    object      CH2O;
}
// * * * * * * * * * * * * * * * * * * * * * * * * * * * * * * * * * * * * * //

dimensions      [0 0 0 0 0 0 0];

internalField   nonuniform List<scalar> 
250
(
1.08383e-07
1.56525e-07
1.93336e-07
2.13998e-07
2.30556e-07
2.36825e-07
2.4137e-07
2.43268e-07
2.45162e-07
2.45554e-07
7.31413e-08
1.06983e-07
1.34951e-07
1.49613e-07
1.61314e-07
1.65519e-07
1.68836e-07
1.70124e-07
1.7154e-07
1.71818e-07
1.7184e-07
1.71188e-07
1.69742e-07
1.68589e-07
1.65607e-07
1.6152e-07
1.49897e-07
1.35117e-07
1.07133e-07
7.3267e-08
4.78653e-08
7.34919e-08
9.12428e-08
1.01239e-07
1.09887e-07
1.12688e-07
1.15142e-07
1.16044e-07
1.17086e-07
1.17279e-07
1.1728e-07
1.1675e-07
1.15675e-07
1.14873e-07
1.12697e-07
1.10002e-07
1.01421e-07
9.13389e-08
7.36289e-08
4.79265e-08
3.04478e-08
4.76839e-08
6.24658e-08
6.7113e-08
7.23651e-08
7.3966e-08
7.56077e-08
7.61901e-08
7.68619e-08
7.6984e-08
7.69612e-08
7.66412e-08
7.58595e-08
7.54212e-08
7.39525e-08
7.23973e-08
6.7222e-08
6.25231e-08
4.77452e-08
3.04929e-08
1.85289e-08
3.03013e-08
4.01381e-08
4.42989e-08
4.82913e-08
4.94834e-08
5.07384e-08
5.11495e-08
5.16779e-08
5.17696e-08
5.17457e-08
5.15187e-08
5.08976e-08
5.06052e-08
4.94669e-08
4.8309e-08
4.43801e-08
4.01692e-08
3.03319e-08
1.85548e-08
1.06527e-08
1.80177e-08
2.49954e-08
2.77198e-08
2.99431e-08
3.05738e-08
3.14026e-08
3.16943e-08
3.2011e-08
3.20738e-08
3.20477e-08
3.18676e-08
3.1486e-08
3.1294e-08
3.05456e-08
2.99652e-08
2.77553e-08
2.50131e-08
1.80318e-08
1.06654e-08
5.69967e-09
1.01653e-08
1.41381e-08
1.6092e-08
1.77286e-08
1.81687e-08
1.87796e-08
1.89661e-08
1.91968e-08
1.92378e-08
1.92184e-08
1.90912e-08
1.88155e-08
1.86845e-08
1.81557e-08
1.77438e-08
1.61124e-08
1.41449e-08
1.01717e-08
5.70458e-09
2.82263e-09
5.3965e-09
7.36706e-09
8.53286e-09
9.30727e-09
9.55723e-09
9.90959e-09
1.00127e-08
1.01508e-08
1.01725e-08
1.01587e-08
1.00825e-08
9.91178e-09
9.84044e-09
9.54318e-09
9.31459e-09
8.54284e-09
7.3711e-09
5.39721e-09
2.82409e-09
1.30367e-09
2.65554e-09
3.64604e-09
4.2282e-09
4.58043e-09
4.70221e-09
4.87271e-09
4.92182e-09
4.99078e-09
5.00095e-09
4.9929e-09
4.95443e-09
4.8648e-09
4.83201e-09
4.69407e-09
4.5825e-09
4.233e-09
3.64778e-09
2.65535e-09
1.30401e-09
5.61396e-10
1.20279e-09
1.67433e-09
1.93937e-09
2.09254e-09
2.14649e-09
2.22693e-09
2.24969e-09
2.28297e-09
2.28769e-09
2.28321e-09
2.2642e-09
2.21864e-09
2.2043e-09
2.14228e-09
2.0933e-09
1.9411e-09
1.67491e-09
1.20249e-09
5.61399e-10
2.22581e-10
4.95674e-10
6.99706e-10
8.09209e-10
8.71166e-10
8.91092e-10
9.25186e-10
9.34399e-10
9.48371e-10
9.50212e-10
9.48195e-10
9.40087e-10
9.20206e-10
9.14731e-10
8.8916e-10
8.71545e-10
8.09676e-10
6.99943e-10
4.9534e-10
2.22515e-10
8.0888e-11
1.84819e-10
2.63821e-10
3.04491e-10
3.2708e-10
3.33726e-10
3.46266e-10
3.4962e-10
3.54757e-10
3.55332e-10
3.5458e-10
3.51486e-10
3.4397e-10
3.42089e-10
3.32926e-10
3.27109e-10
3.04576e-10
2.63878e-10
1.84629e-10
8.08456e-11
3.10224e-11
7.15011e-11
1.03027e-10
1.19272e-10
1.28153e-10
1.2989e-10
1.35081e-10
1.36472e-10
1.38513e-10
1.38801e-10
1.38405e-10
1.37056e-10
1.33774e-10
1.33107e-10
1.29668e-10
1.28134e-10
1.1925e-10
1.03026e-10
7.14059e-11
3.09995e-11
)
;

boundaryField
{
    fuel
    {
        type            fixedValue;
        value           nonuniform 0();
    }
    wall
    {
        type            zeroGradient;
    }
    outlet
    {
        type            zeroGradient;
    }
    frontAndBack
    {
        type            empty;
    }
    procBoundary1to0
    {
        type            processor;
        value           nonuniform List<scalar> 
21
(
1.56296e-07
2.2244e-07
2.71907e-07
2.99641e-07
3.24251e-07
3.33899e-07
3.40381e-07
3.43225e-07
3.45817e-07
3.46376e-07
2.4551e-07
2.4551e-07
2.44718e-07
2.42795e-07
2.41128e-07
2.3698e-07
2.3082e-07
2.14348e-07
1.935e-07
1.56658e-07
1.085e-07
)
;
    }
}


// ************************************************************************* //
