/*--------------------------------*- C++ -*----------------------------------*\
| =========                 |                                                 |
| \\      /  F ield         | OpenFOAM: The Open Source CFD Toolbox           |
|  \\    /   O peration     | Version:  dev                                   |
|   \\  /    A nd           | Web:      www.OpenFOAM.org                      |
|    \\/     M anipulation  |                                                 |
\*---------------------------------------------------------------------------*/
FoamFile
{
    version     2.0;
    format      ascii;
    class       volScalarField;
    location    "0.005";
    object      CO2;
}
// * * * * * * * * * * * * * * * * * * * * * * * * * * * * * * * * * * * * * //

dimensions      [0 0 0 0 0 0 0];

internalField   nonuniform List<scalar> 
250
(
3.44008e-06
1.11504e-05
2.15288e-05
2.85469e-05
3.56068e-05
3.91616e-05
4.1323e-05
4.21967e-05
4.24345e-05
4.25536e-05
2.01205e-06
6.5888e-06
1.27347e-05
1.69206e-05
2.11164e-05
2.3109e-05
2.44153e-05
2.4873e-05
2.50436e-05
2.50811e-05
2.51186e-05
2.50637e-05
2.48804e-05
2.43871e-05
2.30623e-05
2.10773e-05
1.69313e-05
1.27502e-05
6.60164e-06
2.01718e-06
1.14748e-06
3.8173e-06
7.4623e-06
9.66117e-06
1.21636e-05
1.32568e-05
1.4054e-05
1.42832e-05
1.44014e-05
1.44039e-05
1.44272e-05
1.44157e-05
1.42898e-05
1.40359e-05
1.32305e-05
1.21461e-05
9.66968e-06
7.47285e-06
3.82493e-06
1.15009e-06
6.34019e-07
2.15124e-06
4.36916e-06
5.67404e-06
6.85305e-06
7.34515e-06
7.79862e-06
7.90546e-06
7.96954e-06
7.96082e-06
7.97382e-06
7.97862e-06
7.91025e-06
7.78791e-06
7.33098e-06
6.84482e-06
5.67901e-06
4.37602e-06
2.15571e-06
6.35401e-07
3.36921e-07
1.16849e-06
2.43837e-06
3.15167e-06
3.94711e-06
4.22782e-06
4.53272e-06
4.58417e-06
4.63141e-06
4.62022e-06
4.62765e-06
4.63701e-06
4.58683e-06
4.52587e-06
4.21902e-06
3.94191e-06
3.15556e-06
2.44255e-06
1.17108e-06
3.37671e-07
1.70405e-07
6.02629e-07
1.29929e-06
1.71037e-06
2.15605e-06
2.27339e-06
2.43165e-06
2.45288e-06
2.4762e-06
2.46535e-06
2.4697e-06
2.47972e-06
2.45442e-06
2.42779e-06
2.2683e-06
2.15373e-06
1.71222e-06
1.30193e-06
6.04114e-07
1.70807e-07
8.14866e-08
2.91729e-07
6.2897e-07
8.45412e-07
1.09808e-06
1.16957e-06
1.27037e-06
1.27838e-06
1.29526e-06
1.28727e-06
1.2898e-06
1.29739e-06
1.27929e-06
1.26809e-06
1.16669e-06
1.09702e-06
8.46557e-07
6.30478e-07
2.92529e-07
8.1691e-08
3.67115e-08
1.32697e-07
2.88392e-07
3.85903e-07
4.99971e-07
5.30291e-07
5.79382e-07
5.81549e-07
5.90733e-07
5.85926e-07
5.8729e-07
5.91913e-07
5.82111e-07
5.78262e-07
5.29019e-07
4.99695e-07
3.86536e-07
2.89179e-07
1.33099e-07
3.68092e-08
1.54878e-08
5.6373e-08
1.24025e-07
1.65484e-07
2.14567e-07
2.25994e-07
2.46838e-07
2.47028e-07
2.51116e-07
2.48692e-07
2.49329e-07
2.51676e-07
2.47309e-07
2.4634e-07
2.25476e-07
2.1452e-07
1.65812e-07
1.24408e-07
5.65601e-08
1.55313e-08
6.05777e-09
2.21254e-08
4.93563e-08
6.57741e-08
8.55232e-08
8.9447e-08
9.7884e-08
9.76036e-08
9.93402e-08
9.81414e-08
9.8434e-08
9.95981e-08
9.77336e-08
9.76629e-08
8.92441e-08
8.55332e-08
6.59292e-08
4.95268e-08
2.22051e-08
6.07573e-09
2.16117e-09
7.91529e-09
1.78621e-08
2.38196e-08
3.1055e-08
3.22442e-08
3.52757e-08
3.50695e-08
3.57145e-08
3.52203e-08
3.53354e-08
3.58145e-08
3.512e-08
3.5192e-08
3.21727e-08
3.10675e-08
2.38848e-08
1.79304e-08
7.946e-09
2.16791e-09
6.48134e-10
2.61862e-09
5.79771e-09
7.7533e-09
1.00949e-08
1.0426e-08
1.13689e-08
1.12902e-08
1.14872e-08
1.13285e-08
1.13655e-08
1.15191e-08
1.13077e-08
1.13407e-08
1.04036e-08
1.01009e-08
7.77748e-09
5.82204e-09
2.62947e-09
6.50264e-10
2.11455e-10
8.85562e-10
1.9143e-09
2.57665e-09
3.38009e-09
3.43546e-09
3.76288e-09
3.69937e-09
3.78167e-09
3.69625e-09
3.7135e-09
3.79598e-09
3.70554e-09
3.75317e-09
3.42861e-09
3.3855e-09
2.58594e-09
1.92308e-09
8.89506e-10
2.12201e-10
)
;

boundaryField
{
    fuel
    {
        type            fixedValue;
        value           nonuniform 0();
    }
    wall
    {
        type            zeroGradient;
    }
    outlet
    {
        type            zeroGradient;
    }
    frontAndBack
    {
        type            empty;
    }
    procBoundary1to0
    {
        type            processor;
        value           nonuniform List<scalar> 
21
(
5.71291e-06
1.83203e-05
3.53847e-05
4.70266e-05
5.86883e-05
6.49916e-05
6.86524e-05
7.02488e-05
7.05701e-05
7.08453e-05
4.2544e-05
4.2544e-05
4.23915e-05
4.21345e-05
4.12125e-05
3.90153e-05
3.54786e-05
2.85158e-05
2.15168e-05
1.11504e-05
3.4404e-06
)
;
    }
}


// ************************************************************************* //
