/*--------------------------------*- C++ -*----------------------------------*\
| =========                 |                                                 |
| \\      /  F ield         | OpenFOAM: The Open Source CFD Toolbox           |
|  \\    /   O peration     | Version:  dev                                   |
|   \\  /    A nd           | Web:      www.OpenFOAM.org                      |
|    \\/     M anipulation  |                                                 |
\*---------------------------------------------------------------------------*/
FoamFile
{
    version     2.0;
    format      ascii;
    class       volScalarField;
    location    "0.005";
    object      H2O2;
}
// * * * * * * * * * * * * * * * * * * * * * * * * * * * * * * * * * * * * * //

dimensions      [0 0 0 0 0 0 0];

internalField   nonuniform List<scalar> 
2000
(
5.05843e-05
5.0423e-05
5.04067e-05
5.04867e-05
5.0597e-05
5.06777e-05
5.07035e-05
5.06912e-05
5.06081e-05
5.06712e-05
5.06631e-05
5.06597e-05
5.06616e-05
5.0668e-05
5.06769e-05
5.06867e-05
5.06969e-05
5.07046e-05
5.07102e-05
5.07132e-05
5.07163e-05
5.07176e-05
5.07197e-05
5.072e-05
5.07202e-05
5.07202e-05
5.072e-05
5.07198e-05
5.07189e-05
5.07163e-05
5.07146e-05
5.071e-05
5.07049e-05
5.06971e-05
5.06868e-05
5.06769e-05
5.0668e-05
5.06614e-05
5.06596e-05
5.06631e-05
5.06711e-05
5.0608e-05
5.06909e-05
5.07031e-05
5.0677e-05
5.05967e-05
5.04868e-05
5.04071e-05
5.04233e-05
5.05857e-05
3.85438e-05
3.51252e-05
3.40687e-05
3.29202e-05
3.15603e-05
3.03232e-05
2.93297e-05
2.8574e-05
2.79715e-05
2.7554e-05
2.71834e-05
2.68942e-05
2.66497e-05
2.64356e-05
2.62596e-05
2.61049e-05
2.59888e-05
2.59093e-05
2.58576e-05
2.58261e-05
2.58045e-05
2.57899e-05
2.57804e-05
2.57751e-05
2.57724e-05
2.57727e-05
2.57751e-05
2.57795e-05
2.57874e-05
2.57996e-05
2.58205e-05
2.58541e-05
2.59064e-05
2.59875e-05
2.6105e-05
2.62605e-05
2.64374e-05
2.66525e-05
2.68981e-05
2.71883e-05
2.756e-05
2.79786e-05
2.85825e-05
2.93399e-05
3.03351e-05
3.15749e-05
3.29372e-05
3.40879e-05
3.51457e-05
3.85602e-05
1.0637e-05
9.67919e-06
9.39335e-06
9.09098e-06
8.73599e-06
8.41048e-06
8.14465e-06
7.94113e-06
7.77752e-06
7.66309e-06
7.56192e-06
7.48284e-06
7.41635e-06
7.35824e-06
7.31074e-06
7.26903e-06
7.23787e-06
7.21655e-06
7.20266e-06
7.19424e-06
7.18843e-06
7.18453e-06
7.18196e-06
7.18054e-06
7.17982e-06
7.17988e-06
7.18053e-06
7.1817e-06
7.18384e-06
7.1871e-06
7.19274e-06
7.20173e-06
7.21579e-06
7.23754e-06
7.26907e-06
7.31099e-06
7.35873e-06
7.41712e-06
7.48387e-06
7.56324e-06
7.66469e-06
7.77945e-06
7.94338e-06
8.14736e-06
8.4136e-06
8.73989e-06
9.09559e-06
9.3986e-06
9.68483e-06
1.06416e-05
3.11901e-06
2.84145e-06
2.76345e-06
2.68525e-06
2.59476e-06
2.5092e-06
2.43679e-06
2.3799e-06
2.33349e-06
2.30061e-06
2.27166e-06
2.24884e-06
2.22975e-06
2.21314e-06
2.19962e-06
2.18778e-06
2.17899e-06
2.17298e-06
2.16906e-06
2.16669e-06
2.16504e-06
2.16395e-06
2.16322e-06
2.16282e-06
2.16261e-06
2.16263e-06
2.16281e-06
2.16314e-06
2.16375e-06
2.16467e-06
2.16626e-06
2.1688e-06
2.17276e-06
2.17891e-06
2.1878e-06
2.1997e-06
2.21328e-06
2.22997e-06
2.24913e-06
2.27204e-06
2.30106e-06
2.33403e-06
2.38052e-06
2.43752e-06
2.51004e-06
2.59582e-06
2.68652e-06
2.7649e-06
2.843e-06
3.12029e-06
9.69726e-07
8.83416e-07
8.61076e-07
8.40433e-07
8.17421e-07
7.94296e-07
7.73785e-07
7.57047e-07
7.43086e-07
7.33006e-07
7.24092e-07
7.17042e-07
7.11186e-07
7.06109e-07
7.02007e-07
6.9843e-07
6.95787e-07
6.93983e-07
6.92805e-07
6.92098e-07
6.91601e-07
6.91275e-07
6.91052e-07
6.90934e-07
6.90869e-07
6.90872e-07
6.90927e-07
6.91025e-07
6.9121e-07
6.91485e-07
6.91968e-07
6.92729e-07
6.93921e-07
6.95764e-07
6.98438e-07
7.0203e-07
7.06152e-07
7.11252e-07
7.17129e-07
7.24207e-07
7.33144e-07
7.43246e-07
7.57227e-07
7.73993e-07
7.94528e-07
8.17723e-07
8.40798e-07
8.61499e-07
8.83866e-07
9.70104e-07
3.15237e-07
2.86936e-07
2.80321e-07
2.74938e-07
2.6944e-07
2.63313e-07
2.57405e-07
2.52304e-07
2.47912e-07
2.44652e-07
2.41754e-07
2.39446e-07
2.37543e-07
2.35901e-07
2.34586e-07
2.33443e-07
2.32605e-07
2.32033e-07
2.31659e-07
2.31436e-07
2.31278e-07
2.31175e-07
2.31104e-07
2.31067e-07
2.31045e-07
2.31046e-07
2.31063e-07
2.31094e-07
2.31153e-07
2.3124e-07
2.31394e-07
2.31636e-07
2.32015e-07
2.32599e-07
2.33447e-07
2.34594e-07
2.35915e-07
2.37564e-07
2.39474e-07
2.41791e-07
2.44696e-07
2.47962e-07
2.52358e-07
2.57466e-07
2.63379e-07
2.69529e-07
2.75048e-07
2.8045e-07
2.87072e-07
3.15353e-07
1.0828e-07
9.84662e-08
9.64088e-08
9.50281e-08
9.38917e-08
9.23093e-08
9.05703e-08
8.8939e-08
8.74745e-08
8.63477e-08
8.53375e-08
8.45261e-08
8.3859e-08
8.32872e-08
8.28335e-08
8.24406e-08
8.21543e-08
8.19587e-08
8.18305e-08
8.17548e-08
8.17002e-08
8.16657e-08
8.16409e-08
8.16282e-08
8.16205e-08
8.16205e-08
8.16264e-08
8.16367e-08
8.16573e-08
8.16871e-08
8.17403e-08
8.18228e-08
8.19528e-08
8.21528e-08
8.24425e-08
8.28366e-08
8.32922e-08
8.38664e-08
8.45358e-08
8.53504e-08
8.63627e-08
8.74911e-08
8.89563e-08
9.05886e-08
9.23288e-08
9.39192e-08
9.50633e-08
9.64509e-08
9.85093e-08
1.08318e-07
4.00174e-08
3.63901e-08
3.56955e-08
3.53445e-08
3.52054e-08
3.48132e-08
3.42883e-08
3.37252e-08
3.31936e-08
3.27715e-08
3.23855e-08
3.20722e-08
3.18096e-08
3.15902e-08
3.14167e-08
3.12664e-08
3.11573e-08
3.10826e-08
3.10336e-08
3.10049e-08
3.09839e-08
3.0971e-08
3.09614e-08
3.09565e-08
3.09535e-08
3.09534e-08
3.09556e-08
3.09595e-08
3.09674e-08
3.09788e-08
3.09993e-08
3.10308e-08
3.10806e-08
3.1157e-08
3.12673e-08
3.1418e-08
3.15922e-08
3.18124e-08
3.20762e-08
3.23905e-08
3.27772e-08
3.31998e-08
3.37312e-08
3.42942e-08
3.48195e-08
3.52148e-08
3.5357e-08
3.57107e-08
3.64051e-08
4.00303e-08
1.6366e-08
1.49172e-08
1.46486e-08
1.4555e-08
1.46005e-08
1.4508e-08
1.43638e-08
1.41433e-08
1.39249e-08
1.37573e-08
1.35922e-08
1.34571e-08
1.33321e-08
1.32374e-08
1.31618e-08
1.30952e-08
1.30468e-08
1.30137e-08
1.29919e-08
1.29793e-08
1.297e-08
1.29643e-08
1.296e-08
1.29579e-08
1.29565e-08
1.29564e-08
1.29573e-08
1.29591e-08
1.29626e-08
1.29676e-08
1.29768e-08
1.29908e-08
1.30129e-08
1.30468e-08
1.30957e-08
1.31625e-08
1.32384e-08
1.33333e-08
1.3459e-08
1.35943e-08
1.37598e-08
1.39274e-08
1.41457e-08
1.43658e-08
1.45105e-08
1.46043e-08
1.45602e-08
1.46549e-08
1.49233e-08
1.63712e-08
7.59383e-09
6.95841e-09
6.83413e-09
6.80486e-09
6.8638e-09
6.84389e-09
6.72898e-09
6.62863e-09
6.52224e-09
6.46808e-09
6.37809e-09
6.3021e-09
6.20084e-09
6.1476e-09
6.10694e-09
6.07307e-09
6.04925e-09
6.03297e-09
6.02232e-09
6.0161e-09
6.01156e-09
6.00879e-09
6.00668e-09
6.0056e-09
6.00491e-09
6.00485e-09
6.0053e-09
6.00614e-09
6.00786e-09
6.01038e-09
6.01487e-09
6.02177e-09
6.03265e-09
6.04932e-09
6.07339e-09
6.10733e-09
6.14812e-09
6.20167e-09
6.30319e-09
6.37936e-09
6.4695e-09
6.52369e-09
6.62996e-09
6.73059e-09
6.8451e-09
6.86569e-09
6.80751e-09
6.83734e-09
6.9614e-09
7.59649e-09
4.02157e-09
3.70896e-09
3.64058e-09
3.62988e-09
3.67811e-09
3.67642e-09
3.62439e-09
3.57064e-09
3.51066e-09
3.42008e-09
3.3704e-09
3.32969e-09
3.32862e-09
3.29805e-09
3.27428e-09
3.25414e-09
3.24067e-09
3.232e-09
3.22629e-09
3.22296e-09
3.22051e-09
3.21903e-09
3.21788e-09
3.2173e-09
3.21692e-09
3.21689e-09
3.21712e-09
3.21758e-09
3.21851e-09
3.21987e-09
3.22229e-09
3.226e-09
3.23184e-09
3.24072e-09
3.25435e-09
3.27454e-09
3.29837e-09
3.32906e-09
3.33001e-09
3.3711e-09
3.42087e-09
3.51148e-09
3.57137e-09
3.62526e-09
3.67716e-09
3.67926e-09
3.63147e-09
3.64248e-09
3.7107e-09
4.02327e-09
2.37028e-09
2.21299e-09
2.17045e-09
2.16781e-09
2.20807e-09
2.21216e-09
2.18871e-09
2.15724e-09
2.11954e-09
2.07166e-09
2.04113e-09
2.01696e-09
2.00999e-09
1.99058e-09
1.97527e-09
1.96204e-09
1.95123e-09
1.94312e-09
1.9379e-09
1.93487e-09
1.93272e-09
1.9314e-09
1.93042e-09
1.92989e-09
1.92955e-09
1.92951e-09
1.92971e-09
1.93011e-09
1.93091e-09
1.93213e-09
1.9343e-09
1.93767e-09
1.94304e-09
1.95132e-09
1.96221e-09
1.97545e-09
1.9908e-09
2.01025e-09
2.01684e-09
2.04156e-09
2.07216e-09
2.12003e-09
2.15764e-09
2.18924e-09
2.21267e-09
2.20884e-09
2.16887e-09
2.17171e-09
2.21413e-09
2.37154e-09
1.53204e-09
1.43336e-09
1.40493e-09
1.40763e-09
1.44439e-09
1.45062e-09
1.44461e-09
1.42548e-09
1.39056e-09
1.35991e-09
1.33593e-09
1.31817e-09
1.30993e-09
1.29688e-09
1.28678e-09
1.27789e-09
1.2707e-09
1.26554e-09
1.2622e-09
1.26027e-09
1.2589e-09
1.25806e-09
1.25744e-09
1.2571e-09
1.25688e-09
1.25685e-09
1.25697e-09
1.25723e-09
1.25774e-09
1.25851e-09
1.2599e-09
1.26206e-09
1.26549e-09
1.27077e-09
1.27801e-09
1.28691e-09
1.29704e-09
1.31011e-09
1.31796e-09
1.3363e-09
1.36035e-09
1.39106e-09
1.42591e-09
1.44496e-09
1.45099e-09
1.44495e-09
1.40838e-09
1.40582e-09
1.43416e-09
1.53302e-09
1.04102e-09
9.76098e-10
9.56041e-10
9.60367e-10
9.93023e-10
1.01129e-09
9.99941e-10
9.89353e-10
9.78541e-10
9.46937e-10
9.31647e-10
9.20415e-10
9.1344e-10
9.04714e-10
8.97947e-10
8.91907e-10
8.871e-10
8.83749e-10
8.81583e-10
8.80333e-10
8.79448e-10
8.78908e-10
8.78503e-10
8.78282e-10
8.78135e-10
8.78108e-10
8.7819e-10
8.78355e-10
8.78689e-10
8.79188e-10
8.80093e-10
8.81497e-10
8.83732e-10
8.87158e-10
8.92001e-10
8.98049e-10
9.04824e-10
9.13552e-10
9.20192e-10
9.31899e-10
9.47253e-10
9.78905e-10
9.89631e-10
1.00018e-09
1.01158e-09
9.93361e-10
9.60921e-10
9.56692e-10
9.76682e-10
1.04181e-09
7.36041e-10
6.89989e-10
6.75522e-10
6.81186e-10
7.10134e-10
7.30843e-10
7.22654e-10
7.18973e-10
7.13754e-10
6.90848e-10
6.82366e-10
6.75375e-10
6.70121e-10
6.6435e-10
6.59912e-10
6.55889e-10
6.52761e-10
6.50623e-10
6.49243e-10
6.48455e-10
6.47895e-10
6.47557e-10
6.473e-10
6.47158e-10
6.47058e-10
6.47036e-10
6.47086e-10
6.47189e-10
6.47405e-10
6.47719e-10
6.483e-10
6.49195e-10
6.50625e-10
6.5281e-10
6.55965e-10
6.5999e-10
6.64429e-10
6.70197e-10
6.75212e-10
6.82543e-10
6.91085e-10
7.13871e-10
7.19149e-10
7.2282e-10
7.3094e-10
7.10379e-10
6.81597e-10
6.76006e-10
6.90423e-10
7.36653e-10
5.35311e-10
5.00886e-10
4.90319e-10
4.96854e-10
5.23101e-10
5.42871e-10
5.46864e-10
5.40994e-10
5.39273e-10
5.2976e-10
5.19511e-10
5.1547e-10
5.11963e-10
5.08338e-10
5.05622e-10
5.031e-10
5.01195e-10
4.99923e-10
4.99104e-10
4.98646e-10
4.98317e-10
4.98123e-10
4.97972e-10
4.97886e-10
4.97819e-10
4.978e-10
4.97828e-10
4.97887e-10
4.98018e-10
4.98202e-10
4.9855e-10
4.99083e-10
4.99939e-10
5.01241e-10
5.0316e-10
5.05681e-10
5.08394e-10
5.12014e-10
5.15373e-10
5.19636e-10
5.29956e-10
5.39304e-10
5.411e-10
5.46977e-10
5.42931e-10
5.23276e-10
4.9716e-10
4.90683e-10
5.01212e-10
5.35783e-10
3.978e-10
3.71227e-10
3.63443e-10
3.70409e-10
3.9439e-10
4.1354e-10
4.21104e-10
4.18515e-10
4.20019e-10
4.1628e-10
4.08597e-10
4.06909e-10
4.04994e-10
4.03005e-10
4.01623e-10
4.00238e-10
3.99264e-10
3.98634e-10
3.98231e-10
3.98019e-10
3.9786e-10
3.97774e-10
3.977e-10
3.97656e-10
3.97613e-10
3.97596e-10
3.97607e-10
3.97635e-10
3.97703e-10
3.97789e-10
3.97966e-10
3.9823e-10
3.98658e-10
3.99306e-10
4.00286e-10
4.01668e-10
4.03041e-10
4.05027e-10
4.06857e-10
4.08684e-10
4.16312e-10
4.1996e-10
4.18573e-10
4.21123e-10
4.13569e-10
3.94511e-10
3.70638e-10
3.63721e-10
3.71474e-10
3.98159e-10
3.00918e-10
2.80106e-10
2.74278e-10
2.81312e-10
3.03241e-10
3.21854e-10
3.31575e-10
3.35651e-10
3.35936e-10
3.35487e-10
3.307e-10
3.31118e-10
3.30602e-10
3.29901e-10
3.29587e-10
3.29092e-10
3.28832e-10
3.28697e-10
3.28613e-10
3.28589e-10
3.28561e-10
3.28558e-10
3.28543e-10
3.2853e-10
3.28506e-10
3.2849e-10
3.28489e-10
3.28491e-10
3.28511e-10
3.28524e-10
3.28569e-10
3.28627e-10
3.28728e-10
3.28871e-10
3.2913e-10
3.29619e-10
3.29921e-10
3.3062e-10
3.31092e-10
3.30762e-10
3.35495e-10
3.358e-10
3.35679e-10
3.31566e-10
3.21858e-10
3.03322e-10
2.81484e-10
2.74492e-10
2.80297e-10
3.01186e-10
2.31239e-10
2.14859e-10
2.10608e-10
2.17275e-10
2.37278e-10
2.55348e-10
2.66627e-10
2.73295e-10
2.74954e-10
2.77458e-10
2.77344e-10
2.77101e-10
2.77792e-10
2.78129e-10
2.78697e-10
2.78909e-10
2.79216e-10
2.79467e-10
2.79636e-10
2.7976e-10
2.79834e-10
2.79896e-10
2.79927e-10
2.79939e-10
2.79929e-10
2.79914e-10
2.79903e-10
2.79886e-10
2.79868e-10
2.79823e-10
2.79765e-10
2.7966e-10
2.79504e-10
2.79252e-10
2.78939e-10
2.78719e-10
2.78137e-10
2.77796e-10
2.77085e-10
2.77392e-10
2.77451e-10
2.74829e-10
2.73252e-10
2.66597e-10
2.55331e-10
2.3733e-10
2.17405e-10
2.10776e-10
2.15007e-10
2.31437e-10
1.80325e-10
1.67549e-10
1.64363e-10
1.70546e-10
1.88709e-10
2.06197e-10
2.18599e-10
2.2694e-10
2.3184e-10
2.35033e-10
2.37252e-10
2.37905e-10
2.39695e-10
2.40889e-10
2.42202e-10
2.42988e-10
2.43751e-10
2.44309e-10
2.44681e-10
2.44924e-10
2.4508e-10
2.45195e-10
2.45263e-10
2.45294e-10
2.45296e-10
2.45282e-10
2.45263e-10
2.4523e-10
2.45181e-10
2.45089e-10
2.44949e-10
2.44712e-10
2.4435e-10
2.43783e-10
2.43012e-10
2.42215e-10
2.40887e-10
2.39687e-10
2.3789e-10
2.3723e-10
2.35018e-10
2.31936e-10
2.26882e-10
2.1855e-10
2.06164e-10
1.88738e-10
1.70644e-10
1.64498e-10
1.67669e-10
1.80469e-10
1.42648e-10
1.33245e-10
1.30778e-10
1.36075e-10
1.52427e-10
1.69295e-10
1.82488e-10
1.92171e-10
1.9963e-10
2.0351e-10
2.07235e-10
2.09008e-10
2.11845e-10
2.13756e-10
2.1571e-10
2.16976e-10
2.18106e-10
2.18909e-10
2.19448e-10
2.19791e-10
2.20012e-10
2.20171e-10
2.20269e-10
2.20317e-10
2.20328e-10
2.20315e-10
2.20289e-10
2.20243e-10
2.20168e-10
2.20039e-10
2.19831e-10
2.19485e-10
2.18955e-10
2.18136e-10
2.16994e-10
2.15717e-10
2.13744e-10
2.11827e-10
2.08991e-10
2.07203e-10
2.03482e-10
1.9969e-10
1.921e-10
1.82425e-10
1.69247e-10
1.52442e-10
1.36151e-10
1.3089e-10
1.33345e-10
1.42752e-10
1.14741e-10
1.08104e-10
1.06151e-10
1.10423e-10
1.25012e-10
1.41184e-10
1.54933e-10
1.65693e-10
1.74229e-10
1.7972e-10
1.84778e-10
1.88443e-10
1.91252e-10
1.93764e-10
1.96278e-10
1.97953e-10
1.99385e-10
2.00376e-10
2.01055e-10
2.01484e-10
2.01757e-10
2.01953e-10
2.02077e-10
2.02139e-10
2.02157e-10
2.02145e-10
2.02113e-10
2.02056e-10
2.01959e-10
2.01797e-10
2.01536e-10
2.01097e-10
2.00426e-10
1.99411e-10
1.97967e-10
1.96284e-10
1.93743e-10
1.91224e-10
1.88425e-10
1.84737e-10
1.79677e-10
1.74257e-10
1.6561e-10
1.54858e-10
1.41129e-10
1.25013e-10
1.10485e-10
1.06248e-10
1.08195e-10
1.14816e-10
9.36099e-11
8.97292e-11
8.80951e-11
9.12772e-11
1.04074e-10
1.19515e-10
1.33622e-10
1.45246e-10
1.54779e-10
1.615e-10
1.6777e-10
1.72651e-10
1.75838e-10
1.7889e-10
1.81872e-10
1.83906e-10
1.85604e-10
1.86715e-10
1.87523e-10
1.88025e-10
1.88338e-10
1.88564e-10
1.88711e-10
1.88785e-10
1.88809e-10
1.88797e-10
1.88761e-10
1.88694e-10
1.88578e-10
1.88391e-10
1.88085e-10
1.87568e-10
1.8677e-10
1.85627e-10
1.83917e-10
1.81891e-10
1.78861e-10
1.75801e-10
1.72593e-10
1.6772e-10
1.61442e-10
1.54758e-10
1.45154e-10
1.33538e-10
1.19454e-10
1.04067e-10
9.13292e-11
8.81834e-11
8.98144e-11
9.36618e-11
7.75683e-11
7.64196e-11
7.49473e-11
7.6949e-11
8.79508e-11
1.02626e-10
1.16934e-10
1.29247e-10
1.3967e-10
1.48083e-10
1.5474e-10
1.60332e-10
1.64151e-10
1.67715e-10
1.71064e-10
1.7343e-10
1.7536e-10
1.77015e-10
1.77937e-10
1.78497e-10
1.78841e-10
1.79085e-10
1.79251e-10
1.79336e-10
1.79365e-10
1.79353e-10
1.79312e-10
1.79236e-10
1.79104e-10
1.78903e-10
1.78563e-10
1.77983e-10
1.77077e-10
1.75379e-10
1.73438e-10
1.71144e-10
1.6768e-10
1.64106e-10
1.60272e-10
1.54682e-10
1.48012e-10
1.39611e-10
1.29146e-10
1.16842e-10
1.02559e-10
8.79387e-11
7.6996e-11
7.50327e-11
7.65048e-11
7.76079e-11
6.54491e-11
6.69834e-11
6.55296e-11
6.62521e-11
7.56206e-11
8.93302e-11
1.03714e-10
1.1657e-10
1.2777e-10
1.3708e-10
1.44621e-10
1.50859e-10
1.55613e-10
1.59222e-10
1.63243e-10
1.65913e-10
1.68019e-10
1.69777e-10
1.70793e-10
1.71413e-10
1.71793e-10
1.72029e-10
1.72212e-10
1.72307e-10
1.7234e-10
1.72328e-10
1.72283e-10
1.722e-10
1.72052e-10
1.71863e-10
1.71486e-10
1.70847e-10
1.69841e-10
1.68036e-10
1.65918e-10
1.6313e-10
1.59181e-10
1.55562e-10
1.50794e-10
1.44557e-10
1.36979e-10
1.27684e-10
1.16462e-10
1.03614e-10
8.92592e-11
7.56058e-11
6.62981e-11
6.56165e-11
6.70736e-11
6.54825e-11
5.62757e-11
6.05673e-11
5.89975e-11
5.83341e-11
6.59215e-11
7.87679e-11
9.31258e-11
1.06403e-10
1.18271e-10
1.283e-10
1.36657e-10
1.43479e-10
1.48713e-10
1.53015e-10
1.5724e-10
1.60228e-10
1.62472e-10
1.64204e-10
1.65264e-10
1.65919e-10
1.66373e-10
1.66739e-10
1.66939e-10
1.67043e-10
1.6708e-10
1.67068e-10
1.67019e-10
1.66928e-10
1.66765e-10
1.66448e-10
1.66001e-10
1.65316e-10
1.64271e-10
1.62491e-10
1.60232e-10
1.57181e-10
1.5297e-10
1.4865e-10
1.43409e-10
1.36587e-10
1.28189e-10
1.18168e-10
1.06288e-10
9.30193e-11
7.86944e-11
6.5904e-11
5.83822e-11
5.90897e-11
6.06665e-11
5.63079e-11
4.94127e-11
5.65551e-11
5.47386e-11
5.25758e-11
5.84142e-11
7.03106e-11
8.45551e-11
9.81522e-11
1.1059e-10
1.21212e-10
1.30636e-10
1.37648e-10
1.43514e-10
1.48197e-10
1.52594e-10
1.55673e-10
1.58048e-10
1.60055e-10
1.61188e-10
1.6189e-10
1.62376e-10
1.62707e-10
1.62906e-10
1.6301e-10
1.63048e-10
1.63036e-10
1.62987e-10
1.62896e-10
1.62734e-10
1.62454e-10
1.61981e-10
1.61246e-10
1.60118e-10
1.58075e-10
1.55675e-10
1.52551e-10
1.48146e-10
1.43446e-10
1.37573e-10
1.30564e-10
1.21092e-10
1.10474e-10
9.80316e-11
8.44425e-11
7.02368e-11
5.83984e-11
5.2629e-11
5.48394e-11
5.66669e-11
4.94481e-11
4.44026e-11
5.44987e-11
5.23052e-11
4.85229e-11
5.25596e-11
6.34916e-11
7.75437e-11
9.13776e-11
1.04296e-10
1.15422e-10
1.25776e-10
1.32949e-10
1.39373e-10
1.44232e-10
1.48854e-10
1.52303e-10
1.54752e-10
1.56733e-10
1.57888e-10
1.58631e-10
1.59134e-10
1.59476e-10
1.5969e-10
1.59802e-10
1.59843e-10
1.59831e-10
1.59778e-10
1.5968e-10
1.59505e-10
1.59217e-10
1.5873e-10
1.57949e-10
1.56797e-10
1.54782e-10
1.52305e-10
1.48808e-10
1.44179e-10
1.39299e-10
1.32869e-10
1.25683e-10
1.15294e-10
1.04171e-10
9.12522e-11
7.74254e-11
6.34202e-11
5.25472e-11
4.85837e-11
5.24173e-11
5.46261e-11
4.44451e-11
4.08999e-11
5.40695e-11
5.13663e-11
4.58392e-11
4.80194e-11
5.79604e-11
7.17455e-11
8.57508e-11
9.90682e-11
1.10622e-10
1.21601e-10
1.2928e-10
1.35858e-10
1.41012e-10
1.45748e-10
1.49629e-10
1.52125e-10
1.54189e-10
1.55393e-10
1.56171e-10
1.56683e-10
1.57039e-10
1.57266e-10
1.57387e-10
1.5743e-10
1.57418e-10
1.57362e-10
1.57257e-10
1.57071e-10
1.56769e-10
1.56277e-10
1.55457e-10
1.54253e-10
1.52158e-10
1.49628e-10
1.457e-10
1.40954e-10
1.35783e-10
1.29195e-10
1.21501e-10
1.10487e-10
9.8936e-11
8.56217e-11
7.16219e-11
5.78946e-11
4.80123e-11
4.59099e-11
5.14923e-11
5.42152e-11
4.0953e-11
3.86588e-11
5.50252e-11
5.16757e-11
4.42746e-11
4.45372e-11
5.34458e-11
6.69019e-11
8.10237e-11
9.46658e-11
1.0658e-10
1.18105e-10
1.26209e-10
1.33058e-10
1.38337e-10
1.43183e-10
1.47349e-10
1.49874e-10
1.52029e-10
1.53284e-10
1.54102e-10
1.54677e-10
1.55052e-10
1.55292e-10
1.5542e-10
1.55466e-10
1.55453e-10
1.55394e-10
1.55283e-10
1.55086e-10
1.54767e-10
1.54216e-10
1.5335e-10
1.52094e-10
1.49907e-10
1.47344e-10
1.43132e-10
1.38274e-10
1.32979e-10
1.26121e-10
1.18001e-10
1.0644e-10
9.45271e-11
8.08921e-11
6.67734e-11
5.33875e-11
4.45373e-11
4.43572e-11
5.18178e-11
5.51917e-11
3.87258e-11
3.75073e-11
5.7186e-11
5.30473e-11
4.36422e-11
4.1924e-11
4.98192e-11
6.2813e-11
7.70072e-11
9.0903e-11
1.03128e-10
1.15109e-10
1.23434e-10
1.30598e-10
1.36177e-10
1.41078e-10
1.45384e-10
1.47948e-10
1.50152e-10
1.51539e-10
1.52384e-10
1.52947e-10
1.53315e-10
1.53556e-10
1.53684e-10
1.53731e-10
1.53718e-10
1.53659e-10
1.53547e-10
1.53348e-10
1.53034e-10
1.52503e-10
1.51606e-10
1.5022e-10
1.47981e-10
1.45376e-10
1.41024e-10
1.36111e-10
1.30511e-10
1.23342e-10
1.15001e-10
1.02982e-10
9.07582e-11
7.68743e-11
6.26798e-11
4.97684e-11
4.19314e-11
4.37389e-11
5.32074e-11
5.73756e-11
3.75915e-11
3.73286e-11
6.04188e-11
5.53714e-11
4.38032e-11
4.00291e-11
4.68011e-11
5.93183e-11
7.35556e-11
8.76357e-11
1.0014e-10
1.12465e-10
1.20976e-10
1.28375e-10
1.342e-10
1.39152e-10
1.43707e-10
1.46315e-10
1.48543e-10
1.49976e-10
1.50843e-10
1.51413e-10
1.51796e-10
1.52051e-10
1.52185e-10
1.52233e-10
1.5222e-10
1.52159e-10
1.52042e-10
1.5183e-10
1.51502e-10
1.50966e-10
1.50045e-10
1.48613e-10
1.4635e-10
1.43695e-10
1.39095e-10
1.34129e-10
1.28284e-10
1.2088e-10
1.12353e-10
9.99901e-11
8.74849e-11
7.34229e-11
5.91814e-11
4.67538e-11
4.00454e-11
4.39158e-11
5.55502e-11
6.06335e-11
3.74333e-11
3.80484e-11
6.46264e-11
5.84867e-11
4.46752e-11
3.87359e-11
4.4348e-11
5.62958e-11
7.05562e-11
8.47494e-11
9.75287e-11
1.10047e-10
1.18853e-10
1.26343e-10
1.32348e-10
1.37341e-10
1.42095e-10
1.44801e-10
1.47027e-10
1.48504e-10
1.49388e-10
1.49966e-10
1.50362e-10
1.50606e-10
1.50744e-10
1.50794e-10
1.5078e-10
1.50716e-10
1.50597e-10
1.50396e-10
1.50059e-10
1.49513e-10
1.48575e-10
1.47099e-10
1.44838e-10
1.42078e-10
1.3728e-10
1.32272e-10
1.26248e-10
1.18753e-10
1.09932e-10
9.73743e-11
8.45924e-11
7.04253e-11
5.61551e-11
4.43032e-11
3.87627e-11
4.48064e-11
5.86875e-11
6.48684e-11
3.8177e-11
3.96334e-11
6.97395e-11
6.23515e-11
4.61495e-11
3.7957e-11
4.23375e-11
5.36484e-11
6.79215e-11
8.21511e-11
9.52255e-11
1.07756e-10
1.16786e-10
1.24415e-10
1.30574e-10
1.35602e-10
1.4046e-10
1.4327e-10
1.45486e-10
1.47021e-10
1.47931e-10
1.48527e-10
1.48943e-10
1.49199e-10
1.4934e-10
1.49391e-10
1.49377e-10
1.49312e-10
1.4919e-10
1.48976e-10
1.48626e-10
1.48058e-10
1.47094e-10
1.45561e-10
1.43313e-10
1.40437e-10
1.35538e-10
1.30495e-10
1.24316e-10
1.16678e-10
1.07637e-10
9.50683e-11
8.19878e-11
6.77942e-11
5.35029e-11
4.22947e-11
3.79959e-11
4.63018e-11
6.2576e-11
7.00108e-11
3.97894e-11
4.20561e-11
7.57088e-11
6.69099e-11
4.81913e-11
3.76311e-11
4.07017e-11
5.13821e-11
6.55828e-11
7.97636e-11
9.31834e-11
1.05504e-10
1.14876e-10
1.22631e-10
1.28816e-10
1.33872e-10
1.38793e-10
1.41683e-10
1.43896e-10
1.45451e-10
1.46379e-10
1.46987e-10
1.47418e-10
1.47684e-10
1.47831e-10
1.47884e-10
1.47869e-10
1.47802e-10
1.47675e-10
1.47451e-10
1.4709e-10
1.46506e-10
1.45525e-10
1.43974e-10
1.41727e-10
1.38768e-10
1.33806e-10
1.28734e-10
1.22528e-10
1.14764e-10
1.05382e-10
9.30244e-11
7.95941e-11
6.54607e-11
5.12283e-11
4.06617e-11
3.76839e-11
4.83659e-11
6.71602e-11
7.60113e-11
4.22434e-11
4.5333e-11
8.25001e-11
7.21224e-11
5.07727e-11
3.77182e-11
3.93899e-11
4.94019e-11
6.34127e-11
7.75212e-11
9.12387e-11
1.03348e-10
1.12919e-10
1.20849e-10
1.27122e-10
1.32201e-10
1.37147e-10
1.40003e-10
1.42229e-10
1.43783e-10
1.44725e-10
1.45342e-10
1.45782e-10
1.46054e-10
1.46205e-10
1.4626e-10
1.46245e-10
1.46176e-10
1.46045e-10
1.45815e-10
1.45446e-10
1.44854e-10
1.43858e-10
1.4231e-10
1.40048e-10
1.37119e-10
1.32133e-10
1.27037e-10
1.20743e-10
1.12799e-10
1.03222e-10
9.10793e-11
7.73458e-11
6.32937e-11
4.9259e-11
3.93544e-11
3.77867e-11
5.09722e-11
7.24006e-11
8.2836e-11
4.55558e-11
4.94916e-11
9.00905e-11
7.79632e-11
5.3878e-11
3.81958e-11
3.83671e-11
4.77419e-11
6.13189e-11
7.53705e-11
8.93528e-11
1.01241e-10
1.10928e-10
1.18991e-10
1.2537e-10
1.30469e-10
1.35386e-10
1.38323e-10
1.40522e-10
1.42085e-10
1.43034e-10
1.43662e-10
1.44108e-10
1.44383e-10
1.44538e-10
1.44593e-10
1.44578e-10
1.44508e-10
1.44374e-10
1.44139e-10
1.43767e-10
1.43164e-10
1.42162e-10
1.40606e-10
1.38369e-10
1.35355e-10
1.304e-10
1.25281e-10
1.18878e-10
1.10804e-10
1.01111e-10
8.91939e-11
7.51902e-11
6.12018e-11
4.75971e-11
3.83378e-11
3.82824e-11
5.41047e-11
7.82715e-11
9.0462e-11
4.97548e-11
5.45759e-11
9.84629e-11
8.44189e-11
5.75063e-11
3.90605e-11
3.76124e-11
4.63335e-11
5.93762e-11
7.32716e-11
8.75008e-11
9.91479e-11
1.08898e-10
1.17005e-10
1.23463e-10
1.2861e-10
1.33448e-10
1.36523e-10
1.38684e-10
1.4025e-10
1.41204e-10
1.41841e-10
1.42293e-10
1.42569e-10
1.42728e-10
1.42784e-10
1.42768e-10
1.42697e-10
1.42561e-10
1.42322e-10
1.41946e-10
1.41335e-10
1.40329e-10
1.38771e-10
1.36569e-10
1.33412e-10
1.28539e-10
1.23369e-10
1.16888e-10
1.08769e-10
9.90126e-11
8.73424e-11
7.30878e-11
5.92549e-11
4.61963e-11
3.75917e-11
3.91673e-11
5.77622e-11
8.47598e-11
9.88722e-11
5.48851e-11
6.06431e-11
1.07597e-10
9.14899e-11
6.16693e-11
4.03187e-11
3.71219e-11
4.50606e-11
5.75854e-11
7.12416e-11
8.56324e-11
9.70436e-11
1.06811e-10
1.14933e-10
1.21411e-10
1.26553e-10
1.31327e-10
1.34484e-10
1.36607e-10
1.38169e-10
1.39132e-10
1.39781e-10
1.4024e-10
1.40518e-10
1.4068e-10
1.40737e-10
1.40721e-10
1.40648e-10
1.40509e-10
1.40265e-10
1.39885e-10
1.39264e-10
1.38251e-10
1.36698e-10
1.34531e-10
1.3129e-10
1.26481e-10
1.21314e-10
1.14812e-10
1.06678e-10
9.69035e-11
8.54753e-11
7.10551e-11
5.74583e-11
4.4935e-11
3.71121e-11
4.04487e-11
6.19562e-11
9.18662e-11
1.08047e-10
6.10051e-11
6.77596e-11
1.17446e-10
9.91965e-11
6.63897e-11
4.20057e-11
3.6918e-11
4.3949e-11
5.59482e-11
6.94298e-11
8.37307e-11
9.49366e-11
1.04682e-10
1.12791e-10
1.19265e-10
1.24368e-10
1.29111e-10
1.32275e-10
1.34387e-10
1.35929e-10
1.36898e-10
1.37553e-10
1.38017e-10
1.38302e-10
1.38466e-10
1.38524e-10
1.38509e-10
1.38435e-10
1.38294e-10
1.38046e-10
1.37658e-10
1.3703e-10
1.36015e-10
1.34481e-10
1.32321e-10
1.29074e-10
1.24294e-10
1.19164e-10
1.12666e-10
1.04544e-10
9.47922e-11
8.35752e-11
6.92419e-11
5.58161e-11
4.3836e-11
3.69214e-11
4.21616e-11
6.67125e-11
9.96114e-11
1.17937e-10
6.81834e-11
)
;

boundaryField
{
    fuel
    {
        type            fixedValue;
        value           uniform 0;
    }
    wall
    {
        type            zeroGradient;
    }
    outlet
    {
        type            zeroGradient;
    }
    frontAndBack
    {
        type            empty;
    }
    procBoundary1to0
    {
        type            processor;
        value           nonuniform List<scalar> 
50
(
7.60941e-11
1.28499e-10
1.07911e-10
7.1652e-11
4.41033e-11
3.69458e-11
4.29126e-11
5.43447e-11
6.75904e-11
8.17632e-11
9.26865e-11
1.02372e-10
1.10474e-10
1.16925e-10
1.21949e-10
1.26643e-10
1.2979e-10
1.31904e-10
1.33439e-10
1.34408e-10
1.35068e-10
1.35535e-10
1.35825e-10
1.35991e-10
1.3605e-10
1.36035e-10
1.3596e-10
1.35816e-10
1.35566e-10
1.35172e-10
1.34538e-10
1.33528e-10
1.32001e-10
1.29834e-10
1.26605e-10
1.21873e-10
1.1682e-10
1.10345e-10
1.0223e-10
9.25376e-11
8.16081e-11
6.74023e-11
5.42101e-11
4.28117e-11
3.69655e-11
4.42885e-11
7.20143e-11
1.08372e-10
1.29044e-10
7.6588e-11
)
;
    }
}


// ************************************************************************* //
