/*--------------------------------*- C++ -*----------------------------------*\
| =========                 |                                                 |
| \\      /  F ield         | OpenFOAM: The Open Source CFD Toolbox           |
|  \\    /   O peration     | Version:  dev                                   |
|   \\  /    A nd           | Web:      www.OpenFOAM.org                      |
|    \\/     M anipulation  |                                                 |
\*---------------------------------------------------------------------------*/
FoamFile
{
    version     2.0;
    format      ascii;
    class       volScalarField;
    location    "0.005";
    object      H2O2;
}
// * * * * * * * * * * * * * * * * * * * * * * * * * * * * * * * * * * * * * //

dimensions      [0 0 0 0 0 0 0];

internalField   nonuniform List<scalar> 
250
(
3.56537e-12
3.22092e-12
3.17912e-12
3.28013e-12
3.39941e-12
3.4627e-12
3.49071e-12
3.49811e-12
3.50098e-12
3.49693e-12
2.81524e-12
2.82107e-12
2.90045e-12
3.01281e-12
3.11632e-12
3.16967e-12
3.19159e-12
3.19613e-12
3.19645e-12
3.19166e-12
3.19064e-12
3.19464e-12
3.19121e-12
3.18401e-12
3.16175e-12
3.10983e-12
3.01003e-12
2.8998e-12
2.82198e-12
2.81714e-12
2.08794e-12
2.4154e-12
2.6186e-12
2.76097e-12
2.88194e-12
2.93402e-12
2.96037e-12
2.96582e-12
2.96783e-12
2.96324e-12
2.96207e-12
2.96435e-12
2.95935e-12
2.9511e-12
2.92535e-12
2.87511e-12
2.7583e-12
2.61761e-12
2.41695e-12
2.08942e-12
1.43622e-12
1.90262e-12
2.28093e-12
2.42378e-12
2.55618e-12
2.6046e-12
2.63955e-12
2.6478e-12
2.65333e-12
2.64993e-12
2.64808e-12
2.64829e-12
2.63808e-12
2.62943e-12
2.59628e-12
2.5491e-12
2.42154e-12
2.27986e-12
1.90346e-12
1.43754e-12
9.04239e-13
1.37946e-12
1.78491e-12
1.96859e-12
2.12013e-12
2.17233e-12
2.21593e-12
2.227e-12
2.2383e-12
2.23663e-12
2.23444e-12
2.2314e-12
2.21541e-12
2.20532e-12
2.16467e-12
2.11446e-12
1.96743e-12
1.78398e-12
1.37988e-12
9.05083e-13
5.13831e-13
8.79001e-13
1.25578e-12
1.41959e-12
1.53949e-12
1.57918e-12
1.62101e-12
1.63359e-12
1.6451e-12
1.64495e-12
1.6426e-12
1.63661e-12
1.6208e-12
1.61113e-12
1.57275e-12
1.53623e-12
1.4184e-12
1.25511e-12
8.79092e-13
5.14247e-13
2.59297e-13
4.98524e-13
7.45238e-13
8.82091e-13
9.8294e-13
1.01457e-12
1.0519e-12
1.06222e-12
1.07371e-12
1.07425e-12
1.07236e-12
1.06632e-12
1.0513e-12
1.04312e-12
1.01069e-12
9.81198e-13
8.81574e-13
7.44683e-13
4.98482e-13
2.59417e-13
1.15555e-13
2.49789e-13
3.78385e-13
4.66896e-13
5.17903e-13
5.37268e-13
5.60594e-13
5.67048e-13
5.74928e-13
5.75426e-13
5.74123e-13
5.69868e-13
5.59411e-13
5.54487e-13
5.34727e-13
5.17084e-13
4.66655e-13
3.78172e-13
2.49598e-13
1.15557e-13
4.60599e-14
1.09686e-13
1.72061e-13
2.16013e-13
2.3904e-13
2.48671e-13
2.5995e-13
2.63091e-13
2.67141e-13
2.67408e-13
2.66691e-13
2.6447e-13
2.58902e-13
2.56584e-13
2.47408e-13
2.38589e-13
2.15912e-13
1.71952e-13
1.09568e-13
4.60435e-14
1.65205e-14
4.23217e-14
6.89108e-14
8.74944e-14
9.67652e-14
1.00795e-13
1.05743e-13
1.07109e-13
1.08962e-13
1.09091e-13
1.0874e-13
1.07701e-13
1.05061e-13
1.04101e-13
1.00245e-13
9.65748e-14
8.74278e-14
6.88524e-14
4.22636e-14
1.65081e-14
5.28209e-15
1.4249e-14
2.39368e-14
3.0656e-14
3.3927e-14
3.52708e-14
3.71132e-14
3.75993e-14
3.82875e-14
3.83306e-14
3.81942e-14
3.78051e-14
3.67978e-14
3.64694e-14
3.50632e-14
3.38645e-14
3.06196e-14
2.39142e-14
1.42197e-14
5.27556e-15
1.49138e-15
4.14177e-15
7.11641e-15
9.17849e-15
1.01648e-14
1.05415e-14
1.11091e-14
1.12545e-14
1.14654e-14
1.14746e-14
1.14318e-14
1.13099e-14
1.09954e-14
1.09007e-14
1.04759e-14
1.01408e-14
9.16315e-15
7.10792e-15
4.13076e-15
1.48896e-15
4.21336e-16
1.17365e-15
2.0574e-15
2.69172e-15
2.9934e-15
3.07749e-15
3.26235e-15
3.30824e-15
3.37418e-15
3.37897e-15
3.36247e-15
3.32147e-15
3.21476e-15
3.18858e-15
3.06122e-15
2.98483e-15
2.68508e-15
2.05407e-15
1.16982e-15
4.20481e-16
)
;

boundaryField
{
    fuel
    {
        type            fixedValue;
        value           nonuniform 0();
    }
    wall
    {
        type            zeroGradient;
    }
    outlet
    {
        type            zeroGradient;
    }
    frontAndBack
    {
        type            empty;
    }
    procBoundary1to0
    {
        type            processor;
        value           nonuniform List<scalar> 
21
(
4.3235e-12
3.6623e-12
3.58825e-12
3.71281e-12
3.88722e-12
3.97559e-12
4.02013e-12
4.03476e-12
4.04388e-12
4.04129e-12
3.49506e-12
3.49506e-12
3.49829e-12
3.49242e-12
3.48301e-12
3.45529e-12
3.39323e-12
3.27726e-12
3.17802e-12
3.22088e-12
3.56648e-12
)
;
    }
}


// ************************************************************************* //
