/*--------------------------------*- C++ -*----------------------------------*\
| =========                 |                                                 |
| \\      /  F ield         | OpenFOAM: The Open Source CFD Toolbox           |
|  \\    /   O peration     | Version:  dev                                   |
|   \\  /    A nd           | Web:      www.OpenFOAM.org                      |
|    \\/     M anipulation  |                                                 |
\*---------------------------------------------------------------------------*/
FoamFile
{
    version     2.0;
    format      ascii;
    class       volScalarField;
    location    "0.005";
    object      p;
}
// * * * * * * * * * * * * * * * * * * * * * * * * * * * * * * * * * * * * * //

dimensions      [1 -1 -2 0 0 0 0];

internalField   nonuniform List<scalar> 
250
(
100013
100034
100055
100074
100091
100106
100119
100128
100134
100137
100013
100034
100055
100074
100091
100106
100119
100128
100134
100137
100136
100132
100124
100114
100101
100086
100070
100052
100032
100012
100013
100034
100055
100074
100091
100107
100119
100128
100134
100137
100136
100132
100124
100114
100101
100086
100070
100052
100032
100012
100013
100034
100055
100074
100091
100107
100119
100129
100134
100137
100136
100132
100124
100114
100101
100086
100070
100052
100032
100012
100013
100034
100055
100074
100091
100107
100119
100129
100135
100137
100136
100132
100124
100114
100101
100087
100070
100052
100032
100012
100013
100034
100055
100074
100091
100107
100119
100129
100135
100137
100136
100132
100125
100114
100102
100087
100070
100052
100032
100012
100013
100034
100055
100074
100092
100107
100119
100129
100135
100137
100136
100132
100125
100114
100102
100087
100070
100052
100032
100012
100013
100034
100055
100074
100092
100107
100119
100129
100135
100137
100136
100132
100125
100114
100102
100087
100070
100052
100032
100012
100013
100034
100055
100074
100092
100107
100119
100129
100135
100137
100136
100132
100125
100115
100102
100087
100070
100052
100032
100012
100013
100034
100055
100074
100092
100107
100119
100129
100135
100137
100136
100132
100125
100115
100102
100087
100070
100052
100032
100012
100013
100034
100055
100074
100092
100107
100120
100129
100135
100137
100136
100132
100125
100115
100102
100087
100070
100052
100032
100012
100013
100034
100055
100074
100092
100107
100120
100129
100135
100137
100136
100132
100125
100115
100102
100087
100070
100052
100032
100012
100013
100034
100055
100074
100092
100107
100120
100129
100135
100137
100136
100132
100125
100115
100102
100087
100070
100052
100032
100012
)
;

boundaryField
{
    fuel
    {
        type            zeroGradient;
    }
    wall
    {
        type            zeroGradient;
    }
    outlet
    {
        type            totalPressure;
        rho             none;
        psi             none;
        gamma           1;
        p0              uniform 100000;
        value           uniform 100000;
    }
    frontAndBack
    {
        type            empty;
    }
    procBoundary1to0
    {
        type            processor;
        value           nonuniform List<scalar> 
21
(
100013
100034
100055
100074
100091
100106
100119
100128
100134
100137
100136
100136
100131
100124
100114
100101
100086
100070
100052
100032
100012
)
;
    }
}


// ************************************************************************* //
