/*--------------------------------*- C++ -*----------------------------------*\
| =========                 |                                                 |
| \\      /  F ield         | OpenFOAM: The Open Source CFD Toolbox           |
|  \\    /   O peration     | Version:  dev                                   |
|   \\  /    A nd           | Web:      www.OpenFOAM.org                      |
|    \\/     M anipulation  |                                                 |
\*---------------------------------------------------------------------------*/
FoamFile
{
    version     2.0;
    format      ascii;
    class       volScalarField;
    location    "0.045";
    object      A2C2HA;
}
// * * * * * * * * * * * * * * * * * * * * * * * * * * * * * * * * * * * * * //

dimensions      [0 0 0 0 0 0 0];

internalField   nonuniform List<scalar> 
1989
(
1.25943e-09
1.25953e-09
1.25958e-09
1.25964e-09
1.25966e-09
1.25969e-09
1.2597e-09
1.25971e-09
1.25971e-09
1.25973e-09
1.25973e-09
1.25974e-09
1.25974e-09
1.25974e-09
1.25974e-09
1.25974e-09
1.25973e-09
1.25972e-09
1.25972e-09
1.25971e-09
1.2597e-09
1.25968e-09
1.25967e-09
1.25964e-09
1.25962e-09
1.25956e-09
1.25951e-09
1.25941e-09
1.25931e-09
1.25913e-09
1.25889e-09
1.25854e-09
1.25806e-09
1.25739e-09
1.25646e-09
1.25511e-09
1.25356e-09
1.25114e-09
1.24959e-09
1.25515e-09
1.25644e-09
1.25843e-09
1.25973e-09
1.26083e-09
1.26158e-09
1.26215e-09
1.26253e-09
1.26282e-09
1.26301e-09
1.26315e-09
1.26329e-09
1.26337e-09
1.26341e-09
1.26345e-09
1.26347e-09
1.26349e-09
1.2635e-09
1.26351e-09
1.26351e-09
1.26352e-09
1.26352e-09
1.26353e-09
1.26353e-09
1.26353e-09
1.26353e-09
1.26353e-09
1.26353e-09
1.26352e-09
1.26351e-09
1.2635e-09
1.2635e-09
1.26349e-09
1.26348e-09
1.26346e-09
1.26344e-09
1.26339e-09
1.26335e-09
1.26327e-09
1.26319e-09
1.26304e-09
1.26285e-09
1.26256e-09
1.26218e-09
1.26162e-09
1.26086e-09
1.25976e-09
1.25846e-09
1.25648e-09
1.25519e-09
1.25811e-09
1.25915e-09
1.2607e-09
1.26174e-09
1.26261e-09
1.26319e-09
1.26366e-09
1.26395e-09
1.26418e-09
1.26432e-09
1.26444e-09
1.26456e-09
1.26462e-09
1.26465e-09
1.26468e-09
1.26469e-09
1.2647e-09
1.26471e-09
1.26471e-09
1.26472e-09
1.26472e-09
1.26472e-09
1.26473e-09
1.26473e-09
1.26473e-09
1.26473e-09
1.26473e-09
1.26472e-09
1.26472e-09
1.26471e-09
1.26471e-09
1.2647e-09
1.26469e-09
1.26469e-09
1.26467e-09
1.26466e-09
1.26463e-09
1.26459e-09
1.26454e-09
1.26447e-09
1.26436e-09
1.26421e-09
1.26398e-09
1.26369e-09
1.26323e-09
1.26265e-09
1.26178e-09
1.26074e-09
1.25919e-09
1.25815e-09
1.25852e-09
1.2593e-09
1.26043e-09
1.26122e-09
1.26188e-09
1.26229e-09
1.26266e-09
1.26286e-09
1.26303e-09
1.26314e-09
1.26323e-09
1.26332e-09
1.26336e-09
1.26339e-09
1.2634e-09
1.26341e-09
1.26342e-09
1.26342e-09
1.26342e-09
1.26342e-09
1.26343e-09
1.26343e-09
1.26343e-09
1.26343e-09
1.26344e-09
1.26344e-09
1.26343e-09
1.26343e-09
1.26342e-09
1.26342e-09
1.26342e-09
1.26341e-09
1.26341e-09
1.2634e-09
1.2634e-09
1.26338e-09
1.26337e-09
1.26334e-09
1.2633e-09
1.26326e-09
1.26317e-09
1.26307e-09
1.26289e-09
1.26269e-09
1.26232e-09
1.26191e-09
1.26126e-09
1.26046e-09
1.25934e-09
1.25856e-09
1.25647e-09
1.25701e-09
1.25774e-09
1.25828e-09
1.25874e-09
1.25899e-09
1.25928e-09
1.2594e-09
1.25952e-09
1.25959e-09
1.25965e-09
1.25972e-09
1.25975e-09
1.25977e-09
1.25977e-09
1.25978e-09
1.25977e-09
1.25978e-09
1.25977e-09
1.25977e-09
1.25977e-09
1.25977e-09
1.25977e-09
1.25978e-09
1.25978e-09
1.25978e-09
1.25978e-09
1.25977e-09
1.25977e-09
1.25977e-09
1.25976e-09
1.25976e-09
1.25976e-09
1.25976e-09
1.25976e-09
1.25975e-09
1.25975e-09
1.25973e-09
1.2597e-09
1.25968e-09
1.25962e-09
1.25955e-09
1.25944e-09
1.25932e-09
1.25903e-09
1.25878e-09
1.25832e-09
1.25778e-09
1.25705e-09
1.25651e-09
1.25212e-09
1.25243e-09
1.25278e-09
1.25307e-09
1.25333e-09
1.25342e-09
1.25363e-09
1.25367e-09
1.2538e-09
1.25383e-09
1.25387e-09
1.25393e-09
1.25394e-09
1.25395e-09
1.25394e-09
1.25394e-09
1.25394e-09
1.25394e-09
1.25393e-09
1.25393e-09
1.25392e-09
1.25393e-09
1.25393e-09
1.25393e-09
1.25393e-09
1.25393e-09
1.25393e-09
1.25392e-09
1.25392e-09
1.25392e-09
1.25392e-09
1.25392e-09
1.25392e-09
1.25392e-09
1.25393e-09
1.25392e-09
1.25393e-09
1.25392e-09
1.25391e-09
1.2539e-09
1.25386e-09
1.25384e-09
1.2537e-09
1.25366e-09
1.25345e-09
1.25337e-09
1.2531e-09
1.25281e-09
1.25247e-09
1.25216e-09
1.24564e-09
1.24573e-09
1.24574e-09
1.24581e-09
1.24592e-09
1.24586e-09
1.24601e-09
1.24598e-09
1.24607e-09
1.24607e-09
1.24608e-09
1.24612e-09
1.24611e-09
1.24611e-09
1.2461e-09
1.2461e-09
1.24608e-09
1.24608e-09
1.24607e-09
1.24607e-09
1.24606e-09
1.24606e-09
1.24606e-09
1.24606e-09
1.24606e-09
1.24606e-09
1.24606e-09
1.24606e-09
1.24606e-09
1.24605e-09
1.24606e-09
1.24606e-09
1.24607e-09
1.24607e-09
1.24608e-09
1.24608e-09
1.24609e-09
1.24609e-09
1.2461e-09
1.2461e-09
1.24609e-09
1.2461e-09
1.24601e-09
1.24604e-09
1.2459e-09
1.24595e-09
1.24585e-09
1.24578e-09
1.24577e-09
1.24568e-09
1.23709e-09
1.23697e-09
1.23666e-09
1.23654e-09
1.23666e-09
1.23649e-09
1.23658e-09
1.23649e-09
1.23654e-09
1.2365e-09
1.2365e-09
1.23652e-09
1.2365e-09
1.2365e-09
1.23647e-09
1.23647e-09
1.23645e-09
1.23645e-09
1.23643e-09
1.23643e-09
1.23642e-09
1.23642e-09
1.23642e-09
1.23642e-09
1.23642e-09
1.23642e-09
1.23642e-09
1.23641e-09
1.23642e-09
1.23641e-09
1.23642e-09
1.23642e-09
1.23643e-09
1.23643e-09
1.23645e-09
1.23646e-09
1.23648e-09
1.23648e-09
1.2365e-09
1.23652e-09
1.23653e-09
1.23657e-09
1.23651e-09
1.23661e-09
1.23652e-09
1.2367e-09
1.23657e-09
1.2367e-09
1.23701e-09
1.23713e-09
1.22697e-09
1.22667e-09
1.2261e-09
1.2258e-09
1.22581e-09
1.22552e-09
1.22556e-09
1.22542e-09
1.22544e-09
1.22537e-09
1.22536e-09
1.22536e-09
1.22533e-09
1.22532e-09
1.22529e-09
1.22528e-09
1.22525e-09
1.22525e-09
1.22523e-09
1.22523e-09
1.22522e-09
1.22522e-09
1.22521e-09
1.22521e-09
1.22521e-09
1.22521e-09
1.22521e-09
1.22521e-09
1.22521e-09
1.22521e-09
1.22522e-09
1.22522e-09
1.22524e-09
1.22524e-09
1.22526e-09
1.22527e-09
1.2253e-09
1.22531e-09
1.22534e-09
1.22537e-09
1.2254e-09
1.22546e-09
1.22544e-09
1.22559e-09
1.22555e-09
1.22584e-09
1.22584e-09
1.22613e-09
1.22671e-09
1.22701e-09
1.21538e-09
1.21492e-09
1.21413e-09
1.21367e-09
1.21354e-09
1.21312e-09
1.2131e-09
1.21289e-09
1.21288e-09
1.21279e-09
1.21276e-09
1.21274e-09
1.2127e-09
1.21269e-09
1.21265e-09
1.21264e-09
1.21261e-09
1.21261e-09
1.21259e-09
1.21259e-09
1.21258e-09
1.21258e-09
1.21258e-09
1.21258e-09
1.21258e-09
1.21258e-09
1.21258e-09
1.21257e-09
1.21257e-09
1.21257e-09
1.21258e-09
1.21258e-09
1.2126e-09
1.2126e-09
1.21263e-09
1.21263e-09
1.21267e-09
1.21268e-09
1.21272e-09
1.21276e-09
1.21281e-09
1.2129e-09
1.21291e-09
1.21313e-09
1.21315e-09
1.21357e-09
1.21371e-09
1.21417e-09
1.21495e-09
1.21542e-09
1.20238e-09
1.20174e-09
1.20078e-09
1.20041e-09
1.20019e-09
1.1997e-09
1.19964e-09
1.19939e-09
1.19936e-09
1.19925e-09
1.19921e-09
1.19918e-09
1.19913e-09
1.19911e-09
1.19907e-09
1.19906e-09
1.19903e-09
1.19902e-09
1.199e-09
1.199e-09
1.19898e-09
1.19899e-09
1.19898e-09
1.19898e-09
1.19898e-09
1.19898e-09
1.19898e-09
1.19898e-09
1.19898e-09
1.19898e-09
1.19899e-09
1.19899e-09
1.19901e-09
1.19901e-09
1.19904e-09
1.19905e-09
1.19909e-09
1.19911e-09
1.19916e-09
1.19921e-09
1.19927e-09
1.19938e-09
1.19941e-09
1.19967e-09
1.19973e-09
1.20022e-09
1.20045e-09
1.20082e-09
1.20178e-09
1.20241e-09
1.18858e-09
1.18783e-09
1.18673e-09
1.18626e-09
1.18598e-09
1.18542e-09
1.18534e-09
1.18506e-09
1.18501e-09
1.18489e-09
1.18483e-09
1.1848e-09
1.18474e-09
1.18472e-09
1.18467e-09
1.18466e-09
1.18462e-09
1.18462e-09
1.18459e-09
1.18459e-09
1.18457e-09
1.18458e-09
1.18457e-09
1.18457e-09
1.18457e-09
1.18457e-09
1.18457e-09
1.18457e-09
1.18457e-09
1.18457e-09
1.18458e-09
1.18458e-09
1.1846e-09
1.18461e-09
1.18464e-09
1.18465e-09
1.1847e-09
1.18472e-09
1.18478e-09
1.18484e-09
1.1849e-09
1.18503e-09
1.18508e-09
1.18537e-09
1.18545e-09
1.18601e-09
1.18629e-09
1.18677e-09
1.18787e-09
1.18862e-09
1.17393e-09
1.17306e-09
1.17182e-09
1.17125e-09
1.17091e-09
1.1703e-09
1.1702e-09
1.16989e-09
1.16983e-09
1.1697e-09
1.16964e-09
1.1696e-09
1.16954e-09
1.16951e-09
1.16946e-09
1.16944e-09
1.1694e-09
1.1694e-09
1.16937e-09
1.16937e-09
1.16935e-09
1.16935e-09
1.16935e-09
1.16935e-09
1.16935e-09
1.16935e-09
1.16935e-09
1.16934e-09
1.16935e-09
1.16934e-09
1.16936e-09
1.16936e-09
1.16939e-09
1.16939e-09
1.16943e-09
1.16944e-09
1.16949e-09
1.16951e-09
1.16958e-09
1.16964e-09
1.16971e-09
1.16985e-09
1.16991e-09
1.17023e-09
1.17033e-09
1.17094e-09
1.17128e-09
1.17185e-09
1.17309e-09
1.17397e-09
1.15867e-09
1.15772e-09
1.15642e-09
1.1558e-09
1.15543e-09
1.1548e-09
1.15468e-09
1.15436e-09
1.15429e-09
1.15415e-09
1.15408e-09
1.15403e-09
1.15397e-09
1.15394e-09
1.15389e-09
1.15387e-09
1.15383e-09
1.15382e-09
1.15379e-09
1.15379e-09
1.15377e-09
1.15377e-09
1.15377e-09
1.15377e-09
1.15377e-09
1.15377e-09
1.15377e-09
1.15376e-09
1.15377e-09
1.15377e-09
1.15378e-09
1.15378e-09
1.15381e-09
1.15381e-09
1.15386e-09
1.15387e-09
1.15392e-09
1.15395e-09
1.15401e-09
1.15408e-09
1.15416e-09
1.15431e-09
1.15438e-09
1.15471e-09
1.15482e-09
1.15546e-09
1.15583e-09
1.15645e-09
1.15775e-09
1.1587e-09
1.14344e-09
1.14243e-09
1.14111e-09
1.14045e-09
1.14006e-09
1.13941e-09
1.13929e-09
1.13895e-09
1.13888e-09
1.13874e-09
1.13866e-09
1.13861e-09
1.13854e-09
1.13852e-09
1.13846e-09
1.13844e-09
1.1384e-09
1.13839e-09
1.13836e-09
1.13836e-09
1.13834e-09
1.13834e-09
1.13833e-09
1.13833e-09
1.13833e-09
1.13833e-09
1.13833e-09
1.13833e-09
1.13833e-09
1.13833e-09
1.13835e-09
1.13835e-09
1.13838e-09
1.13838e-09
1.13843e-09
1.13844e-09
1.1385e-09
1.13852e-09
1.13859e-09
1.13866e-09
1.13874e-09
1.13889e-09
1.13897e-09
1.13931e-09
1.13943e-09
1.14008e-09
1.14047e-09
1.14114e-09
1.14247e-09
1.14347e-09
1.12819e-09
1.12716e-09
1.12584e-09
1.12514e-09
1.12474e-09
1.12409e-09
1.12398e-09
1.12363e-09
1.12356e-09
1.12342e-09
1.12334e-09
1.12329e-09
1.12322e-09
1.12319e-09
1.12313e-09
1.12312e-09
1.12307e-09
1.12306e-09
1.12303e-09
1.12303e-09
1.12301e-09
1.12301e-09
1.123e-09
1.123e-09
1.123e-09
1.123e-09
1.123e-09
1.123e-09
1.12301e-09
1.123e-09
1.12302e-09
1.12302e-09
1.12305e-09
1.12306e-09
1.1231e-09
1.12312e-09
1.12317e-09
1.1232e-09
1.12327e-09
1.12334e-09
1.12342e-09
1.12357e-09
1.12365e-09
1.124e-09
1.12411e-09
1.12476e-09
1.12516e-09
1.12587e-09
1.12719e-09
1.12822e-09
1.1129e-09
1.11185e-09
1.11055e-09
1.10983e-09
1.10943e-09
1.10879e-09
1.10868e-09
1.10834e-09
1.10827e-09
1.10813e-09
1.10805e-09
1.108e-09
1.10793e-09
1.1079e-09
1.10784e-09
1.10782e-09
1.10778e-09
1.10777e-09
1.10774e-09
1.10773e-09
1.10771e-09
1.10771e-09
1.1077e-09
1.1077e-09
1.1077e-09
1.1077e-09
1.1077e-09
1.1077e-09
1.10771e-09
1.10771e-09
1.10772e-09
1.10773e-09
1.10776e-09
1.10776e-09
1.10781e-09
1.10782e-09
1.10788e-09
1.10791e-09
1.10798e-09
1.10805e-09
1.10813e-09
1.10828e-09
1.10835e-09
1.1087e-09
1.10881e-09
1.10945e-09
1.10986e-09
1.11058e-09
1.11188e-09
1.11293e-09
1.09823e-09
1.09718e-09
1.09594e-09
1.09522e-09
1.09484e-09
1.09422e-09
1.09411e-09
1.09378e-09
1.09371e-09
1.09357e-09
1.0935e-09
1.09344e-09
1.09337e-09
1.09334e-09
1.09328e-09
1.09326e-09
1.09322e-09
1.0932e-09
1.09317e-09
1.09317e-09
1.09315e-09
1.09315e-09
1.09314e-09
1.09314e-09
1.09314e-09
1.09314e-09
1.09314e-09
1.09313e-09
1.09314e-09
1.09314e-09
1.09316e-09
1.09316e-09
1.09319e-09
1.0932e-09
1.09325e-09
1.09326e-09
1.09332e-09
1.09335e-09
1.09342e-09
1.09349e-09
1.09357e-09
1.09372e-09
1.09379e-09
1.09413e-09
1.09424e-09
1.09486e-09
1.09525e-09
1.09597e-09
1.09721e-09
1.09825e-09
1.0841e-09
1.08309e-09
1.08191e-09
1.08121e-09
1.08085e-09
1.08026e-09
1.08016e-09
1.07983e-09
1.07977e-09
1.07963e-09
1.07956e-09
1.0795e-09
1.07943e-09
1.0794e-09
1.07934e-09
1.07932e-09
1.07928e-09
1.07926e-09
1.07923e-09
1.07923e-09
1.07921e-09
1.07921e-09
1.0792e-09
1.0792e-09
1.0792e-09
1.07919e-09
1.0792e-09
1.07919e-09
1.0792e-09
1.0792e-09
1.07922e-09
1.07922e-09
1.07925e-09
1.07926e-09
1.07931e-09
1.07933e-09
1.07938e-09
1.07941e-09
1.07948e-09
1.07955e-09
1.07963e-09
1.07978e-09
1.07984e-09
1.08017e-09
1.08028e-09
1.08087e-09
1.08124e-09
1.08194e-09
1.08311e-09
1.08413e-09
1.07068e-09
1.06969e-09
1.0686e-09
1.06793e-09
1.06759e-09
1.06703e-09
1.06694e-09
1.06663e-09
1.06657e-09
1.06644e-09
1.06637e-09
1.06631e-09
1.06624e-09
1.06621e-09
1.06615e-09
1.06613e-09
1.06609e-09
1.06607e-09
1.06604e-09
1.06603e-09
1.06601e-09
1.06601e-09
1.066e-09
1.066e-09
1.066e-09
1.066e-09
1.066e-09
1.066e-09
1.06601e-09
1.06601e-09
1.06603e-09
1.06603e-09
1.06606e-09
1.06607e-09
1.06612e-09
1.06614e-09
1.06619e-09
1.06622e-09
1.06629e-09
1.06636e-09
1.06643e-09
1.06657e-09
1.06664e-09
1.06695e-09
1.06705e-09
1.06761e-09
1.06795e-09
1.06863e-09
1.06972e-09
1.07071e-09
1.05806e-09
1.05711e-09
1.05612e-09
1.05548e-09
1.05517e-09
1.05465e-09
1.05456e-09
1.05427e-09
1.05421e-09
1.05409e-09
1.05402e-09
1.05396e-09
1.05389e-09
1.05386e-09
1.0538e-09
1.05378e-09
1.05374e-09
1.05372e-09
1.05369e-09
1.05368e-09
1.05366e-09
1.05366e-09
1.05365e-09
1.05365e-09
1.05365e-09
1.05365e-09
1.05365e-09
1.05365e-09
1.05366e-09
1.05366e-09
1.05368e-09
1.05368e-09
1.05371e-09
1.05373e-09
1.05377e-09
1.05379e-09
1.05384e-09
1.05388e-09
1.05394e-09
1.05401e-09
1.05408e-09
1.05422e-09
1.05428e-09
1.05458e-09
1.05466e-09
1.05519e-09
1.0555e-09
1.05614e-09
1.05714e-09
1.05808e-09
1.04633e-09
1.04543e-09
1.04451e-09
1.04389e-09
1.0436e-09
1.04311e-09
1.04303e-09
1.04275e-09
1.0427e-09
1.04257e-09
1.04251e-09
1.04244e-09
1.04238e-09
1.04235e-09
1.04229e-09
1.04227e-09
1.04222e-09
1.04221e-09
1.04218e-09
1.04217e-09
1.04215e-09
1.04214e-09
1.04213e-09
1.04213e-09
1.04213e-09
1.04213e-09
1.04213e-09
1.04213e-09
1.04214e-09
1.04214e-09
1.04216e-09
1.04217e-09
1.0422e-09
1.04221e-09
1.04225e-09
1.04228e-09
1.04233e-09
1.04237e-09
1.04243e-09
1.0425e-09
1.04257e-09
1.0427e-09
1.04276e-09
1.04304e-09
1.04312e-09
1.04362e-09
1.04391e-09
1.04453e-09
1.04545e-09
1.04636e-09
1.03554e-09
1.0347e-09
1.03387e-09
1.0333e-09
1.03304e-09
1.03259e-09
1.03252e-09
1.03225e-09
1.0322e-09
1.03209e-09
1.03202e-09
1.03196e-09
1.0319e-09
1.03186e-09
1.03181e-09
1.03178e-09
1.03174e-09
1.03172e-09
1.03169e-09
1.03168e-09
1.03166e-09
1.03166e-09
1.03165e-09
1.03165e-09
1.03164e-09
1.03164e-09
1.03164e-09
1.03164e-09
1.03165e-09
1.03166e-09
1.03167e-09
1.03168e-09
1.03171e-09
1.03173e-09
1.03177e-09
1.03179e-09
1.03185e-09
1.03188e-09
1.03194e-09
1.03201e-09
1.03208e-09
1.0322e-09
1.03226e-09
1.03253e-09
1.0326e-09
1.03306e-09
1.03332e-09
1.0339e-09
1.03472e-09
1.03556e-09
1.02571e-09
1.02493e-09
1.02421e-09
1.02368e-09
1.02345e-09
1.02304e-09
1.02297e-09
1.02273e-09
1.02268e-09
1.02257e-09
1.02251e-09
1.02244e-09
1.02238e-09
1.02235e-09
1.02229e-09
1.02227e-09
1.02222e-09
1.0222e-09
1.02217e-09
1.02216e-09
1.02214e-09
1.02214e-09
1.02213e-09
1.02212e-09
1.02212e-09
1.02212e-09
1.02212e-09
1.02212e-09
1.02213e-09
1.02214e-09
1.02215e-09
1.02217e-09
1.02219e-09
1.02221e-09
1.02225e-09
1.02228e-09
1.02233e-09
1.02237e-09
1.02243e-09
1.02249e-09
1.02256e-09
1.02268e-09
1.02273e-09
1.02298e-09
1.02305e-09
1.02346e-09
1.0237e-09
1.02423e-09
1.02495e-09
1.02573e-09
1.01685e-09
1.01615e-09
1.01551e-09
1.01503e-09
1.01482e-09
1.01444e-09
1.01438e-09
1.01416e-09
1.01411e-09
1.014e-09
1.01394e-09
1.01388e-09
1.01382e-09
1.01378e-09
1.01373e-09
1.0137e-09
1.01366e-09
1.01364e-09
1.01361e-09
1.01359e-09
1.01358e-09
1.01357e-09
1.01356e-09
1.01356e-09
1.01355e-09
1.01355e-09
1.01355e-09
1.01356e-09
1.01356e-09
1.01357e-09
1.01359e-09
1.0136e-09
1.01363e-09
1.01365e-09
1.01369e-09
1.01372e-09
1.01377e-09
1.01381e-09
1.01386e-09
1.01393e-09
1.014e-09
1.01411e-09
1.01416e-09
1.01439e-09
1.01445e-09
1.01483e-09
1.01504e-09
1.01553e-09
1.01617e-09
1.01688e-09
1.00894e-09
1.00832e-09
1.00775e-09
1.0073e-09
1.00711e-09
1.00677e-09
1.00671e-09
1.00651e-09
1.00646e-09
1.00636e-09
1.0063e-09
1.00623e-09
1.00618e-09
1.00614e-09
1.00609e-09
1.00605e-09
1.00601e-09
1.00599e-09
1.00596e-09
1.00595e-09
1.00593e-09
1.00592e-09
1.00591e-09
1.0059e-09
1.0059e-09
1.0059e-09
1.0059e-09
1.0059e-09
1.00591e-09
1.00592e-09
1.00594e-09
1.00595e-09
1.00598e-09
1.006e-09
1.00604e-09
1.00607e-09
1.00612e-09
1.00616e-09
1.00622e-09
1.00628e-09
1.00635e-09
1.00646e-09
1.00651e-09
1.00672e-09
1.00678e-09
1.00712e-09
1.00732e-09
1.00776e-09
1.00833e-09
1.00897e-09
1.00193e-09
1.00136e-09
1.00086e-09
1.00045e-09
1.00028e-09
9.99972e-10
9.99915e-10
9.99722e-10
9.99673e-10
9.99576e-10
9.99517e-10
9.99453e-10
9.99397e-10
9.99355e-10
9.99303e-10
9.99271e-10
9.99229e-10
9.99205e-10
9.99175e-10
9.99158e-10
9.99139e-10
9.99129e-10
9.99119e-10
9.99116e-10
9.99114e-10
9.99113e-10
9.99114e-10
9.99116e-10
9.99125e-10
9.99133e-10
9.99152e-10
9.99167e-10
9.99196e-10
9.99218e-10
9.99258e-10
9.99289e-10
9.9934e-10
9.99381e-10
9.99439e-10
9.99503e-10
9.99568e-10
9.9967e-10
9.99723e-10
9.9992e-10
9.99981e-10
1.00029e-09
1.00046e-09
1.00088e-09
1.00138e-09
1.00195e-09
9.95718e-10
9.95192e-10
9.94741e-10
9.94411e-10
9.94251e-10
9.93975e-10
9.93916e-10
9.93737e-10
9.93686e-10
9.93592e-10
9.93532e-10
9.93468e-10
9.93411e-10
9.93368e-10
9.93316e-10
9.93282e-10
9.9324e-10
9.93215e-10
9.93184e-10
9.93166e-10
9.93146e-10
9.93136e-10
9.93126e-10
9.93122e-10
9.9312e-10
9.93119e-10
9.9312e-10
9.93123e-10
9.93132e-10
9.93141e-10
9.9316e-10
9.93176e-10
9.93205e-10
9.9323e-10
9.9327e-10
9.93303e-10
9.93353e-10
9.93396e-10
9.93454e-10
9.93518e-10
9.93583e-10
9.93682e-10
9.93736e-10
9.9392e-10
9.93982e-10
9.94261e-10
9.94424e-10
9.94756e-10
9.9521e-10
9.95738e-10
9.90291e-10
9.8981e-10
9.89411e-10
9.89104e-10
9.88953e-10
9.88701e-10
9.88641e-10
9.88472e-10
9.88419e-10
9.88328e-10
9.88266e-10
9.88202e-10
9.88144e-10
9.88099e-10
9.88047e-10
9.88011e-10
9.87969e-10
9.87942e-10
9.87911e-10
9.87892e-10
9.87871e-10
9.8786e-10
9.87849e-10
9.87845e-10
9.87843e-10
9.87842e-10
9.87844e-10
9.87847e-10
9.87856e-10
9.87866e-10
9.87885e-10
9.87903e-10
9.87933e-10
9.87959e-10
9.87999e-10
9.88034e-10
9.88084e-10
9.88129e-10
9.88187e-10
9.88252e-10
9.88317e-10
9.88414e-10
9.88471e-10
9.88644e-10
9.88708e-10
9.88963e-10
9.89116e-10
9.89425e-10
9.89827e-10
9.9031e-10
9.85535e-10
9.85089e-10
9.84733e-10
9.84444e-10
9.843e-10
9.84068e-10
9.84004e-10
9.83844e-10
9.83788e-10
9.83698e-10
9.83634e-10
9.83569e-10
9.83511e-10
9.83463e-10
9.83411e-10
9.83373e-10
9.83331e-10
9.83302e-10
9.8327e-10
9.8325e-10
9.83229e-10
9.83217e-10
9.83206e-10
9.83201e-10
9.83199e-10
9.83198e-10
9.832e-10
9.83203e-10
9.83213e-10
9.83224e-10
9.83244e-10
9.83263e-10
9.83293e-10
9.83321e-10
9.83362e-10
9.83398e-10
9.83449e-10
9.83496e-10
9.83555e-10
9.8362e-10
9.83687e-10
9.83782e-10
9.83842e-10
9.84005e-10
9.84073e-10
9.84308e-10
9.84455e-10
9.84746e-10
9.85105e-10
9.85554e-10
9.8136e-10
9.80938e-10
9.80617e-10
9.80342e-10
9.80201e-10
9.79984e-10
9.79916e-10
9.79764e-10
9.79704e-10
9.79613e-10
9.79548e-10
9.79482e-10
9.79422e-10
9.79373e-10
9.7932e-10
9.7928e-10
9.79237e-10
9.79206e-10
9.79175e-10
9.79153e-10
9.79131e-10
9.79118e-10
9.79107e-10
9.79102e-10
9.79099e-10
9.79098e-10
9.791e-10
9.79104e-10
9.79115e-10
9.79127e-10
9.79147e-10
9.79167e-10
9.79198e-10
9.79227e-10
9.79269e-10
9.79307e-10
9.79359e-10
9.79407e-10
9.79467e-10
9.79534e-10
9.79602e-10
9.79697e-10
9.7976e-10
9.79917e-10
9.79988e-10
9.80208e-10
9.80352e-10
9.80629e-10
9.80952e-10
9.81378e-10
9.77635e-10
9.77244e-10
9.76943e-10
9.7668e-10
9.76539e-10
9.76335e-10
9.76261e-10
9.76115e-10
9.76051e-10
9.7596e-10
9.75893e-10
9.75825e-10
9.75763e-10
9.75712e-10
9.75658e-10
9.75616e-10
9.75573e-10
9.75541e-10
9.75508e-10
9.75485e-10
9.75463e-10
9.75449e-10
9.75437e-10
9.75431e-10
9.75428e-10
9.75428e-10
9.7543e-10
9.75434e-10
9.75445e-10
9.75458e-10
9.75479e-10
9.75501e-10
9.75532e-10
9.75563e-10
9.75605e-10
9.75646e-10
9.75698e-10
9.75749e-10
9.7581e-10
9.75879e-10
9.75949e-10
9.76043e-10
9.76111e-10
9.76261e-10
9.76338e-10
9.76545e-10
9.76689e-10
9.76954e-10
9.77258e-10
9.77652e-10
9.74337e-10
9.73965e-10
9.7368e-10
9.73425e-10
9.73282e-10
9.73087e-10
9.73008e-10
9.72865e-10
9.72797e-10
9.72705e-10
9.72635e-10
9.72566e-10
9.72502e-10
9.72449e-10
9.72395e-10
9.72351e-10
9.72306e-10
9.72272e-10
9.72239e-10
9.72215e-10
9.72192e-10
9.72177e-10
9.72165e-10
9.72159e-10
9.72155e-10
9.72155e-10
9.72157e-10
9.72162e-10
9.72174e-10
9.72187e-10
9.72209e-10
9.72232e-10
9.72264e-10
9.72297e-10
9.7234e-10
9.72382e-10
9.72435e-10
9.72488e-10
9.72551e-10
9.72621e-10
9.72693e-10
9.72788e-10
9.7286e-10
9.73006e-10
9.73089e-10
9.73287e-10
9.73433e-10
9.7369e-10
9.73978e-10
9.74353e-10
9.71363e-10
9.71004e-10
9.70729e-10
9.70479e-10
9.70334e-10
9.70146e-10
9.70061e-10
9.6992e-10
9.69848e-10
9.69755e-10
9.69683e-10
9.69611e-10
9.69546e-10
9.69491e-10
9.69435e-10
9.6939e-10
9.69345e-10
9.69309e-10
9.69275e-10
9.69249e-10
9.69226e-10
9.69211e-10
9.69198e-10
9.69191e-10
9.69188e-10
9.69187e-10
9.69189e-10
9.69195e-10
9.69207e-10
9.69222e-10
9.69244e-10
9.69268e-10
9.69301e-10
9.69335e-10
9.69379e-10
9.69424e-10
9.69477e-10
9.69532e-10
9.69597e-10
9.69669e-10
9.69743e-10
9.69839e-10
9.69915e-10
9.70058e-10
9.70147e-10
9.70339e-10
9.70486e-10
9.70739e-10
9.71016e-10
9.71378e-10
9.68656e-10
9.68311e-10
9.68042e-10
9.67796e-10
9.67648e-10
9.67464e-10
9.67373e-10
9.67235e-10
9.67158e-10
9.67064e-10
9.6699e-10
9.66916e-10
9.66849e-10
9.66791e-10
9.66735e-10
9.66688e-10
9.66642e-10
9.66605e-10
9.6657e-10
9.66543e-10
9.66519e-10
9.66503e-10
9.6649e-10
9.66483e-10
9.66479e-10
9.66478e-10
9.66481e-10
9.66487e-10
9.665e-10
9.66515e-10
9.66538e-10
9.66563e-10
9.66597e-10
9.66633e-10
9.66677e-10
9.66724e-10
9.66778e-10
9.66835e-10
9.66902e-10
9.66976e-10
9.67052e-10
9.67149e-10
9.67228e-10
9.6737e-10
9.67465e-10
9.67651e-10
9.67802e-10
9.68051e-10
9.68323e-10
9.6867e-10
9.66194e-10
9.65861e-10
9.65595e-10
9.65354e-10
9.65202e-10
9.65023e-10
9.64926e-10
9.64789e-10
9.64708e-10
9.64612e-10
9.64536e-10
9.6446e-10
9.64391e-10
9.64332e-10
9.64275e-10
9.64226e-10
9.64179e-10
9.64141e-10
9.64105e-10
9.64077e-10
9.64053e-10
9.64036e-10
9.64022e-10
9.64014e-10
9.6401e-10
9.6401e-10
9.64013e-10
9.64019e-10
9.64032e-10
9.64049e-10
9.64072e-10
9.64099e-10
9.64133e-10
9.6417e-10
9.64216e-10
9.64264e-10
9.64319e-10
9.64378e-10
9.64447e-10
9.64522e-10
9.646e-10
9.64698e-10
9.64782e-10
9.64922e-10
9.65022e-10
9.65204e-10
9.65359e-10
9.65604e-10
9.65872e-10
9.66208e-10
9.63986e-10
9.63662e-10
9.63399e-10
9.63161e-10
9.63006e-10
9.6283e-10
9.62728e-10
9.62592e-10
9.62508e-10
9.62411e-10
9.62332e-10
9.62256e-10
9.62184e-10
9.62123e-10
9.62066e-10
9.62015e-10
9.61967e-10
9.61928e-10
9.61891e-10
9.61863e-10
9.61838e-10
9.6182e-10
9.61806e-10
9.61798e-10
9.61794e-10
9.61793e-10
9.61796e-10
9.61803e-10
9.61817e-10
9.61834e-10
9.61858e-10
9.61885e-10
9.6192e-10
9.61959e-10
9.62005e-10
9.62055e-10
9.62111e-10
9.62172e-10
9.62242e-10
9.62319e-10
9.62399e-10
9.62498e-10
9.62585e-10
9.62724e-10
9.62829e-10
9.63008e-10
9.63166e-10
9.63407e-10
9.63673e-10
9.63999e-10
9.62073e-10
9.61757e-10
9.61497e-10
9.61263e-10
9.61105e-10
9.60932e-10
9.60825e-10
9.60691e-10
9.60604e-10
9.60505e-10
9.60425e-10
9.60348e-10
9.60274e-10
9.60211e-10
9.60153e-10
9.60101e-10
9.60053e-10
9.60012e-10
9.59975e-10
9.59946e-10
9.5992e-10
9.59902e-10
9.59887e-10
9.59879e-10
9.59874e-10
9.59874e-10
9.59877e-10
9.59885e-10
9.59899e-10
9.59916e-10
9.59941e-10
9.59969e-10
9.60005e-10
9.60045e-10
9.60092e-10
9.60142e-10
9.60199e-10
9.60262e-10
9.60334e-10
9.60412e-10
9.60493e-10
9.60594e-10
9.60684e-10
9.6082e-10
9.60931e-10
9.61106e-10
9.61268e-10
9.61505e-10
9.61768e-10
9.62086e-10
9.60543e-10
9.60235e-10
9.59977e-10
9.59749e-10
9.59588e-10
9.59421e-10
9.59309e-10
9.59177e-10
9.59087e-10
9.58988e-10
9.58906e-10
9.58829e-10
9.58752e-10
9.58688e-10
9.5863e-10
9.58577e-10
9.58528e-10
9.58487e-10
9.58449e-10
9.58419e-10
9.58393e-10
9.58374e-10
9.58359e-10
9.58351e-10
9.58346e-10
9.58346e-10
9.58349e-10
9.58357e-10
9.58371e-10
9.58389e-10
9.58414e-10
9.58444e-10
9.5848e-10
9.5852e-10
9.58568e-10
9.5862e-10
9.58676e-10
9.58741e-10
9.58816e-10
9.58893e-10
9.58976e-10
9.59077e-10
9.5917e-10
9.59305e-10
9.5942e-10
9.5959e-10
9.59754e-10
9.59985e-10
9.60245e-10
9.60556e-10
9.59582e-10
9.59279e-10
9.59023e-10
9.58799e-10
9.58636e-10
9.58472e-10
9.58357e-10
9.58227e-10
9.58134e-10
9.58035e-10
9.57953e-10
9.57875e-10
9.57797e-10
9.57731e-10
9.57674e-10
9.5762e-10
9.57571e-10
9.57529e-10
9.57491e-10
9.57461e-10
9.57435e-10
9.57415e-10
9.574e-10
9.57391e-10
9.57387e-10
9.57386e-10
9.5739e-10
9.57398e-10
9.57412e-10
9.57431e-10
9.57456e-10
9.57486e-10
9.57522e-10
9.57563e-10
9.57611e-10
9.57664e-10
9.5772e-10
9.57786e-10
9.57862e-10
9.5794e-10
9.58024e-10
9.58124e-10
9.58219e-10
9.58352e-10
9.5847e-10
9.58638e-10
9.58804e-10
9.59031e-10
9.5929e-10
9.59596e-10
)
;

boundaryField
{
    fuel
    {
        type            fixedValue;
        value           nonuniform 0();
    }
    wall
    {
        type            zeroGradient;
    }
    outlet
    {
        type            zeroGradient;
    }
    frontAndBack
    {
        type            empty;
    }
    procBoundary3to2
    {
        type            processor;
        value           nonuniform List<scalar> 
51
(
1.25295e-09
1.25307e-09
1.25313e-09
1.2532e-09
1.25323e-09
1.25326e-09
1.25327e-09
1.2533e-09
1.2533e-09
1.25331e-09
1.25331e-09
1.25332e-09
1.25333e-09
1.25333e-09
1.25333e-09
1.25333e-09
1.25332e-09
1.25331e-09
1.25331e-09
1.25329e-09
1.25329e-09
1.25326e-09
1.25325e-09
1.25321e-09
1.25318e-09
1.25311e-09
1.25305e-09
1.25293e-09
1.2528e-09
1.25259e-09
1.25231e-09
1.2519e-09
1.25132e-09
1.25053e-09
1.24942e-09
1.24783e-09
1.24602e-09
1.24316e-09
1.24135e-09
1.24959e-09
1.25114e-09
1.25357e-09
1.25512e-09
1.25647e-09
1.25739e-09
1.25807e-09
1.25855e-09
1.25889e-09
1.25913e-09
1.2593e-09
1.2593e-09
)
;
    }
}


// ************************************************************************* //
