/*--------------------------------*- C++ -*----------------------------------*\
| =========                 |                                                 |
| \\      /  F ield         | OpenFOAM: The Open Source CFD Toolbox           |
|  \\    /   O peration     | Version:  dev                                   |
|   \\  /    A nd           | Web:      www.OpenFOAM.org                      |
|    \\/     M anipulation  |                                                 |
\*---------------------------------------------------------------------------*/
FoamFile
{
    version     2.0;
    format      ascii;
    class       volScalarField;
    location    "0.045";
    object      A2C2HA;
}
// * * * * * * * * * * * * * * * * * * * * * * * * * * * * * * * * * * * * * //

dimensions      [0 0 0 0 0 0 0];

internalField   nonuniform List<scalar> 
25
(
2.42892e-12
2.34977e-12
2.26427e-12
2.17528e-12
2.08404e-12
1.99603e-12
1.91209e-12
1.83409e-12
1.76336e-12
1.70059e-12
1.64578e-12
1.59816e-12
1.55619e-12
1.51613e-12
1.477e-12
1.43377e-12
1.3822e-12
1.31792e-12
1.23663e-12
1.13429e-12
1.00732e-12
8.5256e-13
6.67917e-13
4.56507e-13
2.53292e-13
)
;

boundaryField
{
    wall
    {
        type            zeroGradient;
    }
    fuel
    {
        type            fixedValue;
        value           nonuniform 0();
    }
    outlet
    {
        type            inletOutlet;
        inletValue      uniform 0;
        value           uniform 2.53292e-13;
    }
    procBoundary3to2
    {
        type            processor;
        value           uniform 2.499e-12;
    }
}


// ************************************************************************* //
