/*--------------------------------*- C++ -*----------------------------------*\
| =========                 |                                                 |
| \\      /  F ield         | OpenFOAM: The Open Source CFD Toolbox           |
|  \\    /   O peration     | Version:  dev                                   |
|   \\  /    A nd           | Web:      www.OpenFOAM.org                      |
|    \\/     M anipulation  |                                                 |
\*---------------------------------------------------------------------------*/
FoamFile
{
    version     2.0;
    format      ascii;
    class       volScalarField;
    location    "0.045";
    object      A2C2HA*;
}
// * * * * * * * * * * * * * * * * * * * * * * * * * * * * * * * * * * * * * //

dimensions      [0 0 0 0 0 0 0];

internalField   nonuniform List<scalar> 
250
(
1.00012e-09
1.0003e-09
1.00041e-09
9.99697e-10
9.99769e-10
9.99663e-10
9.99965e-10
1.00331e-09
1.03708e-09
1.34948e-09
3.73824e-12
6.0997e-10
6.10033e-10
6.10159e-10
6.09837e-10
6.09974e-10
6.0977e-10
6.10535e-10
6.14749e-10
6.55425e-10
1.24e-09
1.7779e-12
2.98778e-10
2.98749e-10
2.98827e-10
2.98666e-10
2.98823e-10
2.98662e-10
2.99396e-10
3.02582e-10
3.31244e-10
7.96066e-10
6.50398e-13
1.51937e-10
1.51932e-10
1.51961e-10
1.51881e-10
1.51998e-10
1.51893e-10
1.52625e-10
1.54997e-10
1.73948e-10
4.94045e-10
3.00356e-13
8.52339e-11
8.52601e-11
8.52574e-11
8.52199e-11
8.52958e-11
8.52398e-11
8.62745e-11
8.80007e-11
1.00942e-10
3.15257e-10
1.73057e-13
5.30374e-11
5.30835e-11
5.30642e-11
5.30492e-11
5.30977e-11
5.30719e-11
5.27598e-11
5.41046e-11
6.27563e-11
2.10233e-10
1.15998e-13
3.6146e-11
3.62016e-11
3.61754e-11
3.61712e-11
3.62045e-11
3.61979e-11
3.61407e-11
3.71203e-11
4.34289e-11
1.40069e-10
8.44795e-14
2.52243e-11
2.52824e-11
2.52565e-11
2.52557e-11
2.52847e-11
2.52902e-11
2.53566e-11
2.62242e-11
3.18638e-11
1.00159e-10
7.28588e-14
1.91222e-11
1.91781e-11
1.91544e-11
1.91546e-11
1.91797e-11
1.91902e-11
1.92811e-11
2.00561e-11
2.38386e-11
7.44687e-11
1.00381e-13
1.50294e-11
1.50867e-11
1.50655e-11
1.50627e-11
1.50928e-11
1.51045e-11
1.52128e-11
1.5958e-11
1.90124e-11
5.45132e-11
1.54668e-13
1.1903e-11
1.18876e-11
1.18818e-11
1.19135e-11
1.19232e-11
1.20317e-11
1.27155e-11
1.51736e-11
4.00907e-11
2.40185e-13
9.61769e-12
9.60789e-12
9.59886e-12
9.63264e-12
9.63908e-12
9.7459e-12
1.03606e-11
1.23256e-11
3.01219e-11
3.92701e-13
7.92145e-12
7.9166e-12
7.90449e-12
7.94059e-12
7.94336e-12
8.04965e-12
8.60255e-12
1.02046e-11
2.37893e-11
6.55035e-13
6.62682e-12
6.62619e-12
6.61137e-12
6.64963e-12
6.64872e-12
6.75516e-12
7.25314e-12
8.59046e-12
1.89677e-11
1.0461e-12
5.61518e-12
5.61803e-12
5.60103e-12
5.64097e-12
5.63667e-12
5.74308e-12
6.19188e-12
7.33736e-12
1.53167e-11
1.56707e-12
4.80853e-12
4.81416e-12
4.79555e-12
4.83655e-12
4.82933e-12
4.93499e-12
5.33932e-12
6.34546e-12
1.25973e-11
2.20051e-12
4.15403e-12
4.16179e-12
4.14216e-12
4.18349e-12
4.17395e-12
4.27787e-12
4.64171e-12
5.54494e-12
1.04448e-11
2.91262e-12
3.61494e-12
3.62424e-12
3.60414e-12
3.64507e-12
3.63385e-12
3.73494e-12
4.06174e-12
4.88674e-12
8.89632e-12
3.66134e-12
3.16504e-12
3.17536e-12
3.1553e-12
3.19516e-12
3.18287e-12
3.28007e-12
3.5728e-12
4.33591e-12
7.71283e-12
4.40362e-12
2.7851e-12
2.79599e-12
2.7764e-12
2.81457e-12
2.80181e-12
2.89415e-12
3.15528e-12
3.86724e-12
6.80709e-12
5.10577e-12
2.46047e-12
2.47157e-12
2.45283e-12
2.48876e-12
2.47604e-12
2.56266e-12
2.79403e-12
3.46239e-12
6.1e-12
5.74568e-12
2.17938e-12
2.19038e-12
2.17282e-12
2.206e-12
2.19376e-12
2.27399e-12
2.47644e-12
3.10775e-12
5.53136e-12
6.30779e-12
1.96081e-12
1.97136e-12
1.95499e-12
1.98562e-12
1.97425e-12
2.04814e-12
2.22908e-12
2.79243e-12
5.06131e-12
6.77639e-12
1.75948e-12
1.77074e-12
1.75414e-12
1.78483e-12
1.77259e-12
1.84398e-12
2.0097e-12
2.53851e-12
4.62752e-12
7.13321e-12
)
;

boundaryField
{
    fuel
    {
        type            fixedValue;
        value           uniform 0;
    }
    wall
    {
        type            zeroGradient;
    }
    outlet
    {
        type            zeroGradient;
    }
    frontAndBack
    {
        type            empty;
    }
    procBoundary3to0
    {
        type            processor;
        value           nonuniform List<scalar> 10(1.59188e-12 1.60258e-12 1.58718e-12 1.61543e-12 1.60414e-12 1.66948e-12 1.81702e-12 2.28758e-12 4.25497e-12 7.35794e-12);
    }
    procBoundary3to2
    {
        type            processor;
        value           nonuniform List<scalar> 
25
(
9.98973e-10
6.0968e-10
2.98672e-10
1.51929e-10
8.52833e-11
5.31199e-11
3.62453e-11
2.53313e-11
1.92274e-11
1.51396e-11
1.18531e-11
1.18531e-11
9.57512e-12
7.88556e-12
6.5968e-12
5.59025e-12
4.78798e-12
4.13722e-12
3.60131e-12
3.15412e-12
2.77649e-12
2.45388e-12
2.17462e-12
1.95703e-12
1.75664e-12
)
;
    }
}


// ************************************************************************* //
