/*--------------------------------*- C++ -*----------------------------------*\
| =========                 |                                                 |
| \\      /  F ield         | OpenFOAM: The Open Source CFD Toolbox           |
|  \\    /   O peration     | Version:  dev                                   |
|   \\  /    A nd           | Web:      www.OpenFOAM.org                      |
|    \\/     M anipulation  |                                                 |
\*---------------------------------------------------------------------------*/
FoamFile
{
    version     2.0;
    format      ascii;
    class       volScalarField;
    location    "0.045";
    object      A4-;
}
// * * * * * * * * * * * * * * * * * * * * * * * * * * * * * * * * * * * * * //

dimensions      [0 0 0 0 0 0 0];

internalField   nonuniform List<scalar> 
25
(
1.30689e-13
1.16497e-13
1.03015e-13
9.03098e-14
7.82363e-14
6.71986e-14
5.70362e-14
4.77645e-14
3.93898e-14
3.19117e-14
2.53266e-14
1.96317e-14
1.48253e-14
1.07614e-14
7.63519e-15
5.25639e-15
3.53485e-15
2.35867e-15
1.60264e-15
1.14055e-15
8.58425e-16
6.65257e-16
5.00117e-16
3.34685e-16
1.83466e-16
)
;

boundaryField
{
    wall
    {
        type            zeroGradient;
    }
    fuel
    {
        type            fixedValue;
        value           nonuniform 0();
    }
    outlet
    {
        type            inletOutlet;
        inletValue      uniform 0;
        value           uniform 1.83466e-16;
    }
    procBoundary3to2
    {
        type            processor;
        value           uniform 1.45516e-13;
    }
}


// ************************************************************************* //
