/*--------------------------------*- C++ -*----------------------------------*\
| =========                 |                                                 |
| \\      /  F ield         | OpenFOAM: The Open Source CFD Toolbox           |
|  \\    /   O peration     | Version:  dev                                   |
|   \\  /    A nd           | Web:      www.OpenFOAM.org                      |
|    \\/     M anipulation  |                                                 |
\*---------------------------------------------------------------------------*/
FoamFile
{
    version     2.0;
    format      ascii;
    class       volScalarField;
    location    "0.045";
    object      c-C6H4;
}
// * * * * * * * * * * * * * * * * * * * * * * * * * * * * * * * * * * * * * //

dimensions      [0 0 0 0 0 0 0];

internalField   nonuniform List<scalar> 
250
(
3.53108e-06
3.53043e-06
3.53062e-06
3.53028e-06
3.53088e-06
3.53005e-06
3.52921e-06
3.52801e-06
3.5078e-06
2.84069e-06
1.01394e-07
6.93321e-06
6.93239e-06
6.93249e-06
6.93215e-06
6.93365e-06
6.93238e-06
6.93717e-06
6.95298e-06
7.03354e-06
6.77839e-06
2.70572e-07
8.47698e-06
8.47702e-06
8.47693e-06
8.47645e-06
8.47842e-06
8.47665e-06
8.48784e-06
8.5251e-06
8.73413e-06
8.86347e-06
4.16236e-07
8.51665e-06
8.51762e-06
8.51715e-06
8.51655e-06
8.519e-06
8.51706e-06
8.53921e-06
8.59884e-06
8.92099e-06
9.29247e-06
5.14863e-07
7.69167e-06
7.69398e-06
7.69284e-06
7.6923e-06
7.69504e-06
7.69326e-06
7.73602e-06
7.80926e-06
8.21032e-06
8.85348e-06
5.69696e-07
6.56626e-06
6.57022e-06
6.56821e-06
6.56792e-06
6.5707e-06
6.56936e-06
6.55619e-06
6.63478e-06
7.05999e-06
8.12709e-06
5.94426e-07
5.45826e-06
5.46379e-06
5.46098e-06
5.46099e-06
5.46366e-06
5.46317e-06
5.46044e-06
5.53498e-06
5.96519e-06
7.28136e-06
6.02284e-07
4.35797e-06
4.36476e-06
4.36155e-06
4.36166e-06
4.36463e-06
4.3652e-06
4.37188e-06
4.45643e-06
4.97536e-06
6.57852e-06
6.03969e-07
3.56524e-06
3.57252e-06
3.56924e-06
3.56941e-06
3.57229e-06
3.57357e-06
3.58322e-06
3.67066e-06
4.068e-06
5.93676e-06
6.05603e-07
2.94885e-06
2.95702e-06
2.9538e-06
2.95351e-06
2.95746e-06
2.95904e-06
2.97231e-06
3.06638e-06
3.42917e-06
5.23764e-06
5.9406e-07
2.43848e-06
2.436e-06
2.43523e-06
2.43968e-06
2.44108e-06
2.45568e-06
2.54871e-06
2.87143e-06
4.55503e-06
5.62932e-07
2.0532e-06
2.05157e-06
2.05022e-06
2.05527e-06
2.0562e-06
2.07177e-06
2.15957e-06
2.43626e-06
3.95109e-06
5.12862e-07
1.76445e-06
1.76364e-06
1.7617e-06
1.7674e-06
1.76772e-06
1.78435e-06
1.86634e-06
2.10388e-06
3.48144e-06
4.53415e-07
1.54404e-06
1.54398e-06
1.54147e-06
1.54783e-06
1.54749e-06
1.56521e-06
1.64148e-06
1.8479e-06
3.05904e-06
4.06782e-07
1.37176e-06
1.37234e-06
1.36934e-06
1.37627e-06
1.3753e-06
1.39399e-06
1.46488e-06
1.6476e-06
2.6914e-06
3.96932e-07
1.2336e-06
1.23472e-06
1.23131e-06
1.23871e-06
1.23718e-06
1.2566e-06
1.32246e-06
1.48757e-06
2.38325e-06
4.38935e-07
1.12006e-06
1.1216e-06
1.1179e-06
1.12561e-06
1.12361e-06
1.1435e-06
1.20465e-06
1.3567e-06
2.11253e-06
5.36146e-07
1.02472e-06
1.02658e-06
1.02269e-06
1.03056e-06
1.02821e-06
1.04825e-06
1.10494e-06
1.2472e-06
1.89915e-06
6.80639e-07
9.43254e-07
9.45333e-07
9.41354e-07
9.49217e-07
9.46644e-07
9.66516e-07
1.01895e-06
1.15365e-06
1.72386e-06
8.5539e-07
8.72656e-07
8.74864e-07
8.709e-07
8.786e-07
8.7592e-07
8.95328e-07
9.43629e-07
1.07225e-06
1.58158e-06
1.03945e-06
8.10785e-07
8.13044e-07
8.09189e-07
8.16575e-07
8.139e-07
8.32571e-07
8.76756e-07
1.00037e-06
1.4655e-06
1.21408e-06
7.55938e-07
7.58182e-07
7.5452e-07
7.61452e-07
7.58881e-07
7.76577e-07
8.1651e-07
9.36098e-07
1.36949e-06
1.3668e-06
7.12289e-07
7.14443e-07
7.10997e-07
7.17474e-07
7.15091e-07
7.31714e-07
7.68411e-07
8.77874e-07
1.28906e-06
1.49168e-06
6.71457e-07
6.73747e-07
6.70249e-07
6.76758e-07
6.74238e-07
6.90469e-07
7.2495e-07
8.30078e-07
1.21472e-06
1.58719e-06
)
;

boundaryField
{
    fuel
    {
        type            fixedValue;
        value           uniform 0;
    }
    wall
    {
        type            zeroGradient;
    }
    outlet
    {
        type            zeroGradient;
    }
    frontAndBack
    {
        type            empty;
    }
    procBoundary3to0
    {
        type            processor;
        value           nonuniform List<scalar> 10(6.36765e-07 6.38956e-07 6.3568e-07 6.41741e-07 6.3943e-07 6.54551e-07 6.86058e-07 7.82194e-07 1.15114e-06 1.65311e-06);
    }
    procBoundary3to2
    {
        type            processor;
        value           nonuniform List<scalar> 
25
(
3.52841e-06
6.93263e-06
8.47767e-06
8.51861e-06
7.69571e-06
6.57306e-06
5.46787e-06
4.3702e-06
3.5787e-06
2.96431e-06
2.43114e-06
2.43114e-06
2.04669e-06
1.7588e-06
1.5392e-06
1.36766e-06
1.23015e-06
1.11717e-06
1.02233e-06
9.41279e-07
8.7105e-07
8.09511e-07
7.54977e-07
7.11493e-07
6.70827e-07
)
;
    }
}


// ************************************************************************* //
