/*--------------------------------*- C++ -*----------------------------------*\
| =========                 |                                                 |
| \\      /  F ield         | OpenFOAM: The Open Source CFD Toolbox           |
|  \\    /   O peration     | Version:  dev                                   |
|   \\  /    A nd           | Web:      www.OpenFOAM.org                      |
|    \\/     M anipulation  |                                                 |
\*---------------------------------------------------------------------------*/
FoamFile
{
    version     2.0;
    format      ascii;
    class       volScalarField;
    location    "0.045";
    object      C2H3O;
}
// * * * * * * * * * * * * * * * * * * * * * * * * * * * * * * * * * * * * * //

dimensions      [0 0 0 0 0 0 0];

internalField   nonuniform List<scalar> 
25
(
7.17305e-11
9.00458e-11
1.16339e-10
1.54166e-10
2.10132e-10
2.91843e-10
4.15069e-10
6.04922e-10
9.0493e-10
1.39337e-09
2.21752e-09
3.67107e-09
6.38456e-09
1.20139e-08
2.37419e-08
4.77435e-08
8.74678e-08
1.34625e-07
1.73738e-07
1.94567e-07
1.94877e-07
1.7671e-07
1.43402e-07
9.92502e-08
5.49567e-08
)
;

boundaryField
{
    wall
    {
        type            zeroGradient;
    }
    fuel
    {
        type            fixedValue;
        value           nonuniform 0();
    }
    outlet
    {
        type            inletOutlet;
        inletValue      uniform 0;
        value           uniform 5.49567e-08;
    }
    procBoundary3to2
    {
        type            processor;
        value           uniform 5.84869e-11;
    }
}


// ************************************************************************* //
