/*--------------------------------*- C++ -*----------------------------------*\
| =========                 |                                                 |
| \\      /  F ield         | OpenFOAM: The Open Source CFD Toolbox           |
|  \\    /   O peration     | Version:  dev                                   |
|   \\  /    A nd           | Web:      www.OpenFOAM.org                      |
|    \\/     M anipulation  |                                                 |
\*---------------------------------------------------------------------------*/
FoamFile
{
    version     2.0;
    format      ascii;
    class       volScalarField;
    location    "0.045";
    object      CH2CO;
}
// * * * * * * * * * * * * * * * * * * * * * * * * * * * * * * * * * * * * * //

dimensions      [0 0 0 0 0 0 0];

internalField   nonuniform List<scalar> 
250
(
0.000470205
0.00047032
0.000470331
0.000470068
0.000470021
0.00047011
0.000469655
0.000471178
0.000486327
0.000750309
0.000187513
0.000217581
0.000217543
0.000217565
0.000217494
0.000217506
0.00021755
0.00021755
0.000218073
0.000222911
0.000303621
0.000415727
0.000130727
0.000130714
0.00013073
0.000130696
0.000130723
0.000130709
0.000130795
0.000131132
0.000133538
0.000172773
0.000535065
9.2017e-05
9.20155e-05
9.20244e-05
9.20026e-05
9.20326e-05
9.2008e-05
9.21555e-05
9.24722e-05
9.41569e-05
0.0001228
0.000557776
7.05436e-05
7.05514e-05
7.05538e-05
7.05382e-05
7.0567e-05
7.0545e-05
7.08715e-05
7.11649e-05
7.25159e-05
9.65107e-05
0.000522269
5.74297e-05
5.74466e-05
5.74433e-05
5.74326e-05
5.74589e-05
5.74417e-05
5.72516e-05
5.75744e-05
5.84799e-05
7.93544e-05
0.000463253
4.91717e-05
4.91963e-05
4.9189e-05
4.91817e-05
4.92063e-05
4.9195e-05
4.91415e-05
4.9411e-05
5.00446e-05
6.54839e-05
0.000401214
4.31459e-05
4.31771e-05
4.31686e-05
4.31619e-05
4.31896e-05
4.3183e-05
4.32177e-05
4.35279e-05
4.44331e-05
5.58189e-05
0.000339963
3.94988e-05
3.95337e-05
3.95257e-05
3.95181e-05
3.95486e-05
3.95438e-05
3.96129e-05
3.99452e-05
4.03081e-05
4.87612e-05
0.00027345
3.68817e-05
3.69228e-05
3.6916e-05
3.69046e-05
3.69441e-05
3.69387e-05
3.70384e-05
3.74214e-05
3.77293e-05
4.28171e-05
0.000205135
3.47064e-05
3.47037e-05
3.46875e-05
3.47353e-05
3.47268e-05
3.48477e-05
3.52643e-05
3.55712e-05
3.82448e-05
0.000146104
3.29152e-05
3.29174e-05
3.28955e-05
3.29525e-05
3.29396e-05
3.30797e-05
3.35172e-05
3.3828e-05
3.49603e-05
0.000101239
3.13806e-05
3.13878e-05
3.13598e-05
3.14269e-05
3.14086e-05
3.1568e-05
3.20228e-05
3.23656e-05
3.28569e-05
6.9977e-05
3.00114e-05
3.00238e-05
2.99894e-05
3.00667e-05
3.00426e-05
3.0221e-05
3.06887e-05
3.10818e-05
3.1271e-05
4.96175e-05
2.87583e-05
2.87759e-05
2.87353e-05
2.88225e-05
2.87924e-05
2.89887e-05
2.94641e-05
2.99173e-05
3.00685e-05
3.7152e-05
2.75941e-05
2.76168e-05
2.75703e-05
2.76667e-05
2.76306e-05
2.7843e-05
2.83205e-05
2.88367e-05
2.91369e-05
2.99596e-05
2.65026e-05
2.653e-05
2.64783e-05
2.65827e-05
2.6541e-05
2.67671e-05
2.72413e-05
2.78182e-05
2.83198e-05
2.60388e-05
2.54729e-05
2.55047e-05
2.54483e-05
2.55596e-05
2.55129e-05
2.57499e-05
2.62155e-05
2.68475e-05
2.76234e-05
2.4051e-05
2.44966e-05
2.45322e-05
2.4472e-05
2.45886e-05
2.45377e-05
2.47825e-05
2.52347e-05
2.59147e-05
2.69617e-05
2.31843e-05
2.35658e-05
2.36047e-05
2.35417e-05
2.36619e-05
2.36078e-05
2.3857e-05
2.42913e-05
2.50123e-05
2.63108e-05
2.29344e-05
2.26726e-05
2.27142e-05
2.26492e-05
2.27714e-05
2.2715e-05
2.29655e-05
2.33763e-05
2.41347e-05
2.56523e-05
2.29652e-05
2.18073e-05
2.18513e-05
2.17852e-05
2.19075e-05
2.18498e-05
2.20984e-05
2.24786e-05
2.3277e-05
2.49759e-05
2.30555e-05
2.10635e-05
2.11086e-05
2.1042e-05
2.11639e-05
2.11062e-05
2.13501e-05
2.1709e-05
2.2433e-05
2.42841e-05
2.3075e-05
2.03014e-05
2.0353e-05
2.02796e-05
2.04121e-05
2.03469e-05
2.06013e-05
2.09568e-05
2.16912e-05
2.35201e-05
2.2959e-05
)
;

boundaryField
{
    fuel
    {
        type            fixedValue;
        value           uniform 0;
    }
    wall
    {
        type            zeroGradient;
    }
    outlet
    {
        type            zeroGradient;
    }
    frontAndBack
    {
        type            empty;
    }
    procBoundary3to0
    {
        type            processor;
        value           nonuniform List<scalar> 10(1.95994e-05 1.96527e-05 1.95783e-05 1.97111e-05 1.96454e-05 1.9895e-05 2.02292e-05 2.0885e-05 2.27637e-05 2.26831e-05);
    }
    procBoundary3to2
    {
        type            processor;
        value           nonuniform List<scalar> 
25
(
0.00046957
0.000217468
0.0001307
9.20153e-05
7.05582e-05
5.74599e-05
4.92159e-05
4.32038e-05
3.95652e-05
3.69616e-05
3.46658e-05
3.46658e-05
3.28759e-05
3.13432e-05
2.9976e-05
2.87253e-05
2.75636e-05
2.64747e-05
2.54478e-05
2.44742e-05
2.35465e-05
2.26563e-05
2.17947e-05
2.10525e-05
2.02924e-05
)
;
    }
}


// ************************************************************************* //
