/*--------------------------------*- C++ -*----------------------------------*\
| =========                 |                                                 |
| \\      /  F ield         | OpenFOAM: The Open Source CFD Toolbox           |
|  \\    /   O peration     | Version:  dev                                   |
|   \\  /    A nd           | Web:      www.OpenFOAM.org                      |
|    \\/     M anipulation  |                                                 |
\*---------------------------------------------------------------------------*/
FoamFile
{
    version     2.0;
    format      ascii;
    class       volScalarField;
    location    "0.045";
    object      HCO;
}
// * * * * * * * * * * * * * * * * * * * * * * * * * * * * * * * * * * * * * //

dimensions      [0 0 0 0 0 0 0];

internalField   nonuniform List<scalar> 
25
(
1.77274e-08
1.71746e-08
1.66941e-08
1.62846e-08
1.59371e-08
1.56683e-08
1.54706e-08
1.53423e-08
1.528e-08
1.52777e-08
1.53271e-08
1.54191e-08
1.55501e-08
1.57275e-08
1.6003e-08
1.64571e-08
1.72344e-08
1.85975e-08
2.09783e-08
2.48525e-08
2.99672e-08
3.38343e-08
3.2367e-08
2.42749e-08
1.36126e-08
)
;

boundaryField
{
    wall
    {
        type            zeroGradient;
    }
    fuel
    {
        type            fixedValue;
        value           nonuniform 0();
    }
    outlet
    {
        type            inletOutlet;
        inletValue      uniform 0;
        value           uniform 1.36126e-08;
    }
    procBoundary3to2
    {
        type            processor;
        value           uniform 1.83528e-08;
    }
}


// ************************************************************************* //
