/*--------------------------------*- C++ -*----------------------------------*\
| =========                 |                                                 |
| \\      /  F ield         | OpenFOAM: The Open Source CFD Toolbox           |
|  \\    /   O peration     | Version:  dev                                   |
|   \\  /    A nd           | Web:      www.OpenFOAM.org                      |
|    \\/     M anipulation  |                                                 |
\*---------------------------------------------------------------------------*/
FoamFile
{
    version     2.0;
    format      ascii;
    class       volScalarField;
    location    "0.045";
    object      HO2;
}
// * * * * * * * * * * * * * * * * * * * * * * * * * * * * * * * * * * * * * //

dimensions      [0 0 0 0 0 0 0];

internalField   nonuniform List<scalar> 
250
(
1.95967e-06
1.95413e-06
1.95409e-06
1.95146e-06
1.95544e-06
1.95923e-06
1.95679e-06
1.96304e-06
2.01536e-06
2.49171e-06
4.09933e-05
8.54969e-07
8.53718e-07
8.53693e-07
8.53148e-07
8.53988e-07
8.54897e-07
8.54501e-07
8.57418e-07
8.81075e-07
1.18318e-06
7.82318e-05
3.68136e-07
3.67844e-07
3.67829e-07
3.67724e-07
3.67883e-07
3.68169e-07
3.68065e-07
3.69595e-07
3.80584e-07
6.30827e-07
9.50545e-05
1.57983e-07
1.57916e-07
1.57909e-07
1.57897e-07
1.57913e-07
1.58029e-07
1.57971e-07
1.58793e-07
1.64846e-07
4.03672e-07
0.000100464
6.8902e-08
6.88878e-08
6.88846e-08
6.88882e-08
6.88797e-08
6.89313e-08
6.88786e-08
6.91528e-08
7.1299e-08
3.11191e-07
0.000101555
2.90364e-08
2.90321e-08
2.90334e-08
2.9035e-08
2.90273e-08
2.90623e-08
2.90558e-08
2.95405e-08
3.20665e-08
2.76522e-07
0.000103543
1.30945e-08
1.30939e-08
1.30945e-08
1.30955e-08
1.30907e-08
1.31052e-08
1.30846e-08
1.32589e-08
1.51827e-08
2.7029e-07
0.000109978
5.84585e-09
5.84479e-09
5.8465e-09
5.84541e-09
5.84416e-09
5.85663e-09
5.8738e-09
6.14721e-09
7.58069e-09
2.78326e-07
0.000122893
2.80375e-09
2.80313e-09
2.80427e-09
2.80329e-09
2.80286e-09
2.80908e-09
2.81689e-09
2.90618e-09
3.92935e-09
2.72066e-07
0.000127902
1.28382e-09
1.28318e-09
1.28378e-09
1.28319e-09
1.28309e-09
1.28581e-09
1.28923e-09
1.35705e-09
2.29844e-09
2.06632e-07
8.4896e-05
6.56493e-10
6.56864e-10
6.56458e-10
6.56481e-10
6.57657e-10
6.5837e-10
6.52928e-10
1.40304e-09
1.35373e-07
4.62839e-05
3.47636e-10
3.47944e-10
3.47522e-10
3.4768e-10
3.4851e-10
3.50064e-10
3.57009e-10
8.70443e-10
8.28004e-08
2.26026e-05
1.96019e-10
1.96208e-10
1.95942e-10
1.96068e-10
1.96441e-10
1.97056e-10
2.02088e-10
5.68066e-10
5.05848e-08
1.07474e-05
1.24168e-10
1.24294e-10
1.24116e-10
1.24218e-10
1.24383e-10
1.24543e-10
1.27539e-10
4.06081e-10
3.21683e-08
5.32334e-06
8.91711e-11
8.92647e-11
8.91347e-11
8.92219e-11
8.92928e-11
8.92318e-11
9.08788e-11
2.98642e-10
2.14816e-08
2.82241e-06
7.13357e-11
7.14141e-11
7.13096e-11
7.13891e-11
7.14207e-11
7.12521e-11
7.20193e-11
2.26305e-10
1.49155e-08
1.59621e-06
6.15234e-11
6.15963e-11
6.15038e-11
6.15811e-11
6.15991e-11
6.13814e-11
6.15909e-11
1.76003e-10
1.06128e-08
9.45547e-07
5.54511e-11
5.55239e-11
5.54355e-11
5.55145e-11
5.55314e-11
5.52958e-11
5.5169e-11
1.38684e-10
7.41506e-09
5.75428e-07
5.10915e-11
5.11674e-11
5.10787e-11
5.11618e-11
5.11839e-11
5.0948e-11
5.06424e-11
1.10573e-10
5.19285e-09
3.54788e-07
4.74737e-11
4.75544e-11
4.7463e-11
4.75516e-11
4.7582e-11
4.73564e-11
4.69843e-11
8.91806e-11
3.61973e-09
2.19934e-07
4.41241e-11
4.42105e-11
4.41155e-11
4.42101e-11
4.42503e-11
4.40414e-11
4.3676e-11
7.28179e-11
2.49403e-09
1.36666e-07
4.08008e-11
4.08928e-11
4.07944e-11
4.08946e-11
4.09453e-11
4.07571e-11
4.04295e-11
6.03376e-11
1.77328e-09
8.50828e-08
3.77604e-11
3.78587e-11
3.77549e-11
3.78618e-11
3.79212e-11
3.77519e-11
3.74707e-11
5.03797e-11
1.195e-09
5.30398e-08
3.44203e-11
3.45319e-11
3.44172e-11
3.4536e-11
3.4609e-11
3.44621e-11
3.44668e-11
4.23988e-11
8.22876e-10
3.29918e-08
)
;

boundaryField
{
    fuel
    {
        type            fixedValue;
        value           uniform 0;
    }
    wall
    {
        type            zeroGradient;
    }
    outlet
    {
        type            zeroGradient;
    }
    frontAndBack
    {
        type            empty;
    }
    procBoundary3to0
    {
        type            processor;
        value           nonuniform List<scalar> 10(3.11827e-11 3.13002e-11 3.11807e-11 3.13049e-11 3.1385e-11 3.12573e-11 3.11198e-11 3.57937e-11 5.61147e-10 2.0482e-08);
    }
    procBoundary3to2
    {
        type            processor;
        value           nonuniform List<scalar> 
25
(
1.95459e-06
8.53794e-07
3.67849e-07
1.57914e-07
6.88853e-08
2.90352e-08
1.30951e-08
5.84737e-09
2.80469e-09
1.28397e-09
6.5727e-10
6.5727e-10
3.48025e-10
1.96202e-10
1.24258e-10
8.92171e-11
7.13618e-11
6.15405e-11
5.5464e-11
5.11024e-11
4.74836e-11
4.41333e-11
4.08093e-11
3.77684e-11
3.44276e-11
)
;
    }
}


// ************************************************************************* //
