/*--------------------------------*- C++ -*----------------------------------*\
| =========                 |                                                 |
| \\      /  F ield         | OpenFOAM: The Open Source CFD Toolbox           |
|  \\    /   O peration     | Version:  dev                                   |
|   \\  /    A nd           | Web:      www.OpenFOAM.org                      |
|    \\/     M anipulation  |                                                 |
\*---------------------------------------------------------------------------*/
FoamFile
{
    version     2.0;
    format      ascii;
    class       volScalarField;
    location    "0.045";
    object      l-C6H4;
}
// * * * * * * * * * * * * * * * * * * * * * * * * * * * * * * * * * * * * * //

dimensions      [0 0 0 0 0 0 0];

internalField   nonuniform List<scalar> 
25
(
1.40868e-10
1.67352e-10
1.99958e-10
2.38101e-10
2.81332e-10
3.26559e-10
3.72355e-10
4.16511e-10
4.57e-10
4.92202e-10
5.21e-10
5.42743e-10
5.57115e-10
5.64241e-10
5.6371e-10
5.55704e-10
5.40098e-10
5.16617e-10
4.848e-10
4.44004e-10
3.93438e-10
3.32231e-10
2.59737e-10
1.77223e-10
9.82193e-11
)
;

boundaryField
{
    wall
    {
        type            zeroGradient;
    }
    fuel
    {
        type            fixedValue;
        value           nonuniform 0();
    }
    outlet
    {
        type            inletOutlet;
        inletValue      uniform 0;
        value           uniform 9.82193e-11;
    }
    procBoundary3to2
    {
        type            processor;
        value           uniform 1.20561e-10;
    }
}


// ************************************************************************* //
