/*--------------------------------*- C++ -*----------------------------------*\
| =========                 |                                                 |
| \\      /  F ield         | OpenFOAM: The Open Source CFD Toolbox           |
|  \\    /   O peration     | Version:  dev                                   |
|   \\  /    A nd           | Web:      www.OpenFOAM.org                      |
|    \\/     M anipulation  |                                                 |
\*---------------------------------------------------------------------------*/
FoamFile
{
    version     2.0;
    format      ascii;
    class       volScalarField;
    location    "0.045";
    object      n-A1C2H2;
}
// * * * * * * * * * * * * * * * * * * * * * * * * * * * * * * * * * * * * * //

dimensions      [0 0 0 0 0 0 0];

internalField   nonuniform List<scalar> 
250
(
7.07976e-09
7.08119e-09
7.08169e-09
7.08299e-09
7.0828e-09
7.08385e-09
7.09695e-09
7.12826e-09
7.40853e-09
1.22959e-08
3.47449e-11
3.27327e-09
3.27307e-09
3.27363e-09
3.27306e-09
3.27349e-09
3.27352e-09
3.27799e-09
3.29509e-09
3.46532e-09
6.33505e-09
4.65515e-10
1.53914e-09
1.53887e-09
1.53926e-09
1.53867e-09
1.5393e-09
1.53879e-09
1.5418e-09
1.55345e-09
1.66567e-09
3.68605e-09
1.18943e-09
7.80475e-10
7.80353e-10
7.80545e-10
7.80163e-10
7.80672e-10
7.80226e-10
7.8337e-10
7.9241e-10
8.70529e-10
2.37299e-09
1.33935e-09
4.35441e-10
4.35478e-10
4.35517e-10
4.3531e-10
4.35646e-10
4.35383e-10
4.40346e-10
4.47233e-10
5.04386e-10
1.6365e-09
1.23008e-09
2.66898e-10
2.67041e-10
2.6699e-10
2.66892e-10
2.67104e-10
2.66972e-10
2.65037e-10
2.70709e-10
3.11264e-10
1.17751e-09
1.3085e-09
1.7788e-10
1.78082e-10
1.77986e-10
1.77948e-10
1.78087e-10
1.78046e-10
1.77528e-10
1.81692e-10
2.12738e-10
8.37805e-10
1.54317e-09
1.20771e-10
1.20998e-10
1.20895e-10
1.2088e-10
1.20998e-10
1.21018e-10
1.21208e-10
1.25022e-10
1.53901e-10
6.24648e-10
1.61167e-09
8.9597e-11
8.98196e-11
8.97225e-11
8.97169e-11
8.98142e-11
8.98607e-11
9.02179e-11
9.36643e-11
1.13728e-10
4.77533e-10
1.32391e-09
6.94571e-11
6.96922e-11
6.96032e-11
6.95869e-11
6.9707e-11
6.97609e-11
7.02311e-11
7.35796e-11
9.02168e-11
3.57027e-10
8.64215e-10
5.4744e-11
5.468e-11
5.46524e-11
5.47796e-11
5.48252e-11
5.53174e-11
5.84095e-11
7.21373e-11
2.66342e-10
5.37318e-10
4.45122e-11
4.44722e-11
4.44317e-11
4.45688e-11
4.46001e-11
4.50996e-11
4.78969e-11
5.91513e-11
2.0176e-10
3.59101e-10
3.72323e-11
3.72135e-11
3.716e-11
3.73087e-11
3.7324e-11
3.78329e-11
4.0371e-11
4.97475e-11
1.59805e-10
2.46567e-10
3.18582e-11
3.1857e-11
3.1792e-11
3.19516e-11
3.19511e-11
3.24703e-11
3.4783e-11
4.27434e-11
1.27466e-10
1.69602e-10
2.7755e-11
2.7768e-11
2.76939e-11
2.7862e-11
2.78472e-11
2.8374e-11
3.04886e-11
3.73844e-11
1.02801e-10
1.20125e-10
2.45295e-11
2.45534e-11
2.44728e-11
2.46461e-11
2.46195e-11
2.51486e-11
2.70859e-11
3.31777e-11
8.43255e-11
9.10253e-11
2.19329e-11
2.19648e-11
2.18804e-11
2.20551e-11
2.20196e-11
2.25445e-11
2.43209e-11
2.97966e-11
6.96208e-11
7.48066e-11
1.98049e-11
1.98418e-11
1.97564e-11
1.99287e-11
1.98873e-11
2.04012e-11
2.20298e-11
2.70247e-11
5.90061e-11
6.58733e-11
1.80394e-11
1.80789e-11
1.7995e-11
1.81609e-11
1.81168e-11
1.86132e-11
2.01044e-11
2.47155e-11
5.08986e-11
6.08652e-11
1.65644e-11
1.66041e-11
1.65242e-11
1.668e-11
1.66362e-11
1.71089e-11
1.84711e-11
2.27691e-11
4.47496e-11
5.79653e-11
1.53289e-11
1.53669e-11
1.52932e-11
1.54354e-11
1.53947e-11
1.58383e-11
1.70772e-11
2.11168e-11
4.00604e-11
5.62425e-11
1.42958e-11
1.43302e-11
1.42649e-11
1.439e-11
1.4355e-11
1.47648e-11
1.58825e-11
1.9711e-11
3.64515e-11
5.52413e-11
1.35435e-11
1.35727e-11
1.35163e-11
1.36247e-11
1.35971e-11
1.39731e-11
1.49991e-11
1.85166e-11
3.36657e-11
5.47375e-11
1.29105e-11
1.29378e-11
1.28863e-11
1.29854e-11
1.29605e-11
1.33143e-11
1.42711e-11
1.76229e-11
3.1332e-11
5.45932e-11
)
;

boundaryField
{
    fuel
    {
        type            fixedValue;
        value           uniform 0;
    }
    wall
    {
        type            zeroGradient;
    }
    outlet
    {
        type            zeroGradient;
    }
    frontAndBack
    {
        type            empty;
    }
    procBoundary3to0
    {
        type            processor;
        value           nonuniform List<scalar> 10(1.24563e-11 1.2477e-11 1.24358e-11 1.25165e-11 1.2501e-11 1.28201e-11 1.36985e-11 1.68133e-11 2.95573e-11 5.4696e-11);
    }
    procBoundary3to2
    {
        type            processor;
        value           nonuniform List<scalar> 
25
(
7.09171e-09
3.27479e-09
1.53906e-09
7.80375e-10
4.35535e-10
2.67152e-10
1.78232e-10
1.21178e-10
9.0006e-11
6.98979e-11
5.45457e-11
5.45457e-11
4.43437e-11
3.70905e-11
3.17394e-11
2.76561e-11
2.44475e-11
2.18652e-11
1.97493e-11
1.79941e-11
1.65279e-11
1.53002e-11
1.42741e-11
1.35257e-11
1.28965e-11
)
;
    }
}


// ************************************************************************* //
