/*--------------------------------*- C++ -*----------------------------------*\
| =========                 |                                                 |
| \\      /  F ield         | OpenFOAM: The Open Source CFD Toolbox           |
|  \\    /   O peration     | Version:  dev                                   |
|   \\  /    A nd           | Web:      www.OpenFOAM.org                      |
|    \\/     M anipulation  |                                                 |
\*---------------------------------------------------------------------------*/
FoamFile
{
    version     2.0;
    format      ascii;
    class       volScalarField;
    location    "0.045";
    object      n-C6H7;
}
// * * * * * * * * * * * * * * * * * * * * * * * * * * * * * * * * * * * * * //

dimensions      [0 0 0 0 0 0 0];

internalField   nonuniform List<scalar> 
250
(
1.71234e-11
1.7126e-11
1.71271e-11
1.7102e-11
1.71029e-11
1.71001e-11
1.70566e-11
1.70339e-11
1.71649e-11
1.7313e-11
1.07235e-13
1.25856e-11
1.25854e-11
1.25875e-11
1.25801e-11
1.2583e-11
1.2579e-11
1.25791e-11
1.25962e-11
1.2819e-11
1.4481e-11
1.48988e-13
6.70334e-12
6.70205e-12
6.70388e-12
6.70026e-12
6.70368e-12
6.69963e-12
6.70778e-12
6.72881e-12
6.92763e-12
8.73879e-12
1.35725e-13
3.414e-12
3.41325e-12
3.41423e-12
3.41229e-12
3.41481e-12
3.41195e-12
3.42334e-12
3.4429e-12
3.59281e-12
5.01644e-12
1.23569e-13
1.83389e-12
1.83384e-12
1.83411e-12
1.83316e-12
1.83467e-12
1.83305e-12
1.85319e-12
1.86811e-12
1.97911e-12
2.98611e-12
1.40628e-13
1.07719e-12
1.07761e-12
1.07747e-12
1.07706e-12
1.0779e-12
1.07706e-12
1.06674e-12
1.07963e-12
1.15286e-12
1.90546e-12
2.0766e-13
6.97788e-13
6.98438e-13
6.9811e-13
6.97983e-13
6.98449e-13
6.98099e-13
6.94359e-13
7.02641e-13
7.56887e-13
1.25103e-12
2.9833e-13
4.68916e-13
4.69661e-13
4.69299e-13
4.69278e-13
4.69628e-13
4.69578e-13
4.69084e-13
4.77199e-13
5.36083e-13
9.04789e-13
3.12681e-13
3.4983e-13
3.50571e-13
3.50225e-13
3.50247e-13
3.50507e-13
3.50588e-13
3.50952e-13
3.58489e-13
3.94697e-13
6.93698e-13
1.99496e-13
2.75592e-13
2.76417e-13
2.76098e-13
2.76083e-13
2.76424e-13
2.76551e-13
2.77461e-13
2.85259e-13
3.15696e-13
5.36154e-13
8.38825e-14
2.22653e-13
2.2242e-13
2.22363e-13
2.22738e-13
2.22848e-13
2.23946e-13
2.31431e-13
2.57021e-13
4.2389e-13
3.73056e-14
1.86242e-13
1.86095e-13
1.85985e-13
1.86411e-13
1.86476e-13
1.87689e-13
1.94635e-13
2.15691e-13
3.45513e-13
2.31891e-14
1.60349e-13
1.6028e-13
1.60114e-13
1.60603e-13
1.60611e-13
1.6194e-13
1.6839e-13
1.86002e-13
2.94398e-13
1.75633e-14
1.41083e-13
1.41083e-13
1.40863e-13
1.41417e-13
1.41365e-13
1.4281e-13
1.48818e-13
1.63888e-13
2.53833e-13
1.59924e-14
1.26145e-13
1.26204e-13
1.25937e-13
1.2655e-13
1.2644e-13
1.27991e-13
1.33601e-13
1.46844e-13
2.21413e-13
1.90386e-14
1.14134e-13
1.14242e-13
1.13935e-13
1.14598e-13
1.14436e-13
1.16074e-13
1.21317e-13
1.3327e-13
1.95715e-13
2.66953e-14
1.04171e-13
1.04319e-13
1.03981e-13
1.04682e-13
1.04475e-13
1.06175e-13
1.11075e-13
1.22121e-13
1.7393e-13
3.79878e-14
9.56969e-14
9.5876e-14
9.5515e-14
9.624e-14
9.59992e-14
9.77328e-14
1.02303e-13
1.12703e-13
1.57117e-13
5.16474e-14
8.8342e-14
8.85441e-14
8.81698e-14
8.89048e-14
8.86396e-14
9.03786e-14
9.46277e-14
1.04552e-13
1.43404e-13
6.63592e-14
8.18566e-14
8.20741e-14
8.16953e-14
8.2426e-14
8.21469e-14
8.38632e-14
8.77919e-14
9.73526e-14
1.3226e-13
8.08763e-14
7.60609e-14
7.62871e-14
7.59122e-14
7.66247e-14
7.63414e-14
7.8009e-14
8.16091e-14
9.0884e-14
1.23087e-13
9.4166e-14
7.08131e-14
7.10426e-14
7.06792e-14
7.13603e-14
7.10814e-14
7.26773e-14
7.59261e-14
8.49902e-14
1.15378e-13
1.05547e-13
6.6559e-14
6.67845e-14
6.64351e-14
6.70841e-14
6.68176e-14
6.83301e-14
7.13142e-14
7.95452e-14
1.08778e-13
1.14704e-13
6.24689e-14
6.2716e-14
6.23502e-14
6.30214e-14
6.27302e-14
6.42344e-14
6.70528e-14
7.50006e-14
1.02529e-13
1.2167e-13
)
;

boundaryField
{
    fuel
    {
        type            fixedValue;
        value           uniform 0;
    }
    wall
    {
        type            zeroGradient;
    }
    outlet
    {
        type            zeroGradient;
    }
    frontAndBack
    {
        type            empty;
    }
    procBoundary3to0
    {
        type            processor;
        value           nonuniform List<scalar> 10(5.89058e-14 5.91497e-14 5.87968e-14 5.94387e-14 5.91595e-14 6.05776e-14 6.31474e-14 7.03249e-14 9.70203e-14 1.26135e-13);
    }
    procBoundary3to2
    {
        type            processor;
        value           nonuniform List<scalar> 
25
(
1.70405e-11
1.257e-11
6.69863e-12
3.41238e-12
1.83373e-12
1.07783e-12
6.98847e-13
4.70204e-13
3.51147e-13
2.77077e-13
2.2191e-13
2.2191e-13
1.85654e-13
1.59856e-13
1.40665e-13
1.25792e-13
1.13835e-13
1.03919e-13
9.54853e-14
8.81659e-14
8.17121e-14
7.59454e-14
7.07261e-14
6.64866e-14
6.24123e-14
)
;
    }
}


// ************************************************************************* //
