/*--------------------------------*- C++ -*----------------------------------*\
| =========                 |                                                 |
| \\      /  F ield         | OpenFOAM: The Open Source CFD Toolbox           |
|  \\    /   O peration     | Version:  dev                                   |
|   \\  /    A nd           | Web:      www.OpenFOAM.org                      |
|    \\/     M anipulation  |                                                 |
\*---------------------------------------------------------------------------*/
FoamFile
{
    version     2.0;
    format      ascii;
    class       volScalarField;
    location    "0.045";
    object      naphthyne;
}
// * * * * * * * * * * * * * * * * * * * * * * * * * * * * * * * * * * * * * //

dimensions      [0 0 0 0 0 0 0];

internalField   nonuniform List<scalar> 
250
(
6.66739e-08
6.66978e-08
6.66966e-08
6.67059e-08
6.67278e-08
6.66725e-08
6.67436e-08
6.7037e-08
6.89681e-08
8.21479e-08
2.38958e-09
5.4711e-08
5.47161e-08
5.47146e-08
5.47169e-08
5.4725e-08
5.47147e-08
5.47688e-08
5.52029e-08
5.79286e-08
7.70494e-08
5.46022e-09
4.18631e-08
4.18647e-08
4.18635e-08
4.18636e-08
4.18657e-08
4.18706e-08
4.19211e-08
4.23792e-08
4.55501e-08
6.81616e-08
7.78933e-09
3.20461e-08
3.20468e-08
3.20462e-08
3.20456e-08
3.20449e-08
3.20559e-08
3.21035e-08
3.25808e-08
3.60273e-08
6.05543e-08
9.58987e-09
2.46477e-08
2.46481e-08
2.46481e-08
2.4647e-08
2.46452e-08
2.46582e-08
2.47004e-08
2.51647e-08
2.85038e-08
5.39937e-08
1.10444e-08
1.85625e-08
1.8562e-08
1.85635e-08
1.8561e-08
1.85596e-08
1.85756e-08
1.8621e-08
1.91821e-08
2.27621e-08
4.82896e-08
1.22684e-08
1.42758e-08
1.42753e-08
1.42773e-08
1.4274e-08
1.42734e-08
1.42871e-08
1.43239e-08
1.48395e-08
1.832e-08
4.33974e-08
1.33191e-08
1.08795e-08
1.0878e-08
1.08815e-08
1.08762e-08
1.08778e-08
1.08946e-08
1.0954e-08
1.15867e-08
1.47616e-08
3.92363e-08
1.42016e-08
8.52109e-09
8.51945e-09
8.52326e-09
8.51735e-09
8.5199e-09
8.5343e-09
8.5877e-09
9.09796e-09
1.17849e-08
3.56741e-08
1.48698e-08
6.56002e-09
6.55824e-09
6.56194e-09
6.55598e-09
6.55919e-09
6.57077e-09
6.61797e-09
7.11117e-09
9.78085e-09
3.25742e-08
1.51946e-08
5.29577e-09
5.29947e-09
5.29341e-09
5.29707e-09
5.30657e-09
5.34698e-09
5.64703e-09
8.22149e-09
2.98064e-08
1.49401e-08
4.3179e-09
4.32192e-09
4.31515e-09
4.31954e-09
4.3293e-09
4.37345e-09
4.69777e-09
6.90808e-09
2.72687e-08
1.40585e-08
3.55488e-09
3.55869e-09
3.55218e-09
3.55662e-09
3.56513e-09
3.60517e-09
3.90942e-09
5.87513e-09
2.48951e-08
1.30175e-08
2.9815e-09
2.98509e-09
2.97889e-09
2.98326e-09
2.99089e-09
3.02767e-09
3.30811e-09
5.15284e-09
2.26482e-08
1.23396e-08
2.54173e-09
2.54508e-09
2.53923e-09
2.54344e-09
2.55043e-09
2.58462e-09
2.8427e-09
4.5196e-09
2.05075e-08
1.22367e-08
2.1973e-09
2.2004e-09
2.19491e-09
2.19892e-09
2.20542e-09
2.23731e-09
2.47462e-09
3.97535e-09
1.84673e-08
1.26412e-08
1.92236e-09
1.9252e-09
1.9201e-09
1.92386e-09
1.92998e-09
1.95974e-09
2.17766e-09
3.51654e-09
1.65085e-08
1.33232e-08
1.69945e-09
1.70201e-09
1.69732e-09
1.70079e-09
1.70658e-09
1.73436e-09
1.9341e-09
3.12355e-09
1.44388e-08
1.40101e-08
1.51663e-09
1.51889e-09
1.51463e-09
1.5178e-09
1.52328e-09
1.5492e-09
1.73185e-09
2.78422e-09
1.25165e-08
1.44871e-08
1.36564e-09
1.36758e-09
1.36378e-09
1.36661e-09
1.37179e-09
1.39595e-09
1.56249e-09
2.49037e-09
1.07636e-08
1.46341e-08
1.24061e-09
1.24221e-09
1.23888e-09
1.24137e-09
1.24624e-09
1.26876e-09
1.41977e-09
2.23626e-09
9.18736e-09
1.44212e-08
1.13726e-09
1.13848e-09
1.13566e-09
1.13777e-09
1.14232e-09
1.16331e-09
1.29859e-09
2.01775e-09
7.95283e-09
1.38801e-08
1.06243e-09
1.06334e-09
1.06093e-09
1.06273e-09
1.06699e-09
1.08668e-09
1.20778e-09
1.83079e-09
6.70803e-09
1.30676e-08
9.99585e-10
1.00028e-09
9.982e-10
9.99783e-10
1.00382e-09
1.02231e-09
1.13473e-09
1.6729e-09
5.75111e-09
1.20617e-08
)
;

boundaryField
{
    fuel
    {
        type            fixedValue;
        value           uniform 0;
    }
    wall
    {
        type            zeroGradient;
    }
    outlet
    {
        type            zeroGradient;
    }
    frontAndBack
    {
        type            empty;
    }
    procBoundary3to0
    {
        type            processor;
        value           nonuniform List<scalar> 10(9.55421e-10 9.55778e-10 9.54125e-10 9.55395e-10 9.59147e-10 9.76616e-10 1.07304e-09 1.54095e-09 4.93787e-09 1.09418e-08);
    }
    procBoundary3to2
    {
        type            processor;
        value           nonuniform List<scalar> 
25
(
6.66869e-08
5.47095e-08
4.18602e-08
3.20442e-08
2.46469e-08
1.85633e-08
1.42773e-08
1.08821e-08
8.52382e-09
6.56242e-09
5.29709e-09
5.29709e-09
4.31931e-09
3.55619e-09
2.98271e-09
2.54284e-09
2.19831e-09
1.92328e-09
1.70028e-09
1.51738e-09
1.3663e-09
1.24119e-09
1.13775e-09
1.06285e-09
9.99947e-10
)
;
    }
}


// ************************************************************************* //
