/*--------------------------------*- C++ -*----------------------------------*\
| =========                 |                                                 |
| \\      /  F ield         | OpenFOAM: The Open Source CFD Toolbox           |
|  \\    /   O peration     | Version:  dev                                   |
|   \\  /    A nd           | Web:      www.OpenFOAM.org                      |
|    \\/     M anipulation  |                                                 |
\*---------------------------------------------------------------------------*/
FoamFile
{
    version     2.0;
    format      ascii;
    class       volScalarField;
    location    "0.045";
    object      PC3H4;
}
// * * * * * * * * * * * * * * * * * * * * * * * * * * * * * * * * * * * * * //

dimensions      [0 0 0 0 0 0 0];

internalField   nonuniform List<scalar> 
13
(
6.84465e-09
7.042e-09
7.27564e-09
7.55859e-09
7.90891e-09
8.33855e-09
8.87133e-09
9.53128e-09
1.03466e-08
1.135e-08
1.25783e-08
1.40707e-08
1.58647e-08
)
;

boundaryField
{
    wall
    {
        type            zeroGradient;
    }
    fuel
    {
        type            fixedValue;
        value           nonuniform 0();
    }
    outlet
    {
        type            inletOutlet;
        inletValue      nonuniform 0();
        value           nonuniform 0();
    }
    procBoundary3to2
    {
        type            processor;
        value           uniform 6.67252e-09;
    }
    procBoundary3to4
    {
        type            processor;
        value           uniform 1.79896e-08;
    }
}


// ************************************************************************* //
