/*--------------------------------*- C++ -*----------------------------------*\
| =========                 |                                                 |
| \\      /  F ield         | OpenFOAM: The Open Source CFD Toolbox           |
|  \\    /   O peration     | Version:  dev                                   |
|   \\  /    A nd           | Web:      www.OpenFOAM.org                      |
|    \\/     M anipulation  |                                                 |
\*---------------------------------------------------------------------------*/
FoamFile
{
    version     2.0;
    format      ascii;
    class       surfaceScalarField;
    location    "0.07";
    object      phi;
}
// * * * * * * * * * * * * * * * * * * * * * * * * * * * * * * * * * * * * * //

dimensions      [1 0 -1 0 0 0 0];

internalField   nonuniform List<scalar> 
12
(
9.51207e-05
9.81647e-05
0.000101372
0.000104615
0.000107318
0.00011173
0.000113762
0.000120084
0.000121142
0.000125579
0.000130298
0.000136492
)
;

boundaryField
{
    wall
    {
        type            calculated;
        value           nonuniform List<scalar> 
52
(
7.53916e-20
7.02714e-20
6.50089e-20
5.95605e-20
5.39834e-20
4.85329e-20
4.30515e-20
3.78548e-20
3.25434e-20
2.58568e-20
1.90227e-20
1.2068e-20
5.36432e-21
-7.53916e-20
-7.02714e-20
-6.50089e-20
-5.95605e-20
-5.39834e-20
-4.85329e-20
-4.30515e-20
-3.78548e-20
-3.25434e-20
-2.58568e-20
-1.90227e-20
-1.2068e-20
-5.36432e-21
7.53916e-20
7.02714e-20
6.50089e-20
5.95605e-20
5.39834e-20
4.85329e-20
4.30515e-20
3.78548e-20
3.25434e-20
2.58568e-20
1.90227e-20
1.2068e-20
5.36432e-21
-7.53916e-20
-7.02714e-20
-6.50089e-20
-5.95605e-20
-5.39834e-20
-4.85329e-20
-4.30515e-20
-3.78548e-20
-3.25434e-20
-2.58568e-20
-1.90227e-20
-1.2068e-20
-5.36432e-21
)
;
    }
    fuel
    {
        type            calculated;
        value           nonuniform 0();
    }
    outlet
    {
        type            calculated;
        value           uniform 0.000164905;
    }
    procBoundary7to6
    {
        type            processor;
        value           uniform -9.21855e-05;
    }
}


// ************************************************************************* //
